<event>
11    1  0.1002087E-008  0.4479976E+03  0.7561462E-02  0.9517873E-01
         22   -1    0    0    0    0  0.00000000000E+00  0.00000000000E+00  0.53744185830E+03  0.53744185830E+03  0.00000000000E+00 0.  1.
         22   -1    0    0    0    0 -0.00000000000E+00 -0.00000000000E+00 -0.20485192732E+04  0.20485192732E+04  0.00000000000E+00 0. -1.
         24    2    1    2    0    0  0.40449561079E+03 -0.17270803034E+03 -0.13001393958E+04  0.13749202622E+04  0.81231249786E+02 0.  0.
         25    2    1    2    0    0 -0.38099300683E+03  0.15988402761E+03 -0.64093962298E+03  0.77276801376E+03  0.12509288249E+03 0.  0.
        -24    2    1    2    0    0 -0.23502603957E+02  0.12824002734E+02  0.43000160394E+03  0.43827285550E+03  0.80404533649E+02 0.  0.
        -13    1    3    3    0    0  0.40368566988E+02 -0.32247945766E+02 -0.23280503490E+03  0.23846956930E+03  0.00000000000E+00 0.  1.
         14    1    3    3    0    0  0.36412704380E+03 -0.14046008458E+03 -0.10673343609E+04  0.11364506929E+04  0.00000000000E+00 0. -1.
         11    1    5    5    0    0  0.37133272291E+01 -0.30958221610E+02  0.11845757135E+03  0.12249243444E+03  0.00000000000E+00 0. -1.
        -12    1    5    5    0    0 -0.27215931186E+02  0.43782224344E+02  0.31154403259E+03  0.31578042106E+03  0.00000000000E+00 0.  1.
          5    1    4    4  501    0 -0.34948834270E+03  0.16134060744E+03 -0.63150049314E+03  0.73958315187E+03  0.41800000000E+01 0. -1.
         -5    1    4    4    0  501 -0.31504664125E+02 -0.14565798332E+01 -0.94391298384E+01  0.33184861888E+02  0.41800000000E+01 0. -1.
</event>
<event>
11    1  0.1002087E-008  0.2472734E+03  0.7561462E-02  0.1025362E+00
         22   -1    0    0    0    0  0.00000000000E+00  0.00000000000E+00  0.25970412623E+04  0.25970412623E+04  0.00000000000E+00 0.  1.
         22   -1    0    0    0    0 -0.00000000000E+00 -0.00000000000E+00 -0.21841042084E+03  0.21841042084E+03  0.00000000000E+00 0. -1.
        -24    2    1    2    0    0 -0.62171184714E+02 -0.98707063163E+02 -0.12100664850E+03  0.18614662298E+03  0.79997598329E+02 0.  0.
         25    2    1    2    0    0  0.23787527446E+03 -0.22550421677E+02  0.24873693214E+03  0.36689286466E+03  0.12508854869E+03 0.  0.
         24    2    1    2    0    0 -0.17570408975E+03  0.12125748484E+03  0.22509005578E+04  0.22624121955E+04  0.79876882206E+02 0.  0.
        -11    1    5    5    0    0 -0.14648685429E+03  0.61629066260E+02  0.17331284545E+04  0.17403996036E+04  0.00000000000E+00 0.  1.
         12    1    5    5    0    0 -0.29217235460E+02  0.59628418581E+02  0.51777210334E+03  0.52201259195E+03  0.00000000000E+00 0. -1.
         13    1    3    3    0    0 -0.75937362302E+02 -0.96967284745E+02 -0.12043277765E+03  0.17225908173E+03  0.00000000000E+00 0. -1.
        -14    1    3    3    0    0  0.13766177588E+02 -0.17397784180E+01 -0.57387084869E+00  0.13887541254E+02  0.00000000000E+00 0.  1.
          5    1    4    4  501    0  0.10311807863E+03  0.39662386380E+02  0.57018016365E+02  0.12439843095E+03  0.41800000000E+01 0.  1.
         -5    1    4    4    0  501  0.13475719583E+03 -0.62212808057E+02  0.19171891577E+03  0.24249443371E+03  0.41800000000E+01 0.  1.
</event>
<event>
11    1  0.1002087E-008  0.1513161E+03  0.7561462E-02  0.1095542E+00
         22   -1    0    0    0    0  0.00000000000E+00  0.00000000000E+00  0.49931261941E+03  0.49931261941E+03  0.00000000000E+00 0.  1.
         22   -1    0    0    0    0 -0.00000000000E+00 -0.00000000000E+00 -0.98457198969E+03  0.98457198969E+03  0.00000000000E+00 0.  1.
         24    2    1    2    0    0 -0.29690498152E+02 -0.39813217348E+02 -0.92740521965E+03  0.93268752091E+03  0.85784335743E+02 0.  0.
         25    2    1    2    0    0  0.44394243239E+02  0.11607406761E+03  0.12532748585E+03  0.21632969179E+03  0.12509004291E+03 0.  0.
        -24    2    1    2    0    0 -0.14703745087E+02 -0.76260850261E+02  0.31681836353E+03  0.33486739641E+03  0.75699275469E+02 0.  0.
        -11    1    3    3    0    0 -0.57759486631E+02 -0.16293630163E+02 -0.46945019738E+03  0.47327067150E+03  0.00000000000E+00 0.  1.
         12    1    3    3    0    0  0.28068988479E+02 -0.23519587184E+02 -0.45795502227E+03  0.45941684941E+03  0.00000000000E+00 0. -1.
         13    1    5    5    0    0  0.16138500842E+02 -0.31596122962E+02  0.22824199781E+03  0.23098306380E+03  0.00000000000E+00 0. -1.
        -14    1    5    5    0    0 -0.30842245929E+02 -0.44664727300E+02  0.88576365716E+02  0.10388433261E+03  0.00000000000E+00 0.  1.
          5    1    4    4  501    0  0.65436704820E+00 -0.11406233828E+02  0.69221767670E+02  0.70282685533E+02  0.41800000000E+01 0. -1.
         -5    1    4    4    0  501  0.43739876191E+02  0.12748030144E+03  0.56105718179E+02  0.14604700626E+03  0.41800000000E+01 0. -1.
</event>
<event>
11    1  0.1002087E-008  0.1353390E+03  0.7561462E-02  0.1112878E+00
         22   -1    0    0    0    0  0.00000000000E+00  0.00000000000E+00  0.29352344000E+03  0.29352344000E+03  0.00000000000E+00 0.  1.
         22   -1    0    0    0    0 -0.00000000000E+00 -0.00000000000E+00 -0.31589696651E+03  0.31589696651E+03  0.00000000000E+00 0. -1.
         24    2    1    2    0    0  0.91238079978E+01  0.47924968009E+02 -0.24239306626E+03  0.26043474477E+03  0.81803491891E+02 0.  0.
         25    2    1    2    0    0 -0.23305534586E+02 -0.83504134083E+02  0.55399113249E+02  0.16196272179E+03  0.12508706228E+03 0.  0.
        -24    2    1    2    0    0  0.14181726588E+02  0.35579166074E+02  0.16462042650E+03  0.18702293995E+03  0.80066827196E+02 0.  0.
        -13    1    3    3    0    0 -0.17206517231E+02  0.18960105761E+02 -0.14952040103E+02  0.29649845682E+02  0.00000000000E+00 0.  1.
         14    1    3    3    0    0  0.26330325229E+02  0.28964862248E+02 -0.22744102615E+03  0.23078489909E+03  0.00000000000E+00 0. -1.
         13    1    5    5    0    0  0.12058821062E+02  0.32425510605E+02  0.15592849192E+02  0.37946881945E+02  0.00000000000E+00 0. -1.
        -14    1    5    5    0    0  0.21229055260E+01  0.31536554696E+01  0.14902757731E+03  0.14907605800E+03  0.00000000000E+00 0.  1.
          5    1    4    4  501    0 -0.29980971635E+02  0.15666642783E+02  0.52306122040E+02  0.62431603848E+02  0.41800000000E+01 0. -1.
         -5    1    4    4    0  501  0.66754370486E+01 -0.99170776866E+02  0.30929912088E+01  0.99531117941E+02  0.41800000000E+01 0. -1.
</event>
<event>
11    1  0.1002087E-008  0.2002647E+03  0.7561462E-02  0.1054337E+00
         22   -1    0    0    0    0  0.00000000000E+00  0.00000000000E+00  0.10461407178E+04  0.10461407178E+04  0.00000000000E+00 0.  1.
         22   -1    0    0    0    0 -0.00000000000E+00 -0.00000000000E+00 -0.96876340301E+03  0.96876340301E+03  0.00000000000E+00 0. -1.
        -24    2    1    2    0    0  0.64177149462E+02 -0.11122940601E+03 -0.88025024848E+03  0.89323278874E+03  0.80830858347E+02 0.  0.
         25    2    1    2    0    0 -0.21278795052E+03  0.89350609265E+02  0.16558669578E+03  0.31036669914E+03  0.12508513443E+03 0.  0.
         24    2    1    2    0    0  0.14861080105E+03  0.21878796742E+02  0.79204086753E+03  0.81130463297E+03  0.91228393022E+02 0.  0.
        -11    1    5    5    0    0  0.36447549542E+02  0.10234652719E+01  0.43395604349E+03  0.43548515363E+03  0.00000000000E+00 0.  1.
         12    1    5    5    0    0  0.11216325151E+03  0.20855331470E+02  0.35808482405E+03  0.37581947934E+03  0.00000000000E+00 0. -1.
         13    1    3    3    0    0  0.65940785110E+02 -0.10088229662E+03 -0.87082586093E+03  0.87912633050E+03  0.00000000000E+00 0. -1.
        -14    1    3    3    0    0 -0.17636356483E+01 -0.10347109391E+02 -0.94243875456E+01  0.14106458239E+02  0.00000000000E+00 0.  1.
          5    1    4    4  501    0 -0.59700506074E+02  0.45055634224E+02 -0.72166204556E+01  0.75257641550E+02  0.41800000000E+01 0. -1.
         -5    1    4    4    0  501 -0.15308744444E+03  0.44294975041E+02  0.17280331623E+03  0.23510905759E+03  0.41800000000E+01 0. -1.
</event>
<event>
11    1  0.1002087E-008  0.1390398E+03  0.7561462E-02  0.1108635E+00
         22   -1    0    0    0    0  0.00000000000E+00  0.00000000000E+00  0.10250495478E+04  0.10250495478E+04  0.00000000000E+00 0.  1.
         22   -1    0    0    0    0 -0.00000000000E+00 -0.00000000000E+00 -0.86292515067E+03  0.86292515067E+03  0.00000000000E+00 0. -1.
        -24    2    1    2    0    0 -0.24864037195E+02  0.57718000586E+02 -0.64719602274E+03  0.65525677161E+03  0.80926861703E+02 0.  0.
         25    2    1    2    0    0  0.32367587462E+02 -0.39289016150E+02 -0.18825593809E+03  0.23168722485E+03  0.12508950566E+03 0.  0.
         24    2    1    2    0    0 -0.75035502669E+01 -0.18428984436E+02  0.99757635794E+03  0.10010307020E+04  0.80671839283E+02 0.  0.
        -11    1    5    5    0    0  0.11506912038E+02 -0.46588962316E+02  0.66265622268E+03  0.66439160884E+03  0.00000000000E+00 0.  1.
         12    1    5    5    0    0 -0.19010462304E+02  0.28159977880E+02  0.33492013526E+03  0.33663909315E+03  0.00000000000E+00 0. -1.
         11    1    3    3    0    0 -0.32160841683E+02  0.75150718437E+02 -0.56712598664E+03  0.57298676681E+03  0.00000000000E+00 0. -1.
        -12    1    3    3    0    0  0.72968044882E+01 -0.17432717851E+02 -0.80070036108E+02  0.82270004799E+02  0.00000000000E+00 0.  1.
          5    1    4    4  501    0 -0.10928643773E+02  0.15686388585E+02 -0.15107104046E+03  0.15233328496E+03  0.41800000000E+01 0. -1.
         -5    1    4    4    0  501  0.43296231235E+02 -0.54975404736E+02 -0.37184897633E+02  0.79353939896E+02  0.41800000000E+01 0. -1.
</event>
<event>
11    1  0.1002087E-008  0.1524520E+03  0.7561462E-02  0.1094399E+00
         22   -1    0    0    0    0  0.00000000000E+00  0.00000000000E+00  0.43687996395E+03  0.43687996395E+03  0.00000000000E+00 0.  1.
         22   -1    0    0    0    0 -0.00000000000E+00 -0.00000000000E+00 -0.37003610382E+03  0.37003610382E+03  0.00000000000E+00 0. -1.
        -24    2    1    2    0    0  0.98915524574E+00 -0.27662675186E+02 -0.31553566216E+03  0.32667267033E+03  0.79912936472E+02 0.  0.
         25    2    1    2    0    0  0.23268433780E+02 -0.64848027318E+02  0.11866535988E+03  0.18567625932E+03  0.12509004350E+03 0.  0.
         24    2    1    2    0    0 -0.24257589026E+02  0.92510702504E+02  0.26371416242E+03  0.29456713813E+03  0.89877576200E+02 0.  0.
        -11    1    5    5    0    0 -0.14649486885E+02  0.93431069968E+02  0.26785797881E+03  0.28406314283E+03  0.00000000000E+00 0.  1.
         12    1    5    5    0    0 -0.96081021404E+01 -0.92036746440E+00 -0.41438163922E+01  0.10503995302E+02  0.00000000000E+00 0. -1.
         13    1    3    3    0    0 -0.62926358484E+01 -0.54376040197E+02 -0.24157841397E+03  0.24770240432E+03  0.00000000000E+00 0. -1.
        -14    1    3    3    0    0  0.72817910941E+01  0.26713365012E+02 -0.73957248198E+02  0.78970266005E+02  0.00000000000E+00 0.  1.
          5    1    4    4  501    0 -0.25934156101E+02  0.25504025796E+02  0.49774241570E+02  0.61789831755E+02  0.41800000000E+01 0.  1.
         -5    1    4    4    0  501  0.49202589881E+02 -0.90352053114E+02  0.68891118306E+02  0.12388642756E+03  0.41800000000E+01 0.  1.
</event>
<event>
11    1  0.1002087E-008  0.1541701E+03  0.7561462E-02  0.1092692E+00
         22   -1    0    0    0    0  0.00000000000E+00  0.00000000000E+00  0.72331627108E+03  0.72331627108E+03  0.00000000000E+00 0.  1.
         22   -1    0    0    0    0 -0.00000000000E+00 -0.00000000000E+00 -0.22598610270E+03  0.22598610270E+03  0.00000000000E+00 0. -1.
         24    2    1    2    0    0 -0.29172287825E+01 -0.20442197859E+02 -0.10283037060E+03  0.13084420859E+03  0.78228691197E+02 0.  0.
         25    2    1    2    0    0 -0.54560435334E+02 -0.50220899277E+02 -0.51854718377E+02  0.15438937864E+03  0.12509271998E+03 0.  0.
        -24    2    1    2    0    0  0.57477664116E+02  0.70663097136E+02  0.65201525735E+03  0.66406878655E+03  0.86985644091E+02 0.  0.
        -11    1    3    3    0    0 -0.37103787105E+02  0.28964142054E+01 -0.33375314886E+02  0.49989917749E+02  0.00000000000E+00 0.  1.
         12    1    3    3    0    0  0.34186558323E+02 -0.23338612064E+02 -0.69455055710E+02  0.80854290837E+02  0.00000000000E+00 0. -1.
         11    1    5    5    0    0  0.67112631870E+02  0.32710013173E+02  0.27262309863E+03  0.28266128887E+03  0.00000000000E+00 0. -1.
        -12    1    5    5    0    0 -0.96349677538E+01  0.37953083963E+02  0.37939215872E+03  0.38140749768E+03  0.00000000000E+00 0.  1.
          5    1    4    4  501    0  0.16961600044E+02  0.62920308492E+01  0.27687857056E+02  0.33337296780E+02  0.41800000000E+01 0.  1.
         -5    1    4    4    0  501 -0.71522035378E+02 -0.56512930126E+02 -0.79542575432E+02  0.12105208186E+03  0.41800000000E+01 0.  1.
</event>
<event>
11    1  0.1002087E-008  0.1435654E+03  0.7561462E-02  0.1103641E+00
         22   -1    0    0    0    0  0.00000000000E+00  0.00000000000E+00  0.19733837115E+03  0.19733837115E+03  0.00000000000E+00 0. -1.
         22   -1    0    0    0    0 -0.00000000000E+00 -0.00000000000E+00 -0.11535437103E+04  0.11535437103E+04  0.00000000000E+00 0.  1.
        -24    2    1    2    0    0  0.54945325977E+02 -0.45746294016E+02 -0.10693165355E+04  0.10748710605E+04  0.82451388176E+02 0.  0.
         25    2    1    2    0    0 -0.21053896049E+02  0.43546179307E+02  0.53179416143E+01  0.13422260434E+03  0.12509152945E+03 0.  0.
         24    2    1    2    0    0 -0.33891429928E+02  0.22001147088E+01  0.10779325477E+03  0.14178841655E+03  0.85621841645E+02 0.  0.
        -13    1    5    5    0    0 -0.14487061087E+02  0.37604427472E+02  0.19639877134E+02  0.44829596008E+02  0.00000000000E+00 0.  1.
         14    1    5    5    0    0 -0.19404368842E+02 -0.35404312763E+02  0.88153377632E+02  0.96958820539E+02  0.00000000000E+00 0. -1.
         11    1    3    3    0    0  0.48455370686E+02 -0.31045306707E+02 -0.30476561401E+03  0.31015127518E+03  0.00000000000E+00 0. -1.
        -12    1    3    3    0    0  0.64899552915E+01 -0.14700987309E+02 -0.76455092150E+03  0.76471978535E+03  0.00000000000E+00 0.  1.
          5    1    4    4  501    0 -0.47647883094E+02  0.72893217743E+02 -0.16621220288E+02  0.88755165034E+02  0.41800000000E+01 0. -1.
         -5    1    4    4    0  501  0.26593987045E+02 -0.29347038436E+02  0.21939161902E+02  0.45467439304E+02  0.41800000000E+01 0. -1.
</event>
<event>
11    1  0.1002087E-008  0.1604573E+03  0.7561462E-02  0.1086648E+00
         22   -1    0    0    0    0  0.00000000000E+00  0.00000000000E+00  0.97612604339E+02  0.97612604339E+02  0.00000000000E+00 0.  1.
         22   -1    0    0    0    0 -0.00000000000E+00 -0.00000000000E+00 -0.19426965985E+04  0.19426965985E+04  0.00000000000E+00 0.  1.
        -24    2    1    2    0    0 -0.27522024813E+02  0.38636346305E+01 -0.17186813256E+04  0.17208565525E+04  0.81910841837E+02 0.  0.
         25    2    1    2    0    0  0.10026272842E+03 -0.58374693843E+02 -0.82944389236E+02  0.18970560815E+03  0.12509287137E+03 0.  0.
         24    2    1    2    0    0 -0.72740703604E+02  0.54511059212E+02 -0.43458279324E+02  0.12974704212E+03  0.81749662754E+02 0.  0.
        -11    1    5    5    0    0 -0.70003659369E+02  0.42150801097E+02  0.28256466710E+01  0.81762990633E+02  0.00000000000E+00 0.  1.
         12    1    5    5    0    0 -0.27370442354E+01  0.12360258115E+02 -0.46283925995E+02  0.47984051489E+02  0.00000000000E+00 0. -1.
         11    1    3    3    0    0 -0.42871486551E+02 -0.21071406942E+02 -0.64100946137E+03  0.64278697725E+03  0.00000000000E+00 0. -1.
        -12    1    3    3    0    0  0.15349461738E+02  0.24935041573E+02 -0.10776718642E+04  0.10780695753E+04  0.00000000000E+00 0.  1.
          5    1    4    4  501    0  0.39245634797E+02  0.31627011491E+02  0.35511201684E+01  0.50700794480E+02  0.41800000000E+01 0. -1.
         -5    1    4    4    0  501  0.61017093620E+02 -0.90001705334E+02 -0.86495509405E+02  0.13900481367E+03  0.41800000000E+01 0. -1.
</event>
<event>
11    1  0.1002087E-008  0.1519530E+03  0.7561462E-02  0.1094900E+00
         22   -1    0    0    0    0  0.00000000000E+00  0.00000000000E+00  0.13742821423E+04  0.13742821423E+04  0.00000000000E+00 0. -1.
         22   -1    0    0    0    0 -0.00000000000E+00 -0.00000000000E+00 -0.84417540026E+03  0.84417540026E+03  0.00000000000E+00 0. -1.
         24    2    1    2    0    0 -0.10468329839E+02 -0.34282359131E+02 -0.67005654425E+03  0.67600296562E+03  0.81971769286E+02 0.  0.
         25    2    1    2    0    0  0.53839390570E+02  0.10824499740E+03 -0.12366506714E+03  0.21343845977E+03  0.12508903965E+03 0.  0.
        -24    2    1    2    0    0 -0.43371060730E+02 -0.73962638269E+02  0.13238283534E+04  0.13290161172E+04  0.80067531315E+02 0.  0.
        -11    1    3    3    0    0 -0.16192427950E+01 -0.45039879913E+02 -0.17372108495E+03  0.17947208163E+03  0.00000000000E+00 0.  1.
         12    1    3    3    0    0 -0.88490870443E+01  0.10757520782E+02 -0.49633545930E+03  0.49653088399E+03  0.00000000000E+00 0. -1.
         11    1    5    5    0    0 -0.44251898998E+02 -0.90258507396E+02  0.10937088553E+04  0.10983186645E+04  0.00000000000E+00 0. -1.
        -12    1    5    5    0    0  0.88083826717E+00  0.16295869127E+02  0.23011949815E+03  0.23069745264E+03  0.00000000000E+00 0.  1.
          5    1    4    4  501    0  0.37142187311E+02  0.38519782617E+02 -0.13068525170E+03  0.14127782255E+03  0.41800000000E+01 0. -1.
         -5    1    4    4    0  501  0.16697203258E+02  0.69725214783E+02  0.70201845667E+01  0.72160637224E+02  0.41800000000E+01 0. -1.
</event>
<event>
11    1  0.1002087E-008  0.2140727E+03  0.7561462E-02  0.1044995E+00
         22   -1    0    0    0    0  0.00000000000E+00  0.00000000000E+00  0.23205413603E+03  0.23205413603E+03  0.00000000000E+00 0. -1.
         22   -1    0    0    0    0 -0.00000000000E+00 -0.00000000000E+00 -0.11104385836E+04  0.11104385836E+04  0.00000000000E+00 0. -1.
         24    2    1    2    0    0  0.15327332649E+03  0.18163865006E+02 -0.67128487966E+03  0.69338142261E+03  0.79572413271E+02 0.  0.
         25    2    1    2    0    0 -0.29579288484E+03  0.47143978042E+02 -0.30353708368E+03  0.44440464436E+03  0.12507894057E+03 0.  0.
        -24    2    1    2    0    0  0.14251955835E+03 -0.65307843048E+02  0.96437515779E+02  0.20470665264E+03  0.89597323124E+02 0.  0.
        -11    1    3    3    0    0  0.71033385297E+01  0.63855081514E+01 -0.19027865670E+03  0.19051823883E+03  0.00000000000E+00 0.  1.
         12    1    3    3    0    0  0.14616998796E+03  0.11778356855E+02 -0.48100622296E+03  0.50286318377E+03  0.00000000000E+00 0. -1.
         13    1    5    5    0    0  0.14954899829E+03 -0.43249989133E+02  0.92893389461E+02  0.18128608953E+03  0.00000000000E+00 0. -1.
        -14    1    5    5    0    0 -0.70294399447E+01 -0.22057853915E+02  0.35441263178E+01  0.23420563115E+02  0.00000000000E+00 0.  1.
          5    1    4    4  501    0 -0.10614340818E+03  0.27795560248E+02 -0.19815147334E+03  0.22654027248E+03  0.41800000000E+01 0. -1.
         -5    1    4    4    0  501 -0.18964947666E+03  0.19348417794E+02 -0.10538561034E+03  0.21786437188E+03  0.41800000000E+01 0. -1.
</event>
<event>
11    1  0.1002087E-008  0.1281618E+03  0.7561462E-02  0.1121548E+00
         22   -1    0    0    0    0  0.00000000000E+00  0.00000000000E+00  0.13533897197E+04  0.13533897197E+04  0.00000000000E+00 0.  1.
         22   -1    0    0    0    0 -0.00000000000E+00 -0.00000000000E+00 -0.84971753383E+02  0.84971753383E+02  0.00000000000E+00 0. -1.
        -24    2    1    2    0    0  0.13016386932E+02  0.27160896969E+02  0.20165303552E+01  0.85379904398E+02  0.79865643598E+02 0.  0.
         25    2    1    2    0    0  0.12830405322E+02 -0.27825052904E+02  0.57281825101E+02  0.14096317807E+03  0.12510218709E+03 0.  0.
         24    2    1    2    0    0 -0.25846792254E+02  0.66415593436E+00  0.12091196109E+04  0.12120183906E+04  0.79685933825E+02 0.  0.
        -11    1    5    5    0    0 -0.28251610086E+02  0.36424030163E+02  0.80226236486E+03  0.80358556826E+03  0.00000000000E+00 0.  1.
         12    1    5    5    0    0  0.24048178326E+01 -0.35759874229E+02  0.40685724602E+03  0.40843282238E+03  0.00000000000E+00 0. -1.
         11    1    3    3    0    0  0.46359931058E+02  0.22956669992E+02  0.41379014416E+00  0.51734158224E+02  0.00000000000E+00 0. -1.
        -12    1    3    3    0    0 -0.33343544127E+02  0.42042269773E+01  0.16027402111E+01  0.33645746174E+02  0.00000000000E+00 0.  1.
          5    1    4    4  501    0 -0.88459807631E+01  0.29771184165E+02 -0.23610796381E+02  0.39236677841E+02  0.41800000000E+01 0. -1.
         -5    1    4    4    0  501  0.21676386085E+02 -0.57596237069E+02  0.80892621482E+02  0.10172650023E+03  0.41800000000E+01 0. -1.
</event>
<event>
11    1  0.1002087E-008  0.1872450E+03  0.7561462E-02  0.1063929E+00
         22   -1    0    0    0    0  0.00000000000E+00  0.00000000000E+00  0.13314412430E+04  0.13314412430E+04  0.00000000000E+00 0. -1.
         22   -1    0    0    0    0 -0.00000000000E+00 -0.00000000000E+00 -0.12760264468E+03  0.12760264468E+03  0.00000000000E+00 0. -1.
         24    2    1    2    0    0  0.28144044842E+02 -0.17756003867E+02 -0.86832093752E+02  0.11933872294E+03  0.74796760324E+02 0.  0.
         25    2    1    2    0    0 -0.14002925081E+03  0.79773572554E+02  0.63031360226E+03  0.66250515895E+03  0.12508331021E+03 0.  0.
        -24    2    1    2    0    0  0.11188520597E+03 -0.62017568686E+02  0.66035708978E+03  0.67720000574E+03  0.78510404459E+02 0.  0.
        -11    1    3    3    0    0  0.31268356422E+00  0.14875322160E+02  0.67944686317E+01  0.16356582294E+02  0.00000000000E+00 0.  1.
         12    1    3    3    0    0  0.27831361278E+02 -0.32631326027E+02 -0.93626562384E+02  0.10298214065E+03  0.00000000000E+00 0. -1.
         11    1    5    5    0    0  0.78888463407E+02 -0.51585867941E+02  0.60214816527E+03  0.60948084824E+03  0.00000000000E+00 0. -1.
        -12    1    5    5    0    0  0.32996742561E+02 -0.10431700745E+02  0.58208924516E+02  0.67719157506E+02  0.00000000000E+00 0.  1.
          5    1    4    4  501    0 -0.11264107610E+03  0.26950313249E+02  0.22770692908E+03  0.25550391261E+03  0.41800000000E+01 0.  1.
         -5    1    4    4    0  501 -0.27388174708E+02  0.52823259305E+02  0.40260667318E+03  0.40700124634E+03  0.41800000000E+01 0.  1.
</event>
<event>
11    1  0.1002087E-008  0.1632805E+03  0.7561462E-02  0.1084032E+00
         22   -1    0    0    0    0  0.00000000000E+00  0.00000000000E+00  0.48393495471E+03  0.48393495471E+03  0.00000000000E+00 0.  1.
         22   -1    0    0    0    0 -0.00000000000E+00 -0.00000000000E+00 -0.12456706342E+04  0.12456706342E+04  0.00000000000E+00 0.  1.
        -24    2    1    2    0    0 -0.83760804812E+02  0.65290186738E+02 -0.11923797504E+04  0.11997521338E+04  0.79731000915E+02 0.  0.
         25    2    1    2    0    0  0.19539928285E+02 -0.74129366325E+02  0.85531942390E+02  0.16982551594E+03  0.12509204989E+03 0.  0.
         24    2    1    2    0    0  0.64220876527E+02  0.88391795861E+01  0.34511212850E+03  0.36002793919E+03  0.79468759155E+02 0.  0.
        -13    1    5    5    0    0  0.45643574402E+02 -0.11463399563E+02  0.31776626717E+03  0.32123223058E+03  0.00000000000E+00 0.  1.
         14    1    5    5    0    0  0.18577302126E+02  0.20302579149E+02  0.27345861326E+02  0.38795708603E+02  0.00000000000E+00 0. -1.
         13    1    3    3    0    0  0.36182840628E+00 -0.15576078549E+02 -0.17886655619E+03  0.17954383884E+03  0.00000000000E+00 0. -1.
        -14    1    3    3    0    0 -0.84122633219E+02  0.80866265287E+02 -0.10135131942E+04  0.10202082949E+04  0.00000000000E+00 0.  1.
          5    1    4    4  501    0  0.32662349819E+02 -0.36710198115E+01  0.91959900850E+02  0.97746617571E+02  0.41800000000E+01 0.  1.
         -5    1    4    4    0  501 -0.13122421534E+02 -0.70458346513E+02 -0.64279584605E+01  0.72078898370E+02  0.41800000000E+01 0.  1.
</event>
<event>
11    1  0.1002087E-008  0.1339512E+03  0.7561462E-02  0.1114507E+00
         22   -1    0    0    0    0  0.00000000000E+00  0.00000000000E+00  0.36536016068E+03  0.36536016068E+03  0.00000000000E+00 0.  1.
         22   -1    0    0    0    0 -0.00000000000E+00 -0.00000000000E+00 -0.80868057854E+03  0.80868057854E+03  0.00000000000E+00 0.  1.
        -24    2    1    2    0    0  0.39189476544E+01  0.46140848087E+02 -0.70580561901E+03  0.71200198832E+03  0.81491861766E+02 0.  0.
         25    2    1    2    0    0 -0.21099600216E+02 -0.76050228787E+02 -0.37468812781E+02  0.15257903821E+03  0.12509044944E+03 0.  0.
         24    2    1    2    0    0  0.17180652562E+02  0.29909380700E+02  0.29995401394E+03  0.30945971269E+03  0.67846572667E+02 0.  0.
        -13    1    5    5    0    0  0.40804416605E+02  0.12906870152E+02  0.22537136552E+03  0.22939886684E+03  0.00000000000E+00 0.  1.
         14    1    5    5    0    0 -0.23623764044E+02  0.17002510548E+02  0.74582648416E+02  0.80060845844E+02  0.00000000000E+00 0. -1.
         13    1    3    3    0    0 -0.10758309535E+01 -0.23335709904E+02 -0.21803961370E+03  0.21928745042E+03  0.00000000000E+00 0. -1.
        -14    1    3    3    0    0  0.49947786078E+01  0.69476557991E+02 -0.48776600531E+03  0.49271453790E+03  0.00000000000E+00 0.  1.
          5    1    4    4  501    0  0.48209882505E+02 -0.28122866703E+02 -0.38962781562E+02  0.68195741435E+02  0.41800000000E+01 0. -1.
         -5    1    4    4    0  501 -0.69309482721E+02 -0.47927362084E+02  0.14939687807E+01  0.84383296772E+02  0.41800000000E+01 0. -1.
</event>
<event>
11    1  0.1002087E-008  0.1289141E+03  0.7561462E-02  0.1120610E+00
         22   -1    0    0    0    0  0.00000000000E+00  0.00000000000E+00  0.13549173681E+03  0.13549173681E+03  0.00000000000E+00 0.  1.
         22   -1    0    0    0    0 -0.00000000000E+00 -0.00000000000E+00 -0.57000457405E+03  0.57000457405E+03  0.00000000000E+00 0. -1.
        -24    2    1    2    0    0 -0.14826830398E+02  0.29140912373E+02 -0.43836042657E+03  0.44805704326E+03  0.86753805430E+02 0.  0.
         25    2    1    2    0    0  0.17995825579E+02 -0.12453618208E+02 -0.72201807890E+02  0.14608186607E+03  0.12509143931E+03 0.  0.
         24    2    1    2    0    0 -0.31689951814E+01 -0.16687294165E+02  0.76049397225E+02  0.11135740153E+03  0.79551566543E+02 0.  0.
        -11    1    5    5    0    0  0.37659666995E+02 -0.14768440943E+02  0.36622445169E+02  0.54567030853E+02  0.00000000000E+00 0.  1.
         12    1    5    5    0    0 -0.40828662176E+02 -0.19188532224E+01  0.39426952056E+02  0.56790370673E+02  0.00000000000E+00 0. -1.
         11    1    3    3    0    0 -0.30696279541E+02 -0.19577667124E+02 -0.11394483475E+03  0.11962011534E+03  0.00000000000E+00 0. -1.
        -12    1    3    3    0    0  0.15869449143E+02  0.48718579496E+02 -0.32441559182E+03  0.32843692792E+03  0.00000000000E+00 0.  1.
          5    1    4    4  501    0 -0.51016297066E+02  0.13615663977E+02 -0.26849719193E+02  0.59383740978E+02  0.41800000000E+01 0. -1.
         -5    1    4    4    0  501  0.69012122645E+02 -0.26069282185E+02 -0.45352088697E+02  0.86698125093E+02  0.41800000000E+01 0. -1.
</event>
<event>
11    1  0.1002087E-008  0.1275581E+03  0.7561462E-02  0.1122306E+00
         22   -1    0    0    0    0  0.00000000000E+00  0.00000000000E+00  0.11661811023E+04  0.11661811023E+04  0.00000000000E+00 0. -1.
         22   -1    0    0    0    0 -0.00000000000E+00 -0.00000000000E+00 -0.77323594275E+02  0.77323594275E+02  0.00000000000E+00 0. -1.
        -24    2    1    2    0    0 -0.79999449562E+01  0.31306997925E+02 -0.34794023636E+02  0.92504412923E+02  0.79387121695E+02 0.  0.
         25    2    1    2    0    0 -0.10354093970E+02 -0.71329554457E+01  0.34349816239E+03  0.36578366977E+03  0.12509444108E+03 0.  0.
         24    2    1    2    0    0  0.18354038926E+02 -0.24174042480E+02  0.78015336924E+03  0.78521661385E+03  0.83693464838E+02 0.  0.
        -11    1    5    5    0    0  0.70943684884E+01 -0.51906077157E+02  0.33638904766E+03  0.34044406632E+03  0.00000000000E+00 0.  1.
         12    1    5    5    0    0  0.11259670437E+02  0.27732034677E+02  0.44376432158E+03  0.44477254753E+03  0.00000000000E+00 0. -1.
         13    1    3    3    0    0 -0.42932169465E+02  0.24509078519E+02 -0.25958534341E+02  0.55836472041E+02  0.00000000000E+00 0. -1.
        -14    1    3    3    0    0  0.34932224509E+02  0.67979194063E+01 -0.88354892941E+01  0.36667940881E+02  0.00000000000E+00 0.  1.
          5    1    4    4  501    0 -0.19264281236E+02  0.27342774520E+02  0.32245369232E+03  0.32421072767E+03  0.41800000000E+01 0.  1.
         -5    1    4    4    0  501  0.89101872664E+01 -0.34475729966E+02  0.21044470070E+02  0.41572942094E+02  0.41800000000E+01 0.  1.
</event>
<event>
11    1  0.1002087E-008  0.1392660E+03  0.7561462E-02  0.1108381E+00
         22   -1    0    0    0    0  0.00000000000E+00  0.00000000000E+00  0.52396436843E+03  0.52396436843E+03  0.00000000000E+00 0. -1.
         22   -1    0    0    0    0 -0.00000000000E+00 -0.00000000000E+00 -0.15341210350E+04  0.15341210350E+04  0.00000000000E+00 0. -1.
        -24    2    1    2    0    0  0.35040905400E+02 -0.24444370333E+02 -0.10926997654E+04  0.10965341002E+04  0.81048525319E+02 0.  0.
         25    2    1    2    0    0  0.11641520593E+02 -0.15897730708E+02 -0.42525769607E+03  0.44371197415E+03  0.12509174668E+03 0.  0.
         24    2    1    2    0    0 -0.46682425994E+02  0.40342101041E+02  0.50780079486E+03  0.51783932906E+03  0.80555505344E+02 0.  0.
        -13    1    5    5    0    0  0.96402927709E+01 -0.17841307388E+02  0.88962057457E+02  0.91244151380E+02  0.00000000000E+00 0.  1.
         14    1    5    5    0    0 -0.56322718765E+02  0.58183408429E+02  0.41883873741E+03  0.42659517768E+03  0.00000000000E+00 0. -1.
         11    1    3    3    0    0  0.38061741780E+02 -0.31406236386E+02 -0.10834338407E+04  0.10845570225E+04  0.00000000000E+00 0. -1.
        -12    1    3    3    0    0 -0.30208363801E+01  0.69618660523E+01 -0.92659246842E+01  0.11977077758E+02  0.00000000000E+00 0.  1.
          5    1    4    4  501    0  0.27816344541E+02 -0.22640266861E+02 -0.42412671487E+03  0.42566098409E+03  0.41800000000E+01 0. -1.
         -5    1    4    4    0  501 -0.16174823948E+02  0.67425361537E+01 -0.11309811990E+01  0.18050990056E+02  0.41800000000E+01 0. -1.
</event>
<event>
11    1  0.1002087E-008  0.1591993E+03  0.7561462E-02  0.1087833E+00
         22   -1    0    0    0    0  0.00000000000E+00  0.00000000000E+00  0.15572630039E+04  0.15572630039E+04  0.00000000000E+00 0.  1.
         22   -1    0    0    0    0 -0.00000000000E+00 -0.00000000000E+00 -0.25767575730E+04  0.25767575730E+04  0.00000000000E+00 0.  1.
         24    2    1    2    0    0 -0.69400723506E+02 -0.72844918943E+02 -0.23321591172E+04  0.23357622259E+04  0.81830223250E+02 0.  0.
         25    2    1    2    0    0  0.29771689541E+02  0.70622587702E+02 -0.21854732801E+03  0.26321919687E+03  0.12508999811E+03 0.  0.
        -24    2    1    2    0    0  0.39629033965E+02  0.22223312418E+01  0.15312118762E+04  0.15350391541E+04  0.10079680476E+03 0.  0.
        -11    1    3    3    0    0 -0.63969118019E+02 -0.42122875478E+02 -0.21136306779E+04  0.21150179733E+04  0.00000000000E+00 0.  1.
         12    1    3    3    0    0 -0.54316054872E+01 -0.30722043465E+02 -0.21852843929E+03  0.22074425263E+03  0.00000000000E+00 0. -1.
         11    1    5    5    0    0 -0.31810439957E+02  0.15862377408E+02  0.52571213761E+03  0.52691248869E+03  0.00000000000E+00 0. -1.
        -12    1    5    5    0    0  0.71439473923E+02 -0.13640046167E+02  0.10054997386E+04  0.10081266654E+04  0.00000000000E+00 0.  1.
          5    1    4    4  501    0  0.66001918018E+02  0.75851111052E+02 -0.11243783305E+03  0.15089527140E+03  0.41800000000E+01 0.  1.
         -5    1    4    4    0  501 -0.36230228477E+02 -0.52285233504E+01 -0.10610949496E+03  0.11232392547E+03  0.41800000000E+01 0.  1.
</event>
<event>
11    1  0.1002087E-008  0.2012671E+03  0.7561462E-02  0.1053631E+00
         22   -1    0    0    0    0  0.00000000000E+00  0.00000000000E+00  0.12273080104E+04  0.12273080104E+04  0.00000000000E+00 0. -1.
         22   -1    0    0    0    0 -0.00000000000E+00 -0.00000000000E+00 -0.83556443793E+03  0.83556443793E+03  0.00000000000E+00 0. -1.
        -24    2    1    2    0    0  0.11409690667E+03  0.79148377495E+02 -0.66968337088E+03  0.68864478852E+03  0.80456558200E+02 0.  0.
         25    2    1    2    0    0 -0.24183632823E+03 -0.16050122749E+03  0.17801859517E+02  0.31655863727E+03  0.12508801282E+03 0.  0.
         24    2    1    2    0    0  0.12773942156E+03  0.81352849997E+02  0.10436250838E+04  0.10576690225E+04  0.81085137974E+02 0.  0.
        -13    1    5    5    0    0  0.52293337137E+01 -0.60685249350E+01  0.23626583285E+03  0.23640160045E+03  0.00000000000E+00 0.  1.
         14    1    5    5    0    0  0.12251008784E+03  0.87421374932E+02  0.80735925097E+03  0.82126742206E+03  0.00000000000E+00 0. -1.
         11    1    3    3    0    0  0.12053344177E+03  0.62371280897E+02 -0.50270197764E+03  0.52069930439E+03  0.00000000000E+00 0. -1.
        -12    1    3    3    0    0 -0.64365350956E+01  0.16777096598E+02 -0.16698139324E+03  0.16794548414E+03  0.00000000000E+00 0.  1.
          5    1    4    4  501    0 -0.23633782091E+03 -0.15927510020E+03 -0.12649555785E+02  0.28530966825E+03  0.41800000000E+01 0. -1.
         -5    1    4    4    0  501 -0.54985073148E+01 -0.12261272961E+01  0.30451415302E+02  0.31248969019E+02  0.41800000000E+01 0. -1.
</event>
<event>
11    1  0.1002087E-008  0.1582525E+03  0.7561462E-02  0.1088732E+00
         22   -1    0    0    0    0  0.00000000000E+00  0.00000000000E+00  0.89936407830E+03  0.89936407830E+03  0.00000000000E+00 0. -1.
         22   -1    0    0    0    0 -0.00000000000E+00 -0.00000000000E+00 -0.27301513787E+03  0.27301513787E+03  0.00000000000E+00 0. -1.
         24    2    1    2    0    0 -0.95808359912E+02 -0.15852011671E+02 -0.22834575596E+03  0.26091295166E+03  0.80642767650E+02 0.  0.
         25    2    1    2    0    0  0.99846079361E+02 -0.30386657784E+02  0.25072026136E+03  0.29899588955E+03  0.12508118956E+03 0.  0.
        -24    2    1    2    0    0 -0.40377194487E+01  0.46238669454E+02  0.60397443504E+03  0.61247037496E+03  0.90446250782E+02 0.  0.
        -11    1    3    3    0    0 -0.37753627292E+02  0.11435379650E+02 -0.16893531169E+03  0.17347980809E+03  0.00000000000E+00 0.  1.
         12    1    3    3    0    0 -0.58054732620E+02 -0.27287391321E+02 -0.59410444276E+02  0.87433143566E+02  0.00000000000E+00 0. -1.
         11    1    5    5    0    0  0.18971216363E+02  0.57628745628E+02  0.54204789316E+03  0.54543276199E+03  0.00000000000E+00 0. -1.
        -12    1    5    5    0    0 -0.23008935812E+02 -0.11390076174E+02  0.61926541885E+02  0.67037612967E+02  0.00000000000E+00 0.  1.
          5    1    4    4  501    0  0.77352306881E+02 -0.68806086406E+02  0.10899126913E+03  0.15038027149E+03  0.41800000000E+01 0.  1.
         -5    1    4    4    0  501  0.22493772480E+02  0.38419428623E+02  0.14172899222E+03  0.14861561806E+03  0.41800000000E+01 0.  1.
</event>
<event>
11    1  0.1002087E-008  0.1404174E+03  0.7561462E-02  0.1107093E+00
         22   -1    0    0    0    0  0.00000000000E+00  0.00000000000E+00  0.19897809113E+03  0.19897809113E+03  0.00000000000E+00 0.  1.
         22   -1    0    0    0    0 -0.00000000000E+00 -0.00000000000E+00 -0.15769083687E+04  0.15769083687E+04  0.00000000000E+00 0. -1.
        -24    2    1    2    0    0 -0.21609144118E+01 -0.63989893278E+02 -0.14539171851E+04  0.14575661115E+04  0.80773833976E+02 0.  0.
         25    2    1    2    0    0 -0.16997403007E+02  0.58550475459E+02 -0.66797365507E+02  0.15436042455E+03  0.12509269660E+03 0.  0.
         24    2    1    2    0    0  0.19158317419E+02  0.54394178194E+01  0.14278427298E+03  0.16395992384E+03  0.78095323939E+02 0.  0.
        -11    1    5    5    0    0 -0.33760491489E+01  0.29437499007E+02  0.12078440076E+03  0.12436573291E+03  0.00000000000E+00 0.  1.
         12    1    5    5    0    0  0.22534366568E+02 -0.23998081187E+02  0.21999872223E+02  0.39594190926E+02  0.00000000000E+00 0. -1.
         11    1    3    3    0    0  0.16452185235E+02 -0.25837591613E+02 -0.11783799861E+04  0.11787780313E+04  0.00000000000E+00 0. -1.
        -12    1    3    3    0    0 -0.18613099647E+02 -0.38152301666E+02 -0.27553719898E+03  0.27878808013E+03  0.00000000000E+00 0.  1.
          5    1    4    4  501    0 -0.39519141575E+02  0.70511068975E+02 -0.88993788449E+02  0.12029522094E+03  0.41800000000E+01 0.  1.
         -5    1    4    4    0  501  0.22521738568E+02 -0.11960593516E+02  0.22196422942E+02  0.34065203607E+02  0.41800000000E+01 0.  1.
</event>
<event>
11    1  0.1002087E-008  0.2469553E+03  0.7561462E-02  0.1025534E+00
         22   -1    0    0    0    0  0.00000000000E+00  0.00000000000E+00  0.11427943242E+03  0.11427943242E+03  0.00000000000E+00 0. -1.
         22   -1    0    0    0    0 -0.00000000000E+00 -0.00000000000E+00 -0.11182798974E+04  0.11182798974E+04  0.00000000000E+00 0. -1.
         24    2    1    2    0    0 -0.20588537709E+03  0.18748240732E+03 -0.49641178741E+03  0.57483290768E+03  0.80434865073E+02 0.  0.
         25    2    1    2    0    0  0.70465373000E+01 -0.10158987254E+03 -0.32430388903E+03  0.36220256471E+03  0.12509008573E+03 0.  0.
        -24    2    1    2    0    0  0.19883883979E+03 -0.85892534776E+02 -0.18328478853E+03  0.29552385742E+03  0.82623391741E+02 0.  0.
        -11    1    3    3    0    0  0.42087999608E+01  0.21970107840E+02 -0.36832289597E+02  0.43093122335E+02  0.00000000000E+00 0.  1.
         12    1    3    3    0    0 -0.21009417705E+03  0.16551229948E+03 -0.45957949781E+03  0.53173978534E+03  0.00000000000E+00 0. -1.
         11    1    5    5    0    0  0.18680241857E+03 -0.63126294525E+02 -0.18409192766E+03  0.26975898590E+03  0.00000000000E+00 0. -1.
        -12    1    5    5    0    0  0.12036421213E+02 -0.22766240251E+02  0.80713913611E+00  0.25764871518E+02  0.00000000000E+00 0.  1.
          5    1    4    4  501    0 -0.21095867503E+02 -0.12317191248E+03 -0.23915248462E+03  0.26986615006E+03  0.41800000000E+01 0. -1.
         -5    1    4    4    0  501  0.28142404803E+02  0.21582039936E+02 -0.85151404415E+02  0.92336414647E+02  0.41800000000E+01 0. -1.
</event>
<event>
11    1  0.1002087E-008  0.1260856E+03  0.7561462E-02  0.1124174E+00
         22   -1    0    0    0    0  0.00000000000E+00  0.00000000000E+00  0.10103853273E+03  0.10103853273E+03  0.00000000000E+00 0.  1.
         22   -1    0    0    0    0 -0.00000000000E+00 -0.00000000000E+00 -0.69649540184E+03  0.69649540184E+03  0.00000000000E+00 0. -1.
        -24    2    1    2    0    0  0.18953422928E+02 -0.39580532415E+01 -0.47802753909E+03  0.48512544430E+03  0.80383270324E+02 0.  0.
         25    2    1    2    0    0 -0.24621043706E+01  0.97976814239E+01 -0.17206735442E+03  0.21297184059E+03  0.12509106246E+03 0.  0.
         24    2    1    2    0    0 -0.16491318558E+02 -0.58396281824E+01  0.54638024408E+02  0.99436649683E+02  0.81217416506E+02 0.  0.
        -13    1    5    5    0    0 -0.22278586376E+02 -0.23799939447E+02  0.68607372625E+02  0.75958831660E+02  0.00000000000E+00 0.  1.
         14    1    5    5    0    0  0.57872678188E+01  0.17960311265E+02 -0.13969348217E+02  0.23477818023E+02  0.00000000000E+00 0. -1.
         13    1    3    3    0    0  0.38744991856E+02  0.88166798559E+01 -0.42787685326E+03  0.42971794214E+03  0.00000000000E+00 0. -1.
        -14    1    3    3    0    0 -0.19791568928E+02 -0.12774733097E+02 -0.50150685829E+02  0.55407502159E+02  0.00000000000E+00 0.  1.
          5    1    4    4  501    0  0.22982033540E+02  0.48070666202E+02 -0.15468547459E+03  0.16365827588E+03  0.41800000000E+01 0.  1.
         -5    1    4    4    0  501 -0.25444137911E+02 -0.38272984778E+02 -0.17381879830E+02  0.49313564708E+02  0.41800000000E+01 0.  1.
</event>
<event>
11    1  0.1002087E-008  0.1316527E+03  0.7561462E-02  0.1117255E+00
         22   -1    0    0    0    0  0.00000000000E+00  0.00000000000E+00  0.65382410215E+03  0.65382410215E+03  0.00000000000E+00 0.  1.
         22   -1    0    0    0    0 -0.00000000000E+00 -0.00000000000E+00 -0.27955928414E+03  0.27955928414E+03  0.00000000000E+00 0. -1.
         24    2    1    2    0    0  0.56512219636E+00  0.22766288432E+02 -0.15039422914E+03  0.17156034417E+03  0.79346734536E+02 0.  0.
         25    2    1    2    0    0 -0.61367567942E+01 -0.62775939781E+02 -0.72695700803E+02  0.15783610345E+03  0.12509633183E+03 0.  0.
        -24    2    1    2    0    0  0.55716345979E+01  0.40009651349E+02  0.59735474796E+03  0.60398693868E+03  0.79597185068E+02 0.  0.
        -13    1    3    3    0    0 -0.23354315095E+02 -0.14071380522E+02 -0.19576049651E+02  0.33565599999E+02  0.00000000000E+00 0.  1.
         14    1    3    3    0    0  0.23919437292E+02  0.36837668954E+02 -0.13081817949E+03  0.13799474417E+03  0.00000000000E+00 0. -1.
         13    1    5    5    0    0  0.14403640136E+02 -0.21976047780E+02  0.15239166767E+03  0.15464033077E+03  0.00000000000E+00 0. -1.
        -14    1    5    5    0    0 -0.88320055378E+01  0.61985699129E+02  0.44496308029E+03  0.44934660791E+03  0.00000000000E+00 0.  1.
          5    1    4    4  501    0  0.39687124145E+02 -0.21272104158E+02  0.17428250749E+02  0.48464281305E+02  0.41800000000E+01 0.  1.
         -5    1    4    4    0  501 -0.45823880939E+02 -0.41503835623E+02 -0.90123951552E+02  0.10937182214E+03  0.41800000000E+01 0.  1.
</event>
<event>
11    1  0.1002087E-008  0.2900140E+04  0.7561462E-02  0.7773597E-01
         22   -1    0    0    0    0  0.00000000000E+00  0.00000000000E+00  0.64277654490E+03  0.64277654490E+03  0.00000000000E+00 0. -1.
         22   -1    0    0    0    0 -0.00000000000E+00 -0.00000000000E+00 -0.32712807064E+04  0.32712807064E+04  0.00000000000E+00 0. -1.
         24    2    1    2    0    0  0.53318950683E+03  0.56684839020E+03 -0.21611166638E+04  0.22984130760E+04  0.81665695886E+02 0.  0.
         25    2    1    2    0    0 -0.72982602329E+03 -0.84027773522E+03 -0.12235792486E+03  0.11266456214E+04  0.12508476272E+03 0.  0.
        -24    2    1    2    0    0  0.19663651646E+03  0.27342934503E+03 -0.34502957281E+03  0.48899855384E+03  0.81514742317E+02 0.  0.
        -11    1    3    3    0    0  0.50000646752E+02  0.53663260559E+02 -0.28404957548E+03  0.29336661627E+03  0.00000000000E+00 0.  1.
         12    1    3    3    0    0  0.48318886008E+03  0.51318512964E+03 -0.18770670883E+04  0.20050464598E+04  0.00000000000E+00 0. -1.
         11    1    5    5    0    0 -0.39720249973E+01  0.80848600521E+01 -0.28246045122E+02  0.29647613895E+02  0.00000000000E+00 0. -1.
        -12    1    5    5    0    0  0.20060854145E+03  0.26534448497E+03 -0.31678352769E+03  0.45935093994E+03  0.00000000000E+00 0.  1.
          5    1    4    4  501    0 -0.10683492658E+02 -0.32825134131E+02 -0.21013044804E+02  0.40628154007E+02  0.41800000000E+01 0. -1.
         -5    1    4    4    0  501 -0.71914253063E+03 -0.80745260109E+03 -0.10134488005E+03  0.10860174674E+04  0.41800000000E+01 0. -1.
</event>
<event>
11    1  0.1002087E-008  0.2382122E+03  0.7561462E-02  0.1030373E+00
         22   -1    0    0    0    0  0.00000000000E+00  0.00000000000E+00  0.66528357625E+03  0.66528357625E+03  0.00000000000E+00 0.  1.
         22   -1    0    0    0    0 -0.00000000000E+00 -0.00000000000E+00 -0.33655892159E+03  0.33655892159E+03  0.00000000000E+00 0. -1.
        -24    2    1    2    0    0 -0.11537224134E+02 -0.14253081866E+03 -0.92503124893E+02  0.18880282663E+03  0.81495628231E+02 0.  0.
         25    2    1    2    0    0 -0.19139408276E+03  0.10401824909E+03 -0.81391273746E+02  0.26405254354E+03  0.12509082798E+03 0.  0.
         24    2    1    2    0    0  0.20293130690E+03  0.38512569569E+02  0.50261905329E+03  0.54898712767E+03  0.78080857344E+02 0.  0.
        -13    1    5    5    0    0  0.18453901477E+03  0.17938156001E+02  0.47517874892E+03  0.51006986663E+03  0.00000000000E+00 0.  1.
         14    1    5    5    0    0  0.18392292129E+02  0.20574413568E+02  0.27440304369E+02  0.38917261045E+02  0.00000000000E+00 0. -1.
         11    1    3    3    0    0 -0.30103885020E+02 -0.97921441456E+02 -0.24417582201E+02  0.10531415342E+03  0.00000000000E+00 0. -1.
        -12    1    3    3    0    0  0.18566660886E+02 -0.44609377204E+02 -0.68085542692E+02  0.83488673212E+02  0.00000000000E+00 0.  1.
          5    1    4    4  501    0 -0.19095389724E+02  0.35139165933E+02 -0.66681469359E+02  0.77867102470E+02  0.41800000000E+01 0.  1.
         -5    1    4    4    0  501 -0.17229869304E+03  0.68879083158E+02 -0.14709804387E+02  0.18618544107E+03  0.41800000000E+01 0.  1.
</event>
<event>
11    1  0.1002087E-008  0.1393229E+03  0.7561462E-02  0.1108317E+00
         22   -1    0    0    0    0  0.00000000000E+00  0.00000000000E+00  0.13240236487E+04  0.13240236487E+04  0.00000000000E+00 0. -1.
         22   -1    0    0    0    0 -0.00000000000E+00 -0.00000000000E+00 -0.18604763552E+04  0.18604763552E+04  0.00000000000E+00 0. -1.
        -24    2    1    2    0    0  0.73956326311E+01  0.20332397653E+02 -0.18286266542E+04  0.18304948900E+04  0.79799749139E+02 0.  0.
         25    2    1    2    0    0 -0.58982961936E+02 -0.51244311208E+02  0.16061553407E+03  0.21806138712E+03  0.12509376299E+03 0.  0.
         24    2    1    2    0    0  0.51587329305E+02  0.30911913554E+02  0.11315584136E+04  0.11359437268E+04  0.79541863654E+02 0.  0.
        -13    1    5    5    0    0  0.62090557125E+02  0.17672033872E+02  0.49886949558E+03  0.50302913602E+03  0.00000000000E+00 0.  1.
         14    1    5    5    0    0 -0.10503227820E+02  0.13239879682E+02  0.63268891807E+03  0.63291459081E+03  0.00000000000E+00 0. -1.
         11    1    3    3    0    0  0.99747027559E+01  0.32372027062E+02 -0.17803690423E+04  0.17806912617E+04  0.00000000000E+00 0. -1.
        -12    1    3    3    0    0 -0.25790701248E+01 -0.12039629409E+02 -0.48257611956E+02  0.49803628289E+02  0.00000000000E+00 0.  1.
          5    1    4    4  501    0 -0.58793458791E+02  0.27752480786E+02  0.50268046014E+02  0.82287422104E+02  0.41800000000E+01 0.  1.
         -5    1    4    4    0  501 -0.18950314580E+00 -0.78996791994E+02  0.11034748805E+03  0.13577396502E+03  0.41800000000E+01 0.  1.
</event>
<event>
11    1  0.1002087E-008  0.3351605E+03  0.7561462E-02  0.9863189E-01
         22   -1    0    0    0    0  0.00000000000E+00  0.00000000000E+00  0.46985827395E+03  0.46985827395E+03  0.00000000000E+00 0. -1.
         22   -1    0    0    0    0 -0.00000000000E+00 -0.00000000000E+00 -0.10564866996E+04  0.10564866996E+04  0.00000000000E+00 0. -1.
        -24    2    1    2    0    0 -0.26659677615E+03  0.93270186066E+02 -0.62657741949E+03  0.69211827668E+03  0.81579884943E+02 0.  0.
         25    2    1    2    0    0  0.38728294035E+03 -0.25500344247E+03 -0.18901935752E+03  0.51613080345E+03  0.12509139534E+03 0.  0.
         24    2    1    2    0    0 -0.12068616420E+03  0.16173325641E+03  0.22896835139E+03  0.31809589341E+03  0.89642038185E+02 0.  0.
        -11    1    5    5    0    0 -0.43344233311E+02  0.50084619563E+02  0.20591371654E+02  0.69362787319E+02  0.00000000000E+00 0.  1.
         12    1    5    5    0    0 -0.77341930888E+02  0.11164863684E+03  0.20837697973E+03  0.24873310609E+03  0.00000000000E+00 0. -1.
         13    1    3    3    0    0 -0.14718314926E+03  0.93267576054E+02 -0.35561570835E+03  0.39601041930E+03  0.00000000000E+00 0. -1.
        -14    1    3    3    0    0 -0.11941362689E+03  0.26100122669E-02 -0.27096171114E+03  0.29610785737E+03  0.00000000000E+00 0.  1.
          5    1    4    4  501    0  0.12428541797E+03 -0.81596625666E+02 -0.11491018790E-01  0.14873582948E+03  0.41800000000E+01 0. -1.
         -5    1    4    4    0  501  0.26299752239E+03 -0.17340681681E+03 -0.18900786650E+03  0.36739497397E+03  0.41800000000E+01 0. -1.
</event>
<event>
11    1  0.1002087E-008  0.1329076E+03  0.7561462E-02  0.1115747E+00
         22   -1    0    0    0    0  0.00000000000E+00  0.00000000000E+00  0.16228566217E+04  0.16228566217E+04  0.00000000000E+00 0.  1.
         22   -1    0    0    0    0 -0.00000000000E+00 -0.00000000000E+00 -0.85275687479E+03  0.85275687479E+03  0.00000000000E+00 0. -1.
        -24    2    1    2    0    0  0.43966622368E+02  0.97210244340E+01 -0.83930494865E+03  0.84451095620E+03  0.82087734252E+02 0.  0.
         25    2    1    2    0    0 -0.18793169967E+02 -0.27138276415E+02  0.44353947596E+03  0.46202218393E+03  0.12509021715E+03 0.  0.
         24    2    1    2    0    0 -0.25173452401E+02  0.17417251981E+02  0.11658652196E+04  0.11690803563E+04  0.81056190290E+02 0.  0.
        -13    1    5    5    0    0  0.32180353638E+01  0.31792069956E+02  0.97924902440E+03  0.97977025023E+03  0.00000000000E+00 0.  1.
         14    1    5    5    0    0 -0.28391487765E+02 -0.14374817975E+02  0.18661619519E+03  0.18931010612E+03  0.00000000000E+00 0. -1.
         11    1    3    3    0    0  0.29133074809E+02  0.45941873085E+02 -0.50582212872E+03  0.50873904672E+03  0.00000000000E+00 0. -1.
        -12    1    3    3    0    0  0.14833547559E+02 -0.36220848651E+02 -0.33348281992E+03  0.33577190948E+03  0.00000000000E+00 0.  1.
          5    1    4    4  501    0 -0.55369611280E+02 -0.16791732764E+02  0.94435558826E+02  0.11083006502E+03  0.41800000000E+01 0. -1.
         -5    1    4    4    0  501  0.36576441314E+02 -0.10346543651E+02  0.34910391713E+03  0.35119211891E+03  0.41800000000E+01 0. -1.
</event>
<event>
11    1  0.1002087E-008  0.1462120E+03  0.7561462E-02  0.1100813E+00
         22   -1    0    0    0    0  0.00000000000E+00  0.00000000000E+00  0.14319902932E+04  0.14319902932E+04  0.00000000000E+00 0. -1.
         22   -1    0    0    0    0 -0.00000000000E+00 -0.00000000000E+00 -0.57962076519E+03  0.57962076519E+03  0.00000000000E+00 0.  1.
         24    2    1    2    0    0 -0.14015641356E+02 -0.75571595663E+02 -0.53302959429E+03  0.54451206100E+03  0.80407287715E+02 0.  0.
         25    2    1    2    0    0  0.33910479729E+02  0.45924546553E+02  0.80680350333E+02  0.15942132748E+03  0.12508739391E+03 0.  0.
        -24    2    1    2    0    0 -0.19894838373E+02  0.29647049110E+02  0.13047187719E+04  0.13076776699E+04  0.80343402766E+02 0.  0.
        -11    1    3    3    0    0  0.11013180680E+02 -0.82056863489E+02 -0.44989740115E+03  0.45745195437E+03  0.00000000000E+00 0.  1.
         12    1    3    3    0    0 -0.25028822036E+02  0.64852678264E+01 -0.83132193139E+02  0.87060106635E+02  0.00000000000E+00 0. -1.
         13    1    5    5    0    0 -0.24276719233E+02 -0.16575188481E+02  0.86803268160E+03  0.86853027137E+03  0.00000000000E+00 0. -1.
        -14    1    5    5    0    0  0.43818808596E+01  0.46222237592E+02  0.43668609035E+03  0.43914739853E+03  0.00000000000E+00 0.  1.
          5    1    4    4  501    0  0.20540857375E+02  0.32605434640E+02  0.11427097396E+03  0.12066635438E+03  0.41800000000E+01 0. -1.
         -5    1    4    4    0  501  0.13369622354E+02  0.13319111913E+02 -0.33590623630E+02  0.38754973099E+02  0.41800000000E+01 0. -1.
</event>
<event>
11    1  0.1002087E-008  0.1723617E+03  0.7561462E-02  0.1075994E+00
         22   -1    0    0    0    0  0.00000000000E+00  0.00000000000E+00  0.30146109211E+03  0.30146109211E+03  0.00000000000E+00 0.  1.
         22   -1    0    0    0    0 -0.00000000000E+00 -0.00000000000E+00 -0.14925414966E+04  0.14925414966E+04  0.00000000000E+00 0.  1.
         24    2    1    2    0    0  0.41901001857E+02 -0.24234325054E+02 -0.13222423576E+04  0.13255645188E+04  0.80333336842E+02 0.  0.
         25    2    1    2    0    0 -0.10116974489E+03  0.12065204077E+03 -0.78797466085E+02  0.21598353580E+03  0.12509042669E+03 0.  0.
        -24    2    1    2    0    0  0.59268743037E+02 -0.96417715715E+02  0.20995941915E+03  0.25245453407E+03  0.82711391467E+02 0.  0.
        -13    1    3    3    0    0  0.26432967173E+02 -0.51588930081E+02 -0.10318136452E+04  0.10334406214E+04  0.00000000000E+00 0.  1.
         14    1    3    3    0    0  0.15468034684E+02  0.27354605027E+02 -0.29042871233E+03  0.29212389745E+03  0.00000000000E+00 0. -1.
         11    1    5    5    0    0 -0.14148283951E+02 -0.47510754370E+02  0.98851988734E+02  0.11058553882E+03  0.00000000000E+00 0. -1.
        -12    1    5    5    0    0  0.73417026988E+02 -0.48906961346E+02  0.11110743042E+03  0.14186899525E+03  0.00000000000E+00 0.  1.
          5    1    4    4  501    0 -0.91621291043E+02  0.13669635186E+03 -0.35147665728E+02  0.16832463988E+03  0.41800000000E+01 0. -1.
         -5    1    4    4    0  501 -0.95484538507E+01 -0.16044311086E+02 -0.43649800358E+02  0.47658895921E+02  0.41800000000E+01 0. -1.
</event>
<event>
11    1  0.1002087E-008  0.1376946E+03  0.7561462E-02  0.1110160E+00
         22   -1    0    0    0    0  0.00000000000E+00  0.00000000000E+00  0.39474727135E+03  0.39474727135E+03  0.00000000000E+00 0.  1.
         22   -1    0    0    0    0 -0.00000000000E+00 -0.00000000000E+00 -0.42228771786E+03  0.42228771786E+03  0.00000000000E+00 0.  1.
         24    2    1    2    0    0 -0.29308441031E+02 -0.34489573518E+02 -0.26023462625E+03  0.27513710462E+03  0.77005520829E+02 0.  0.
         25    2    1    2    0    0  0.63762833004E+02 -0.12146350588E+02 -0.11397811985E+03  0.18125111857E+03  0.12509086087E+03 0.  0.
        -24    2    1    2    0    0 -0.34454391973E+02  0.46635924106E+02  0.34667229959E+03  0.36064676602E+03  0.80761327364E+02 0.  0.
        -13    1    3    3    0    0 -0.26871967103E+02 -0.20280652236E+02 -0.25842382124E+03  0.26060751880E+03  0.00000000000E+00 0.  1.
         14    1    3    3    0    0 -0.24364739278E+01 -0.14208921282E+02 -0.18108050145E+01  0.14529585816E+02  0.00000000000E+00 0. -1.
         13    1    5    5    0    0  0.12937917154E+02 -0.95359257451E+01  0.19250039688E+02  0.25077631629E+02  0.00000000000E+00 0. -1.
        -14    1    5    5    0    0 -0.47392309127E+02  0.56171849851E+02  0.32742225990E+03  0.33556913440E+03  0.00000000000E+00 0.  1.
          5    1    4    4  501    0  0.33200725017E+02  0.33952687926E+02 -0.11634555536E+03  0.12573318500E+03  0.41800000000E+01 0.  1.
         -5    1    4    4    0  501  0.30562107986E+02 -0.46099038514E+02  0.23674355085E+01  0.55517933566E+02  0.41800000000E+01 0.  1.
</event>
<event>
11    1  0.1002087E-008  0.1576615E+03  0.7561462E-02  0.1089298E+00
         22   -1    0    0    0    0  0.00000000000E+00  0.00000000000E+00  0.79948581071E+03  0.79948581071E+03  0.00000000000E+00 0.  1.
         22   -1    0    0    0    0 -0.00000000000E+00 -0.00000000000E+00 -0.70639121945E+02  0.70639121945E+02  0.00000000000E+00 0. -1.
        -24    2    1    2    0    0  0.90474778210E+00 -0.22954739107E+02  0.33822590144E+02  0.90644142942E+02  0.80899038496E+02 0.  0.
         25    2    1    2    0    0 -0.20096735048E+02  0.11303974485E+03  0.17075855259E+03  0.24080469260E+03  0.12508618637E+03 0.  0.
         24    2    1    2    0    0  0.19191987266E+02 -0.90085005748E+02  0.52426554603E+03  0.53867609711E+03  0.82667612792E+02 0.  0.
        -11    1    5    5    0    0  0.45378068727E+01 -0.38300012723E+02  0.41587764720E+03  0.41766218420E+03  0.00000000000E+00 0.  1.
         12    1    5    5    0    0  0.14654180394E+02 -0.51784993025E+02  0.10838789883E+03  0.12101391291E+03  0.00000000000E+00 0. -1.
         11    1    3    3    0    0  0.22738671906E+02 -0.44807128362E+02  0.32265112407E+02  0.59714013688E+02  0.00000000000E+00 0. -1.
        -12    1    3    3    0    0 -0.21833924123E+02  0.21852389255E+02  0.15574777370E+01  0.30930129254E+02  0.00000000000E+00 0.  1.
          5    1    4    4  501    0 -0.70132829643E+01  0.13958014607E+03  0.13769868869E+03  0.19624017066E+03  0.41800000000E+01 0.  1.
         -5    1    4    4    0  501 -0.13083452084E+02 -0.26540401212E+02  0.33059863895E+02  0.44564521939E+02  0.41800000000E+01 0.  1.
</event>
<event>
11    1  0.1002087E-008  0.1317072E+03  0.7561462E-02  0.1117189E+00
         22   -1    0    0    0    0  0.00000000000E+00  0.00000000000E+00  0.95762145504E+03  0.95762145504E+03  0.00000000000E+00 0. -1.
         22   -1    0    0    0    0 -0.00000000000E+00 -0.00000000000E+00 -0.22418693500E+03  0.22418693500E+03  0.00000000000E+00 0.  1.
        -24    2    1    2    0    0 -0.33749796743E+02  0.78738478287E+01 -0.10341342445E+03  0.13564810780E+03  0.80653744697E+02 0.  0.
         25    2    1    2    0    0  0.64178242669E+02  0.19328613498E+02 -0.53310315387E+02  0.15159352304E+03  0.12508462883E+03 0.  0.
         24    2    1    2    0    0 -0.30428445927E+02 -0.27202461327E+02  0.89015825988E+03  0.89456675919E+03  0.78753379571E+02 0.  0.
        -11    1    5    5    0    0  0.15760570901E+02  0.16557121801E+02  0.33387041334E+03  0.33465203837E+03  0.00000000000E+00 0.  1.
         12    1    5    5    0    0 -0.46189016827E+02 -0.43759583128E+02  0.55628784654E+03  0.55991472083E+03  0.00000000000E+00 0. -1.
         11    1    3    3    0    0  0.23589430436E+02  0.58758473345E+01 -0.10572760655E+02  0.26509810978E+02  0.00000000000E+00 0. -1.
        -12    1    3    3    0    0 -0.57339227179E+02  0.19980004942E+01 -0.92840663797E+02  0.10913829682E+03  0.00000000000E+00 0.  1.
          5    1    4    4  501    0 -0.11946608196E+02  0.28572052655E+02  0.26398361086E+02  0.40907572751E+02  0.41800000000E+01 0. -1.
         -5    1    4    4    0  501  0.76124850866E+02 -0.92434391566E+01 -0.79708676474E+02  0.11068595029E+03  0.41800000000E+01 0. -1.
</event>
<event>
11    1  0.1002087E-008  0.1327854E+03  0.7561462E-02  0.1115893E+00
         22   -1    0    0    0    0  0.00000000000E+00  0.00000000000E+00  0.17914323300E+03  0.17914323300E+03  0.00000000000E+00 0. -1.
         22   -1    0    0    0    0 -0.00000000000E+00 -0.00000000000E+00 -0.55223558665E+03  0.55223558665E+03  0.00000000000E+00 0. -1.
         24    2    1    2    0    0 -0.21304693908E+02  0.33430164082E+02 -0.42381463886E+03  0.44003107375E+03  0.11152144146E+03 0.  0.
         25    2    1    2    0    0  0.53342484442E+02 -0.55326622416E+02 -0.53113208550E+02  0.15612600789E+03  0.12509141306E+03 0.  0.
        -24    2    1    2    0    0 -0.32037790533E+02  0.21896458334E+02  0.10383549376E+03  0.13522173800E+03  0.77441808824E+02 0.  0.
        -13    1    3    3    0    0  0.14704841699E+02  0.41464447532E+01 -0.17001754275E+01  0.15372572003E+02  0.00000000000E+00 0.  1.
         14    1    3    3    0    0 -0.36009535608E+02  0.29283719329E+02 -0.42211446343E+03  0.42465850175E+03  0.00000000000E+00 0. -1.
         11    1    5    5    0    0 -0.17172757497E+02 -0.28824663010E+02  0.35751949036E+02  0.49030262671E+02  0.00000000000E+00 0. -1.
        -12    1    5    5    0    0 -0.14865033036E+02  0.50721121343E+02  0.68083544728E+02  0.86191475334E+02  0.00000000000E+00 0.  1.
          5    1    4    4  501    0  0.57406712577E+02  0.13734182921E+02  0.12731133387E+02  0.60528609655E+02  0.41800000000E+01 0. -1.
         -5    1    4    4    0  501 -0.40642281352E+01 -0.69060805337E+02 -0.65844341937E+02  0.95597398234E+02  0.41800000000E+01 0. -1.
</event>
<event>
11    1  0.1002087E-008  0.1527024E+03  0.7561462E-02  0.1094149E+00
         22   -1    0    0    0    0  0.00000000000E+00  0.00000000000E+00  0.23083311502E+04  0.23083311502E+04  0.00000000000E+00 0. -1.
         22   -1    0    0    0    0 -0.00000000000E+00 -0.00000000000E+00 -0.10530598512E+03  0.10530598512E+03  0.00000000000E+00 0. -1.
        -24    2    1    2    0    0 -0.76579378122E+02 -0.23258199310E+02 -0.20910036042E+02  0.11441486446E+03  0.79045471805E+02 0.  0.
         25    2    1    2    0    0  0.11390503535E+03  0.40966149331E+02  0.16988677270E+03  0.24323137293E+03  0.12508957897E+03 0.  0.
         24    2    1    2    0    0 -0.37325657227E+02 -0.17707950021E+02  0.20540484284E+04  0.20559908979E+04  0.79226573109E+02 0.  0.
        -13    1    5    5    0    0  0.17304040053E+02 -0.27256617274E+02  0.57797596684E+03  0.57887699145E+03  0.00000000000E+00 0.  1.
         14    1    5    5    0    0 -0.54629697280E+02  0.95486672531E+01  0.14760724616E+04  0.14771139065E+04  0.00000000000E+00 0. -1.
         13    1    3    3    0    0 -0.46409977755E+02 -0.27156305309E+02 -0.49192471801E+02  0.72878324865E+02  0.00000000000E+00 0. -1.
        -14    1    3    3    0    0 -0.30169400367E+02  0.38981059992E+01  0.28282435758E+02  0.41536539592E+02  0.00000000000E+00 0.  1.
          5    1    4    4  501    0  0.14140192031E+02  0.22739587779E+02  0.13221450750E+03  0.13496363316E+03  0.41800000000E+01 0.  1.
         -5    1    4    4    0  501  0.99764843317E+02  0.18226561552E+02  0.37672265203E+02  0.10826773976E+03  0.41800000000E+01 0.  1.
</event>
<event>
11    1  0.1002087E-008  0.2166657E+03  0.7561462E-02  0.1043326E+00
         22   -1    0    0    0    0  0.00000000000E+00  0.00000000000E+00  0.13107167321E+04  0.13107167321E+04  0.00000000000E+00 0. -1.
         22   -1    0    0    0    0 -0.00000000000E+00 -0.00000000000E+00 -0.15370981977E+03  0.15370981977E+03  0.00000000000E+00 0.  1.
         24    2    1    2    0    0  0.82736540615E+01  0.59056358697E+02 -0.97948193922E+02  0.14055944036E+03  0.81283459136E+02 0.  0.
         25    2    1    2    0    0 -0.13430462404E+03 -0.15698436161E+03  0.66976368686E+03  0.71197807447E+03  0.12509020931E+03 0.  0.
        -24    2    1    2    0    0  0.12603096998E+03  0.97928002913E+02  0.58519141940E+03  0.61188903703E+03  0.80532584434E+02 0.  0.
        -13    1    3    3    0    0  0.33330232108E+01  0.78654019258E+02 -0.87862131819E+02  0.11797168303E+03  0.00000000000E+00 0.  1.
         14    1    3    3    0    0  0.49406308507E+01 -0.19597660561E+02 -0.10086062103E+02  0.22587757335E+02  0.00000000000E+00 0. -1.
         11    1    5    5    0    0  0.11125466843E+03  0.89871389165E+02  0.38023347136E+03  0.40624125908E+03  0.00000000000E+00 0. -1.
        -12    1    5    5    0    0  0.14776301554E+02  0.80566137488E+01  0.20495794804E+03  0.20564777795E+03  0.00000000000E+00 0.  1.
          5    1    4    4  501    0 -0.47975439282E+02 -0.72942232703E+02  0.11599734389E+03  0.14524141378E+03  0.41800000000E+01 0. -1.
         -5    1    4    4    0  501 -0.86329184763E+02 -0.84042128907E+02  0.55376634297E+03  0.56673666070E+03  0.41800000000E+01 0. -1.
</event>
<event>
11    1  0.1002087E-008  0.1359033E+03  0.7561462E-02  0.1112221E+00
         22   -1    0    0    0    0  0.00000000000E+00  0.00000000000E+00  0.29547023629E+03  0.29547023629E+03  0.00000000000E+00 0.  1.
         22   -1    0    0    0    0 -0.00000000000E+00 -0.00000000000E+00 -0.37483635765E+03  0.37483635765E+03  0.00000000000E+00 0.  1.
        -24    2    1    2    0    0  0.11932958646E+02  0.21692767070E+02 -0.24419656909E+03  0.25740349703E+03  0.77534665043E+02 0.  0.
         25    2    1    2    0    0 -0.46636844312E+02 -0.59483389364E+02 -0.68095075899E+02  0.16123741085E+03  0.12508914596E+03 0.  0.
         24    2    1    2    0    0  0.34703885666E+02  0.37790622294E+02  0.23292552363E+03  0.25166568607E+03  0.80304589983E+02 0.  0.
        -11    1    5    5    0    0  0.51036509568E+02  0.52522659458E+02  0.17509705944E+03  0.18979550914E+03  0.00000000000E+00 0.  1.
         12    1    5    5    0    0 -0.16332623902E+02 -0.14732037164E+02  0.57828464193E+02  0.61870176931E+02  0.00000000000E+00 0. -1.
         11    1    3    3    0    0  0.32593840901E+02  0.33035364212E+02 -0.88467665430E+02  0.99901058953E+02  0.00000000000E+00 0. -1.
        -12    1    3    3    0    0 -0.20660882255E+02 -0.11342597141E+02 -0.15572890366E+03  0.15750243807E+03  0.00000000000E+00 0.  1.
          5    1    4    4  501    0 -0.86696687975E+02 -0.22165832372E+02 -0.53810048746E+02  0.10450183528E+03  0.41800000000E+01 0. -1.
         -5    1    4    4    0  501  0.40059843664E+02 -0.37317556992E+02 -0.14285027153E+02  0.56735575568E+02  0.41800000000E+01 0. -1.
</event>
<event>
11    1  0.1002087E-008  0.1989912E+03  0.7561462E-02  0.1055239E+00
         22   -1    0    0    0    0  0.00000000000E+00  0.00000000000E+00  0.11987421931E+04  0.11987421931E+04  0.00000000000E+00 0.  1.
         22   -1    0    0    0    0 -0.00000000000E+00 -0.00000000000E+00 -0.88410865270E+03  0.88410865270E+03  0.00000000000E+00 0. -1.
         24    2    1    2    0    0 -0.13778996078E+03 -0.69016271739E+02 -0.83815140012E+03  0.85679564311E+03  0.88609736904E+02 0.  0.
         25    2    1    2    0    0  0.15661434972E+03  0.85843553219E+02  0.30611591788E+03  0.37583507081E+03  0.12509146694E+03 0.  0.
        -24    2    1    2    0    0 -0.18824388944E+02 -0.16827281481E+02  0.84666902260E+03  0.85022013185E+03  0.73405202485E+02 0.  0.
        -11    1    3    3    0    0  0.12430295561E+02 -0.10953804897E+02 -0.68570162325E+02  0.70543357240E+02  0.00000000000E+00 0.  1.
         12    1    3    3    0    0 -0.15022025634E+03 -0.58062466841E+02 -0.76958123780E+03  0.78625228587E+03  0.00000000000E+00 0. -1.
         11    1    5    5    0    0 -0.83033906942E+01 -0.14208678481E+02  0.37190236156E+02  0.40668741148E+02  0.00000000000E+00 0. -1.
        -12    1    5    5    0    0 -0.10520998250E+02 -0.26186029999E+01  0.80947878644E+03  0.80955139070E+03  0.00000000000E+00 0.  1.
          5    1    4    4  501    0  0.46923330155E+02  0.74498682354E+02  0.21622975402E+03  0.23350509954E+03  0.41800000000E+01 0. -1.
         -5    1    4    4    0  501  0.10969101957E+03  0.11344870866E+02  0.89886163860E+02  0.14232997127E+03  0.41800000000E+01 0. -1.
</event>
<event>
11    1  0.1002087E-008  0.1664016E+03  0.7561462E-02  0.1081206E+00
         22   -1    0    0    0    0  0.00000000000E+00  0.00000000000E+00  0.30720907106E+03  0.30720907106E+03  0.00000000000E+00 0. -1.
         22   -1    0    0    0    0 -0.00000000000E+00 -0.00000000000E+00 -0.16566455087E+03  0.16566455087E+03  0.00000000000E+00 0.  1.
        -24    2    1    2    0    0 -0.39478591863E+01 -0.19948154990E+01 -0.65138229888E+02  0.10423933673E+03  0.81260602064E+02 0.  0.
         25    2    1    2    0    0  0.10634451741E+03 -0.33078908666E+02  0.12536168809E+03  0.20920367583E+03  0.12508898656E+03 0.  0.
         24    2    1    2    0    0 -0.10239665822E+03  0.35073724165E+02  0.81321061979E+02  0.15943060937E+03  0.84200726477E+02 0.  0.
        -11    1    5    5    0    0 -0.76199133133E+02  0.61258218438E+02  0.71459768013E+02  0.12110068398E+03  0.00000000000E+00 0.  1.
         12    1    5    5    0    0 -0.26197525090E+02 -0.26184494274E+02  0.98612939662E+01  0.38329925383E+02  0.00000000000E+00 0. -1.
         11    1    3    3    0    0 -0.16683911689E+02 -0.32172876036E+02 -0.61397397991E+01  0.36757900735E+02  0.00000000000E+00 0. -1.
        -12    1    3    3    0    0  0.12736052503E+02  0.30178060537E+02 -0.58998490089E+02  0.67481435994E+02  0.00000000000E+00 0.  1.
          5    1    4    4  501    0  0.12398041955E+03 -0.22380322469E+02  0.58235848554E+02  0.13885571549E+03  0.41800000000E+01 0. -1.
         -5    1    4    4    0  501 -0.17635902145E+02 -0.10698586197E+02  0.67125839539E+02  0.70347960347E+02  0.41800000000E+01 0. -1.
</event>
<event>
11    1  0.1002087E-008  0.1741842E+03  0.7561462E-02  0.1074447E+00
         22   -1    0    0    0    0  0.00000000000E+00  0.00000000000E+00  0.47036453576E+03  0.47036453576E+03  0.00000000000E+00 0. -1.
         22   -1    0    0    0    0 -0.00000000000E+00 -0.00000000000E+00 -0.18544408435E+03  0.18544408435E+03  0.00000000000E+00 0.  1.
        -24    2    1    2    0    0 -0.21244393421E+02 -0.11429193569E+03 -0.59648500592E+02  0.15295459437E+03  0.79518510428E+02 0.  0.
         25    2    1    2    0    0  0.20758720348E+02  0.13164069136E+03  0.39317967819E+02  0.18696207865E+03  0.12509484468E+03 0.  0.
         24    2    1    2    0    0  0.48567307288E+00 -0.17348755672E+02  0.30525098418E+03  0.31589194709E+03  0.79425082234E+02 0.  0.
        -13    1    5    5    0    0 -0.16837177352E+01  0.14620031380E+01 -0.47845747066E+01  0.52786848466E+01  0.00000000000E+00 0.  1.
         14    1    5    5    0    0  0.21693908081E+01 -0.18810758810E+02  0.31003555889E+03  0.31061326224E+03  0.00000000000E+00 0. -1.
         11    1    3    3    0    0  0.15290852867E+02 -0.22423547218E+02  0.13168124333E+02  0.30166623107E+02  0.00000000000E+00 0. -1.
        -12    1    3    3    0    0 -0.36535246287E+02 -0.91868388468E+02 -0.72816624925E+02  0.12278797126E+03  0.00000000000E+00 0.  1.
          5    1    4    4  501    0  0.38736420053E+02  0.37614916516E+02  0.68010266542E+02  0.86938259347E+02  0.41800000000E+01 0.  1.
         -5    1    4    4    0  501 -0.17977699705E+02  0.94025774842E+02 -0.28692298723E+02  0.10002381930E+03  0.41800000000E+01 0.  1.
</event>
<event>
11    1  0.1002087E-008  0.1439340E+03  0.7561462E-02  0.1103243E+00
         22   -1    0    0    0    0  0.00000000000E+00  0.00000000000E+00  0.54436473748E+03  0.54436473748E+03  0.00000000000E+00 0. -1.
         22   -1    0    0    0    0 -0.00000000000E+00 -0.00000000000E+00 -0.62387496089E+03  0.62387496089E+03  0.00000000000E+00 0. -1.
         24    2    1    2    0    0  0.75306595948E+02 -0.26340370345E+01 -0.44319210089E+03  0.45710581914E+03  0.82755483586E+02 0.  0.
         25    2    1    2    0    0 -0.54950855751E+02 -0.11260703699E+02 -0.14328098841E+03  0.19830190009E+03  0.12509117453E+03 0.  0.
        -24    2    1    2    0    0 -0.20355740197E+02  0.13894740733E+02  0.50696286589E+03  0.51283197913E+03  0.73333971994E+02 0.  0.
        -13    1    3    3    0    0 -0.70564961979E+01 -0.24848169938E+02 -0.12755469947E+03  0.13014387056E+03  0.00000000000E+00 0.  1.
         14    1    3    3    0    0  0.82363092146E+02  0.22214132903E+02 -0.31563740141E+03  0.32696194858E+03  0.00000000000E+00 0. -1.
         11    1    5    5    0    0 -0.99946343437E+01  0.42972866106E+02  0.35769078625E+03  0.36040152401E+03  0.00000000000E+00 0. -1.
        -12    1    5    5    0    0 -0.10361105854E+02 -0.29078125372E+02  0.14927207964E+03  0.15243045512E+03  0.00000000000E+00 0.  1.
          5    1    4    4  501    0 -0.59170269916E+02  0.44869987887E+02 -0.51192578301E+02  0.90291689141E+02  0.41800000000E+01 0. -1.
         -5    1    4    4    0  501  0.42194141649E+01 -0.56130691585E+02 -0.92088410109E+02  0.10801021095E+03  0.41800000000E+01 0. -1.
</event>
<event>
11    1  0.1002087E-008  0.1925731E+03  0.7561462E-02  0.1059903E+00
         22   -1    0    0    0    0  0.00000000000E+00  0.00000000000E+00  0.12011801554E+03  0.12011801554E+03  0.00000000000E+00 0. -1.
         22   -1    0    0    0    0 -0.00000000000E+00 -0.00000000000E+00 -0.12653407009E+04  0.12653407009E+04  0.00000000000E+00 0. -1.
         24    2    1    2    0    0  0.11098676247E+01  0.21478308629E+02 -0.98416251185E+03  0.98765521552E+03  0.80152513849E+02 0.  0.
         25    2    1    2    0    0  0.13105176952E+03  0.51143079938E+02 -0.11334196528E+03  0.21973570756E+03  0.12508876513E+03 0.  0.
        -24    2    1    2    0    0 -0.13216163715E+03 -0.72621388567E+02 -0.47718208225E+02  0.17806779334E+03  0.81795765290E+02 0.  0.
        -11    1    3    3    0    0 -0.65996185813E+00 -0.13539297822E+02 -0.30833416577E+02  0.33681563399E+02  0.00000000000E+00 0.  1.
         12    1    3    3    0    0  0.17698294829E+01  0.35017606451E+02 -0.95332909527E+03  0.95397365212E+03  0.00000000000E+00 0. -1.
         11    1    5    5    0    0 -0.11789448145E+03 -0.26112671413E+02 -0.20994917220E+02  0.12256331798E+03  0.00000000000E+00 0. -1.
        -12    1    5    5    0    0 -0.14267155690E+02 -0.46508717154E+02 -0.26723291006E+02  0.55504475360E+02  0.00000000000E+00 0.  1.
          5    1    4    4  501    0  0.87058578994E+02  0.89553430831E+02 -0.99065363961E+02  0.15946921925E+03  0.41800000000E+01 0. -1.
         -5    1    4    4    0  501  0.43993190526E+02 -0.38410350893E+02 -0.14276601319E+02  0.60266488313E+02  0.41800000000E+01 0. -1.
</event>
<event>
11    1  0.1002087E-008  0.3468066E+03  0.7561462E-02  0.9821221E-01
         22   -1    0    0    0    0  0.00000000000E+00  0.00000000000E+00  0.81069390211E+03  0.81069390211E+03  0.00000000000E+00 0.  1.
         22   -1    0    0    0    0 -0.00000000000E+00 -0.00000000000E+00 -0.34789523816E+03  0.34789523816E+03  0.00000000000E+00 0.  1.
         24    2    1    2    0    0 -0.43399296480E+02  0.31473861713E+03 -0.12145759116E+03  0.34971729210E+03  0.81279406330E+02 0.  0.
         25    2    1    2    0    0 -0.67268688915E+02 -0.34944158894E+03  0.26687007601E+03  0.46206223201E+03  0.12508944078E+03 0.  0.
        -24    2    1    2    0    0  0.11066798540E+03  0.34702971807E+02  0.31738617910E+03  0.34680961616E+03  0.78046293541E+02 0.  0.
        -11    1    3    3    0    0 -0.45907635217E+02  0.27344622013E+03 -0.74440752516E+02  0.28709192240E+03  0.00000000000E+00 0.  1.
         12    1    3    3    0    0  0.25083387367E+01  0.41292397004E+02 -0.47016838644E+02  0.62625369697E+02  0.00000000000E+00 0. -1.
         13    1    5    5    0    0  0.42662496374E+02  0.91825644699E+01  0.22548580485E+03  0.22966988543E+03  0.00000000000E+00 0. -1.
        -14    1    5    5    0    0  0.68005489021E+02  0.25520407338E+02  0.91900374251E+02  0.11713973073E+03  0.00000000000E+00 0.  1.
          5    1    4    4  501    0 -0.84104034618E+02 -0.33446958921E+03  0.21783518705E+03  0.40793753917E+03  0.41800000000E+01 0. -1.
         -5    1    4    4    0  501  0.16835345703E+02 -0.14971999735E+02  0.49034888955E+02  0.54124692848E+02  0.41800000000E+01 0. -1.
</event>
<event>
11    1  0.1002087E-008  0.1477282E+03  0.7561462E-02  0.1099223E+00
         22   -1    0    0    0    0  0.00000000000E+00  0.00000000000E+00  0.71159701057E+03  0.71159701057E+03  0.00000000000E+00 0. -1.
         22   -1    0    0    0    0 -0.00000000000E+00 -0.00000000000E+00 -0.16909143006E+03  0.16909143006E+03  0.00000000000E+00 0. -1.
         24    2    1    2    0    0  0.24854735716E+01  0.29453309379E+01 -0.13383982913E+03  0.15491570589E+03  0.77916131291E+02 0.  0.
         25    2    1    2    0    0 -0.69087545737E+02  0.38382219838E+02  0.32695231750E+03  0.35887466215E+03  0.12508765501E+03 0.  0.
        -24    2    1    2    0    0  0.66602072165E+02 -0.41327550776E+02  0.34939309214E+03  0.36689807260E+03  0.79967870874E+02 0.  0.
        -11    1    3    3    0    0  0.48739917841E+01 -0.71902767652E+01  0.85247758003E+01  0.12170771476E+02  0.00000000000E+00 0.  1.
         12    1    3    3    0    0 -0.23885182124E+01  0.10135607703E+02 -0.14236460493E+03  0.14274493441E+03  0.00000000000E+00 0. -1.
         11    1    5    5    0    0  0.30166042747E+02 -0.37312179134E+02  0.30754614176E+03  0.31126647451E+03  0.00000000000E+00 0. -1.
        -12    1    5    5    0    0  0.36436029418E+02 -0.40153716422E+01  0.41846950382E+02  0.55631598085E+02  0.00000000000E+00 0.  1.
          5    1    4    4  501    0 -0.51937093230E+02  0.70298358428E+02  0.11877925454E+03  0.14753069023E+03  0.41800000000E+01 0. -1.
         -5    1    4    4    0  501 -0.17150452507E+02 -0.31916138589E+02  0.20817306296E+03  0.21134397192E+03  0.41800000000E+01 0. -1.
</event>
<event>
11    1  0.1002087E-008  0.1476800E+03  0.7561462E-02  0.1099273E+00
         22   -1    0    0    0    0  0.00000000000E+00  0.00000000000E+00  0.77509474862E+02  0.77509474862E+02  0.00000000000E+00 0. -1.
         22   -1    0    0    0    0 -0.00000000000E+00 -0.00000000000E+00 -0.50554978406E+03  0.50554978406E+03  0.00000000000E+00 0. -1.
         24    2    1    2    0    0  0.12019217572E+01 -0.26050522817E+02 -0.24470161552E+03  0.25924224047E+03  0.81532718898E+02 0.  0.
         25    2    1    2    0    0 -0.27065565429E+02  0.86009784513E+02 -0.67616970049E+02  0.16837352345E+03  0.12508941160E+03 0.  0.
        -24    2    1    2    0    0  0.25863643672E+02 -0.59959261696E+02 -0.11572172363E+03  0.15544349501E+03  0.80666732257E+02 0.  0.
        -13    1    3    3    0    0  0.17627269742E+02 -0.12424893728E+02 -0.10350418775E+02  0.23921325037E+02  0.00000000000E+00 0.  1.
         14    1    3    3    0    0 -0.16425347985E+02 -0.13625629089E+02 -0.23435119675E+03  0.23532091543E+03  0.00000000000E+00 0. -1.
         11    1    5    5    0    0 -0.53406779082E+01 -0.66641172273E+02 -0.98880508292E+02  0.11936047756E+03  0.00000000000E+00 0. -1.
        -12    1    5    5    0    0  0.31204321580E+02  0.66819105775E+01 -0.16841215336E+02  0.36083017449E+02  0.00000000000E+00 0.  1.
          5    1    4    4  501    0  0.40488533407E+02  0.88971084751E+01  0.59974018967E+01  0.42094193260E+02  0.41800000000E+01 0.  1.
         -5    1    4    4    0  501 -0.67554098836E+02  0.77112676038E+02 -0.73614371945E+02  0.12627933019E+03  0.41800000000E+01 0.  1.
</event>
<event>
11    1  0.1002087E-008  0.1471136E+03  0.7561462E-02  0.1099865E+00
         22   -1    0    0    0    0  0.00000000000E+00  0.00000000000E+00  0.75075276713E+03  0.75075276713E+03  0.00000000000E+00 0.  1.
         22   -1    0    0    0    0 -0.00000000000E+00 -0.00000000000E+00 -0.25916273708E+03  0.25916273708E+03  0.00000000000E+00 0. -1.
        -24    2    1    2    0    0  0.56923708442E+02  0.53009855438E+02 -0.22229397485E+03  0.24961246878E+03  0.82712876620E+02 0.  0.
         25    2    1    2    0    0 -0.75499761080E+02 -0.20974412577E+02  0.27048190140E+03  0.30813578207E+03  0.12508821407E+03 0.  0.
         24    2    1    2    0    0  0.18576052638E+02 -0.32035442861E+02  0.44340210349E+03  0.45216725337E+03  0.80488883113E+02 0.  0.
        -13    1    5    5    0    0  0.46197085230E+02 -0.80027155501E+01  0.32102298788E+03  0.32442868691E+03  0.00000000000E+00 0.  1.
         14    1    5    5    0    0 -0.27621032592E+02 -0.24032727311E+02  0.12237911561E+03  0.12773856646E+03  0.00000000000E+00 0. -1.
         13    1    3    3    0    0  0.76776047100E+02  0.49217512181E+02 -0.19812389897E+03  0.21810548883E+03  0.00000000000E+00 0. -1.
        -14    1    3    3    0    0 -0.19852338658E+02  0.37923432569E+01 -0.24170075880E+02  0.31506979951E+02  0.00000000000E+00 0.  1.
          5    1    4    4  501    0 -0.66412994352E+02 -0.69099210124E+02  0.15048210009E+03  0.17845929930E+03  0.41800000000E+01 0.  1.
         -5    1    4    4    0  501 -0.90867667273E+01  0.48124797547E+02  0.11999980131E+03  0.12967648277E+03  0.41800000000E+01 0.  1.
</event>
<event>
11    1  0.1002087E-008  0.1367323E+03  0.7561462E-02  0.1111263E+00
         22   -1    0    0    0    0  0.00000000000E+00  0.00000000000E+00  0.86054162071E+02  0.86054162071E+02  0.00000000000E+00 0. -1.
         22   -1    0    0    0    0 -0.00000000000E+00 -0.00000000000E+00 -0.92288269529E+03  0.92288269529E+03  0.00000000000E+00 0. -1.
        -24    2    1    2    0    0  0.35471607985E+02 -0.44604768291E+02 -0.74844492407E+03  0.75462136194E+03  0.77690251618E+02 0.  0.
         25    2    1    2    0    0 -0.48985989731E+02  0.46805622870E+01 -0.94181768680E+02  0.16413140038E+03  0.12508947272E+03 0.  0.
         24    2    1    2    0    0  0.13514381746E+02  0.39924206003E+02  0.57981595272E+01  0.90184095046E+02  0.79517115179E+02 0.  0.
        -11    1    5    5    0    0 -0.30484483549E+02  0.33509568134E+01  0.11349627948E+02  0.32700867012E+02  0.00000000000E+00 0.  1.
         12    1    5    5    0    0  0.43998865295E+02  0.36573249190E+02 -0.55514684206E+01  0.57483228034E+02  0.00000000000E+00 0. -1.
         13    1    3    3    0    0 -0.53763939152E+01 -0.88790462617E+01 -0.50892688525E+03  0.50903272744E+03  0.00000000000E+00 0. -1.
        -14    1    3    3    0    0  0.40848001900E+02 -0.35725722029E+02 -0.23951803882E+03  0.24558863450E+03  0.00000000000E+00 0.  1.
          5    1    4    4  501    0 -0.34584997905E+02 -0.16747912247E+02  0.22384430270E+02  0.44667099338E+02  0.41800000000E+01 0.  1.
         -5    1    4    4    0  501 -0.14400991826E+02  0.21428474534E+02 -0.11656619895E+03  0.11946430104E+03  0.41800000000E+01 0.  1.
</event>
<event>
11    1  0.1002087E-008  0.2124742E+03  0.7561462E-02  0.1046037E+00
         22   -1    0    0    0    0  0.00000000000E+00  0.00000000000E+00  0.36358181802E+03  0.36358181802E+03  0.00000000000E+00 0.  1.
         22   -1    0    0    0    0 -0.00000000000E+00 -0.00000000000E+00 -0.19270974326E+04  0.19270974326E+04  0.00000000000E+00 0.  1.
         24    2    1    2    0    0 -0.90713427327E+01  0.40036005688E+02 -0.12440543194E+04  0.12474022811E+04  0.81585110686E+02 0.  0.
         25    2    1    2    0    0 -0.12027122358E+03 -0.15189513927E+03 -0.63490766770E+03  0.67549391361E+03  0.12508789014E+03 0.  0.
        -24    2    1    2    0    0  0.12934256631E+03  0.11185913358E+03  0.31544637247E+03  0.36778305595E+03  0.80721726392E+02 0.  0.
        -13    1    3    3    0    0  0.33573820576E+01  0.52336888171E+02 -0.11749480383E+04  0.11761178999E+04  0.00000000000E+00 0.  1.
         14    1    3    3    0    0 -0.12428724790E+02 -0.12300882483E+02 -0.69106281131E+02  0.71284381190E+02  0.00000000000E+00 0. -1.
         11    1    5    5    0    0  0.56393442636E+02  0.17276468144E+02  0.52432834294E+02  0.78917037678E+02  0.00000000000E+00 0. -1.
        -12    1    5    5    0    0  0.72949123673E+02  0.94582665439E+02  0.26301353818E+03  0.28886601827E+03  0.00000000000E+00 0.  1.
          5    1    4    4  501    0  0.18850346739E+02 -0.48128287516E+02 -0.93310170399E+02  0.10675171161E+03  0.41800000000E+01 0.  1.
         -5    1    4    4    0  501 -0.13912157031E+03 -0.10376685176E+03 -0.54159749730E+03  0.56874220200E+03  0.41800000000E+01 0.  1.
</event>
<event>
11    1  0.1002087E-008  0.1735836E+03  0.7561462E-02  0.1074954E+00
         22   -1    0    0    0    0  0.00000000000E+00  0.00000000000E+00  0.14189538993E+04  0.14189538993E+04  0.00000000000E+00 0.  1.
         22   -1    0    0    0    0 -0.00000000000E+00 -0.00000000000E+00 -0.20919784075E+04  0.20919784075E+04  0.00000000000E+00 0.  1.
        -24    2    1    2    0    0 -0.11900324982E+03  0.73651676739E+01 -0.20105992474E+04  0.20157708250E+04  0.81281398955E+02 0.  0.
         25    2    1    2    0    0  0.19866617420E+03 -0.50279825794E+01  0.10462736075E+03  0.25707514305E+03  0.12508882913E+03 0.  0.
         24    2    1    2    0    0 -0.79662924382E+02 -0.23371850945E+01  0.12329473784E+04  0.12380863388E+04  0.79667436590E+02 0.  0.
        -11    1    5    5    0    0 -0.65844882173E+02  0.13295861149E+01  0.12040124771E+04  0.12058123243E+04  0.00000000000E+00 0.  1.
         12    1    5    5    0    0 -0.13818042209E+02 -0.36667712094E+01  0.28934901324E+02  0.32274014566E+02  0.00000000000E+00 0. -1.
         11    1    3    3    0    0 -0.99965937900E+01  0.10392895744E+02 -0.83505302269E+03  0.83517752297E+03  0.00000000000E+00 0. -1.
        -12    1    3    3    0    0 -0.10900665603E+03 -0.30277280699E+01 -0.11755462247E+04  0.11805933020E+04  0.00000000000E+00 0.  1.
          5    1    4    4  501    0  0.17906116514E+03 -0.30628914960E+02  0.12328683667E+03  0.21958631057E+03  0.41800000000E+01 0.  1.
         -5    1    4    4    0  501  0.19605009057E+02  0.25600932380E+02 -0.18659475916E+02  0.37488832474E+02  0.41800000000E+01 0.  1.
</event>
<event>
11    1  0.1002087E-008  0.1472917E+03  0.7561462E-02  0.1099679E+00
         22   -1    0    0    0    0  0.00000000000E+00  0.00000000000E+00  0.16410910918E+04  0.16410910918E+04  0.00000000000E+00 0.  1.
         22   -1    0    0    0    0 -0.00000000000E+00 -0.00000000000E+00 -0.22880046457E+03  0.22880046457E+03  0.00000000000E+00 0.  1.
         24    2    1    2    0    0 -0.55189613796E+02  0.54229690785E+02 -0.19922606135E+03  0.22824346511E+03  0.80108070820E+02 0.  0.
         25    2    1    2    0    0  0.31998745826E+02 -0.97210431488E+02  0.48498785973E+03  0.51120807473E+03  0.12508670536E+03 0.  0.
        -24    2    1    2    0    0  0.23190867970E+02  0.42980740703E+02  0.11265288289E+04  0.11304400166E+04  0.80263742331E+02 0.  0.
        -13    1    3    3    0    0 -0.67087436711E+02  0.61580542110E+02 -0.19200002216E+03  0.21250151962E+03  0.00000000000E+00 0.  1.
         14    1    3    3    0    0  0.11897822915E+02 -0.73508513252E+01 -0.72260391815E+01  0.15741945482E+02  0.00000000000E+00 0. -1.
         13    1    5    5    0    0  0.39277610630E+02  0.74866876060E+01  0.26201938606E+03  0.26505271147E+03  0.00000000000E+00 0. -1.
        -14    1    5    5    0    0 -0.16086742660E+02  0.35494053097E+02  0.86450944284E+03  0.86538730511E+03  0.00000000000E+00 0.  1.
          5    1    4    4  501    0 -0.20549786802E+02 -0.88562128456E+02  0.40445839800E+03  0.41457160111E+03  0.41800000000E+01 0.  1.
         -5    1    4    4    0  501  0.52548532628E+02 -0.86483030316E+01  0.80529461728E+02  0.96636473615E+02  0.41800000000E+01 0.  1.
</event>
<event>
11    1  0.1002087E-008  0.1719178E+03  0.7561462E-02  0.1076375E+00
         22   -1    0    0    0    0  0.00000000000E+00  0.00000000000E+00  0.30613885232E+03  0.30613885232E+03  0.00000000000E+00 0.  1.
         22   -1    0    0    0    0 -0.00000000000E+00 -0.00000000000E+00 -0.84822664024E+03  0.84822664024E+03  0.00000000000E+00 0.  1.
         24    2    1    2    0    0  0.38414408237E+02 -0.94106652905E+02 -0.45333564749E+03  0.47169898100E+03  0.81578125214E+02 0.  0.
         25    2    1    2    0    0 -0.59492466680E+02  0.16057368915E+03 -0.34525592556E+03  0.40517517667E+03  0.12506800716E+03 0.  0.
        -24    2    1    2    0    0  0.21078058443E+02 -0.66467036243E+02  0.25650378514E+03  0.27749133489E+03  0.79656121518E+02 0.  0.
        -13    1    3    3    0    0  0.45088044879E+02 -0.46407239979E+02 -0.36856211505E+03  0.37419860551E+03  0.00000000000E+00 0.  1.
         14    1    3    3    0    0 -0.66736366416E+01 -0.47699412925E+02 -0.84773532435E+02  0.97500375492E+02  0.00000000000E+00 0. -1.
         13    1    5    5    0    0 -0.17881608506E+02  0.79573343715E+01  0.29120133210E+02  0.35086368453E+02  0.00000000000E+00 0. -1.
        -14    1    5    5    0    0  0.38959666948E+02 -0.74424370614E+02  0.22738365193E+03  0.24240496644E+03  0.00000000000E+00 0.  1.
          5    1    4    4  501    0 -0.61294653236E+02  0.14800107781E+03 -0.18663113217E+03  0.24598781564E+03  0.41800000000E+01 0.  1.
         -5    1    4    4    0  501  0.18021865562E+01  0.12572611336E+02 -0.15862479340E+03  0.15918736103E+03  0.41800000000E+01 0.  1.
</event>
<event>
11    1  0.1002087E-008  0.1420071E+03  0.7561462E-02  0.1105338E+00
         22   -1    0    0    0    0  0.00000000000E+00  0.00000000000E+00  0.94356105283E+03  0.94356105283E+03  0.00000000000E+00 0.  1.
         22   -1    0    0    0    0 -0.00000000000E+00 -0.00000000000E+00 -0.90086082810E+02  0.90086082810E+02  0.00000000000E+00 0. -1.
        -24    2    1    2    0    0  0.74136006273E+01 -0.63233307536E+02 -0.18496462905E+02  0.10417952188E+03  0.80360693020E+02 0.  0.
         25    2    1    2    0    0 -0.87534650159E+01  0.84672192718E+02  0.18981774654E+03  0.24274518999E+03  0.12509375281E+03 0.  0.
         24    2    1    2    0    0  0.13398643885E+01 -0.21438885182E+02  0.68215368639E+03  0.68672242378E+03  0.76109226960E+02 0.  0.
        -11    1    5    5    0    0 -0.33026372356E+02 -0.28735771087E+02  0.40080713695E+03  0.40319083179E+03  0.00000000000E+00 0.  1.
         12    1    5    5    0    0  0.34366236744E+02  0.72968859058E+01  0.28134654944E+03  0.28353159198E+03  0.00000000000E+00 0. -1.
         11    1    3    3    0    0 -0.13530917520E+02 -0.42573779563E+02  0.25360757722E+02  0.51369061384E+02  0.00000000000E+00 0. -1.
        -12    1    3    3    0    0  0.20944518148E+02 -0.20659527973E+02 -0.43857220627E+02  0.52810460495E+02  0.00000000000E+00 0.  1.
          5    1    4    4  501    0 -0.19212757352E+02  0.24414936667E+02  0.17746449579E+03  0.18021192758E+03  0.41800000000E+01 0. -1.
         -5    1    4    4    0  501  0.10459292336E+02  0.60257256051E+02  0.12353250749E+02  0.62533262405E+02  0.41800000000E+01 0. -1.
</event>
<event>
11    1  0.1002087E-008  0.1556062E+03  0.7561462E-02  0.1091284E+00
         22   -1    0    0    0    0  0.00000000000E+00  0.00000000000E+00  0.29761167117E+03  0.29761167117E+03  0.00000000000E+00 0. -1.
         22   -1    0    0    0    0 -0.00000000000E+00 -0.00000000000E+00 -0.53542922466E+03  0.53542922466E+03  0.00000000000E+00 0.  1.
         24    2    1    2    0    0  0.38309269005E+02  0.81251662399E+02 -0.41611536283E+03  0.43308809716E+03  0.79648427370E+02 0.  0.
         25    2    1    2    0    0 -0.79820483364E+02 -0.90366808763E+02 -0.27685512504E+02  0.17592565214E+03  0.12508348327E+03 0.  0.
        -24    2    1    2    0    0  0.41511214358E+02  0.91151463644E+01  0.20598332184E+03  0.22402714654E+03  0.77154174865E+02 0.  0.
        -11    1    3    3    0    0  0.24841552354E+02  0.96495272590E+02 -0.33973106380E+03  0.35404185638E+03  0.00000000000E+00 0.  1.
         12    1    3    3    0    0  0.13467716651E+02 -0.15243610191E+02 -0.76384299027E+02  0.79046240779E+02  0.00000000000E+00 0. -1.
         11    1    5    5    0    0  0.52311647261E+02  0.33012003946E+02  0.14563696948E+03  0.15822903565E+03  0.00000000000E+00 0. -1.
        -12    1    5    5    0    0 -0.10800432903E+02 -0.23896857581E+02  0.60346352361E+02  0.65798110888E+02  0.00000000000E+00 0.  1.
          5    1    4    4  501    0 -0.88649507025E+02 -0.10109938731E+03  0.10638198749E+02  0.13494615549E+03  0.41800000000E+01 0.  1.
         -5    1    4    4    0  501  0.88290236617E+01  0.10732578545E+02 -0.38323711253E+02  0.40979496645E+02  0.41800000000E+01 0.  1.
</event>
<event>
11    1  0.1002087E-008  0.1452489E+03  0.7561462E-02  0.1101835E+00
         22   -1    0    0    0    0  0.00000000000E+00  0.00000000000E+00  0.49106487407E+03  0.49106487407E+03  0.00000000000E+00 0.  1.
         22   -1    0    0    0    0 -0.00000000000E+00 -0.00000000000E+00 -0.41173682748E+03  0.41173682748E+03  0.00000000000E+00 0. -1.
         24    2    1    2    0    0  0.16473969019E+02 -0.43296229760E+02 -0.32812822059E+03  0.34114369054E+03  0.81024275850E+02 0.  0.
         25    2    1    2    0    0  0.51931809549E+02  0.70495739588E+02  0.13955810219E+02  0.15332907053E+03  0.12509387310E+03 0.  0.
        -24    2    1    2    0    0 -0.68405778568E+02 -0.27199509828E+02  0.39350045696E+03  0.40832894048E+03  0.80440972951E+02 0.  0.
        -11    1    3    3    0    0  0.46394627185E+02 -0.92552273602E+01 -0.14665631123E+03  0.15409800222E+03  0.00000000000E+00 0.  1.
         12    1    3    3    0    0 -0.29920658166E+02 -0.34041002400E+02 -0.18147190936E+03  0.18704568831E+03  0.00000000000E+00 0. -1.
         11    1    5    5    0    0 -0.13821798918E+02 -0.13637794575E+02  0.12263922933E+02  0.22965961158E+02  0.00000000000E+00 0. -1.
        -12    1    5    5    0    0 -0.54583979650E+02 -0.13561715253E+02  0.38123653403E+03  0.38536297932E+03  0.00000000000E+00 0.  1.
          5    1    4    4  501    0 -0.38534622194E+02  0.66469252235E+01  0.16115730936E+02  0.42500445953E+02  0.41800000000E+01 0. -1.
         -5    1    4    4    0  501  0.90466431743E+02  0.63848814365E+02 -0.21599207178E+01  0.11082862458E+03  0.41800000000E+01 0. -1.
</event>
<event>
11    1  0.1002087E-008  0.1352399E+03  0.7561462E-02  0.1112993E+00
         22   -1    0    0    0    0  0.00000000000E+00  0.00000000000E+00  0.50282648009E+03  0.50282648009E+03  0.00000000000E+00 0. -1.
         22   -1    0    0    0    0 -0.00000000000E+00 -0.00000000000E+00 -0.48331137944E+03  0.48331137944E+03  0.00000000000E+00 0. -1.
         24    2    1    2    0    0  0.50505871518E+02  0.99013076056E+01 -0.44812245230E+03  0.46346045505E+03  0.10645648026E+03 0.  0.
         25    2    1    2    0    0 -0.49297327093E+02 -0.69606715212E+01  0.18531032678E+03  0.22905453972E+03  0.12508951814E+03 0.  0.
        -24    2    1    2    0    0 -0.12085444249E+01 -0.29406360844E+01  0.28232722617E+03  0.29362286476E+03  0.80595385443E+02 0.  0.
        -13    1    3    3    0    0  0.22770360624E+02 -0.31992506633E+02 -0.57556530690E+02  0.69676136723E+02  0.00000000000E+00 0.  1.
         14    1    3    3    0    0  0.27735510894E+02  0.41893814239E+02 -0.39056592161E+03  0.39378431833E+03  0.00000000000E+00 0. -1.
         11    1    5    5    0    0  0.20736690849E+02 -0.15550565342E+02  0.25523364891E+03  0.25654638171E+03  0.00000000000E+00 0. -1.
        -12    1    5    5    0    0 -0.21945235274E+02  0.12609929257E+02  0.27093577251E+02  0.37076483050E+02  0.00000000000E+00 0.  1.
          5    1    4    4  501    0  0.24695737663E+02  0.32072949628E+01  0.13855998072E+03  0.14084213452E+03  0.41800000000E+01 0.  1.
         -5    1    4    4    0  501 -0.73993064756E+02 -0.10167966484E+02  0.46750346066E+02  0.88212405203E+02  0.41800000000E+01 0.  1.
</event>
<event>
11    1  0.1002087E-008  0.1964352E+03  0.7561462E-02  0.1057074E+00
         22   -1    0    0    0    0  0.00000000000E+00  0.00000000000E+00  0.29364544399E+03  0.29364544399E+03  0.00000000000E+00 0.  1.
         22   -1    0    0    0    0 -0.00000000000E+00 -0.00000000000E+00 -0.62929837309E+03  0.62929837309E+03  0.00000000000E+00 0. -1.
         24    2    1    2    0    0 -0.12372851494E+03 -0.95270750477E+02 -0.49100794256E+03  0.52140056625E+03  0.79903000686E+02 0.  0.
         25    2    1    2    0    0  0.10666627272E+03  0.73807154297E+02 -0.44083337097E+02  0.18551749601E+03  0.12509280936E+03 0.  0.
        -24    2    1    2    0    0  0.17062242221E+02  0.21463596180E+02  0.19943835057E+03  0.21602575482E+03  0.78356014435E+02 0.  0.
        -13    1    3    3    0    0  0.10243826971E+00 -0.84614794776E+01 -0.12628193597E+03  0.12656513928E+03  0.00000000000E+00 0.  1.
         14    1    3    3    0    0 -0.12383095321E+03 -0.86809270999E+02 -0.36472600659E+03  0.39483542697E+03  0.00000000000E+00 0. -1.
         13    1    5    5    0    0 -0.10074698672E+02 -0.20922166808E+02  0.23528698575E+02  0.33058074262E+02  0.00000000000E+00 0. -1.
        -14    1    5    5    0    0  0.27136940893E+02  0.42385762987E+02  0.17590965199E+03  0.18296768056E+03  0.00000000000E+00 0.  1.
          5    1    4    4  501    0  0.49393556351E+02  0.17609308250E+02 -0.81406133642E+02  0.96923898707E+02  0.41800000000E+01 0.  1.
         -5    1    4    4    0  501  0.57272716369E+02  0.56197846047E+02  0.37322796545E+02  0.88593597300E+02  0.41800000000E+01 0.  1.
</event>
<event>
11    1  0.1002087E-008  0.1500861E+03  0.7561462E-02  0.1096791E+00
         22   -1    0    0    0    0  0.00000000000E+00  0.00000000000E+00  0.17467161759E+03  0.17467161759E+03  0.00000000000E+00 0.  1.
         22   -1    0    0    0    0 -0.00000000000E+00 -0.00000000000E+00 -0.15407152662E+04  0.15407152662E+04  0.00000000000E+00 0. -1.
         24    2    1    2    0    0  0.65202637554E+02 -0.49211160214E+02 -0.12670687546E+04  0.12720911656E+04  0.77971676893E+02 0.  0.
         25    2    1    2    0    0 -0.67004939614E+02  0.68397285465E+02 -0.23632728246E+03  0.28401665901E+03  0.12508807924E+03 0.  0.
        -24    2    1    2    0    0  0.18023020595E+01 -0.19186125251E+02  0.13735238853E+03  0.15927905914E+03  0.78312095814E+02 0.  0.
        -11    1    3    3    0    0  0.12264443269E+02  0.18194499647E+02 -0.13392127877E+03  0.13570690952E+03  0.00000000000E+00 0.  1.
         12    1    3    3    0    0  0.52938194286E+02 -0.67405659861E+02 -0.11331474759E+04  0.11363842561E+04  0.00000000000E+00 0. -1.
         13    1    5    5    0    0  0.81622420183E+01 -0.24193574145E+02  0.41947483308E+01  0.25875608944E+02  0.00000000000E+00 0. -1.
        -14    1    5    5    0    0 -0.63599399588E+01  0.50074488946E+01  0.13315764020E+03  0.13340345019E+03  0.00000000000E+00 0.  1.
          5    1    4    4  501    0 -0.10414846859E+03  0.46143463757E+02 -0.16827976882E+03  0.20325273861E+03  0.41800000000E+01 0.  1.
         -5    1    4    4    0  501  0.37143528981E+02  0.22253821708E+02 -0.68047513639E+02  0.80763920399E+02  0.41800000000E+01 0.  1.
</event>
<event>
11    1  0.1002087E-008  0.1648292E+03  0.7561462E-02  0.1082621E+00
         22   -1    0    0    0    0  0.00000000000E+00  0.00000000000E+00  0.11467429257E+04  0.11467429257E+04  0.00000000000E+00 0.  1.
         22   -1    0    0    0    0 -0.00000000000E+00 -0.00000000000E+00 -0.15586861429E+03  0.15586861429E+03  0.00000000000E+00 0. -1.
        -24    2    1    2    0    0  0.53776291294E+02 -0.18428228818E+02 -0.11400681243E+03  0.15327691088E+03  0.85233614293E+02 0.  0.
         25    2    1    2    0    0 -0.36307406378E+02 -0.95232363035E+02  0.43139850357E+03  0.46058613607E+03  0.12508992417E+03 0.  0.
         24    2    1    2    0    0 -0.17468884916E+02  0.11366059185E+03  0.67348262031E+03  0.68874849308E+03  0.87015830686E+02 0.  0.
        -13    1    5    5    0    0  0.22006813442E+02  0.92787048473E+02  0.52886498184E+03  0.53739362223E+03  0.00000000000E+00 0.  1.
         14    1    5    5    0    0 -0.39475698358E+02  0.20873543381E+02  0.14461763847E+03  0.15135487085E+03  0.00000000000E+00 0. -1.
         11    1    3    3    0    0  0.26749819944E+02 -0.35046741867E+01 -0.11898493912E+03  0.12200512836E+03  0.00000000000E+00 0. -1.
        -12    1    3    3    0    0  0.27026471350E+02 -0.14923554632E+02  0.49781266938E+01  0.31271782518E+02  0.00000000000E+00 0.  1.
          5    1    4    4  501    0  0.92200310717E+01  0.37217424073E+01  0.24062510332E+03  0.24086671229E+03  0.41800000000E+01 0. -1.
         -5    1    4    4    0  501 -0.45527437449E+02 -0.98954105443E+02  0.19077340025E+03  0.21971942379E+03  0.41800000000E+01 0. -1.
</event>
<event>
11    1  0.1002087E-008  0.1557503E+03  0.7561462E-02  0.1091144E+00
         22   -1    0    0    0    0  0.00000000000E+00  0.00000000000E+00  0.20660628560E+04  0.20660628560E+04  0.00000000000E+00 0. -1.
         22   -1    0    0    0    0 -0.00000000000E+00 -0.00000000000E+00 -0.56456503867E+03  0.56456503867E+03  0.00000000000E+00 0. -1.
         24    2    1    2    0    0  0.66009835127E+02  0.61307127613E+02 -0.54754425750E+03  0.56068955752E+03  0.80325610871E+02 0.  0.
         25    2    1    2    0    0 -0.11225080409E+03  0.19983525091E+02  0.12120639078E+04  0.12238250875E+04  0.12509733740E+03 0.  0.
        -24    2    1    2    0    0  0.46240968962E+02 -0.81290652704E+02  0.83697816707E+03  0.84611324972E+03  0.81417330936E+02 0.  0.
        -11    1    3    3    0    0  0.52524515924E+02  0.24225712796E+02 -0.14343697026E+03  0.15466051329E+03  0.00000000000E+00 0.  1.
         12    1    3    3    0    0  0.13485319203E+02  0.37081414817E+02 -0.40410728724E+03  0.40602904423E+03  0.00000000000E+00 0. -1.
         13    1    5    5    0    0  0.12962719796E+02 -0.86951499448E+01  0.48242989738E+03  0.48268234236E+03  0.00000000000E+00 0. -1.
        -14    1    5    5    0    0  0.33278249167E+02 -0.72595502759E+02  0.35454826968E+03  0.36343090736E+03  0.00000000000E+00 0.  1.
          5    1    4    4  501    0 -0.65163592634E+02 -0.11022191561E+02  0.21058210951E+03  0.22074890658E+03  0.41800000000E+01 0. -1.
         -5    1    4    4    0  501 -0.47087211456E+02  0.31005716653E+02  0.10014817983E+04  0.10030761809E+04  0.41800000000E+01 0. -1.
</event>
<event>
11    1  0.1002087E-008  0.4985035E+03  0.7561462E-02  0.9396872E-01
         22   -1    0    0    0    0  0.00000000000E+00  0.00000000000E+00  0.38463085720E+04  0.38463085720E+04  0.00000000000E+00 0.  1.
         22   -1    0    0    0    0 -0.00000000000E+00 -0.00000000000E+00 -0.91612184525E+02  0.91612184525E+02  0.00000000000E+00 0.  1.
         24    2    1    2    0    0  0.56092091491E+02  0.85363505642E+02  0.35493359997E+03  0.37793336406E+03  0.80140604293E+02 0.  0.
         25    2    1    2    0    0 -0.51695495872E+03  0.13468604170E+00  0.12533481007E+04  0.13615334420E+04  0.12509758104E+03 0.  0.
        -24    2    1    2    0    0  0.46086286723E+03 -0.85498191684E+02  0.21464146868E+04  0.21984539505E+04  0.79995257638E+02 0.  0.
        -13    1    3    3    0    0  0.21873984328E+02 -0.78004004849E+01  0.13026790730E+03  0.13232174844E+03  0.00000000000E+00 0.  1.
         14    1    3    3    0    0  0.34218107163E+02  0.93163906127E+02  0.22466569267E+03  0.24561161561E+03  0.00000000000E+00 0. -1.
         13    1    5    5    0    0  0.21512570287E+03 -0.48051733537E+02  0.82969607266E+03  0.85847749541E+03  0.00000000000E+00 0. -1.
        -14    1    5    5    0    0  0.24573716436E+03 -0.37446458146E+02  0.13167186142E+04  0.13399764550E+04  0.00000000000E+00 0.  1.
          5    1    4    4  501    0 -0.23696097474E+03  0.44375013420E+02  0.68916729097E+03  0.73012921645E+03  0.41800000000E+01 0.  1.
         -5    1    4    4    0  501 -0.27999398398E+03 -0.44240327379E+02  0.56418080973E+03  0.63140422560E+03  0.41800000000E+01 0.  1.
</event>
<event>
11    1  0.1002087E-008  0.1432125E+03  0.7561462E-02  0.1104023E+00
         22   -1    0    0    0    0  0.00000000000E+00  0.00000000000E+00  0.12718592756E+04  0.12718592756E+04  0.00000000000E+00 0. -1.
         22   -1    0    0    0    0 -0.00000000000E+00 -0.00000000000E+00 -0.16980407969E+03  0.16980407969E+03  0.00000000000E+00 0. -1.
         24    2    1    2    0    0 -0.63784569890E+02 -0.32706689889E+02 -0.55553292608E+02  0.12472105899E+03  0.85621114899E+02 0.  0.
         25    2    1    2    0    0  0.42167978686E+02  0.56991097396E+02 -0.11054571494E+02  0.14420852152E+03  0.12509104892E+03 0.  0.
        -24    2    1    2    0    0  0.21616591205E+02 -0.24284407508E+02  0.11686630600E+04  0.11727337747E+04  0.92055142227E+02 0.  0.
        -11    1    3    3    0    0 -0.18162316325E+02  0.26323020738E+02 -0.46953073004E+00  0.31984240090E+02  0.00000000000E+00 0.  1.
         12    1    3    3    0    0 -0.45622253566E+02 -0.59029710627E+02 -0.55083761878E+02  0.92736818900E+02  0.00000000000E+00 0. -1.
         11    1    5    5    0    0  0.35158426761E+02  0.26819655145E+02  0.59419360783E+03  0.59583676662E+03  0.00000000000E+00 0. -1.
        -12    1    5    5    0    0 -0.13541835556E+02 -0.51104062652E+02  0.57446945214E+03  0.57689700812E+03  0.00000000000E+00 0.  1.
          5    1    4    4  501    0 -0.32865234921E+02  0.59511025333E+02  0.62995329939E+00  0.68114279294E+02  0.41800000000E+01 0.  1.
         -5    1    4    4    0  501  0.75033213607E+02 -0.25199279362E+01 -0.11684524794E+02  0.76094242230E+02  0.41800000000E+01 0.  1.
</event>
<event>
11    1  0.1002087E-008  0.1331582E+03  0.7561462E-02  0.1115448E+00
         22   -1    0    0    0    0  0.00000000000E+00  0.00000000000E+00  0.47915734210E+03  0.47915734210E+03  0.00000000000E+00 0.  1.
         22   -1    0    0    0    0 -0.00000000000E+00 -0.00000000000E+00 -0.12703628648E+03  0.12703628648E+03  0.00000000000E+00 0.  1.
        -24    2    1    2    0    0  0.34846379956E+02  0.13911710937E+01 -0.64470072512E+02  0.10984704492E+03  0.81815508773E+02 0.  0.
         25    2    1    2    0    0 -0.13380095221E+02 -0.44023235187E+02  0.10013813555E+03  0.16670933333E+03  0.12508910202E+03 0.  0.
         24    2    1    2    0    0 -0.21466284734E+02  0.42632064093E+02  0.31645299258E+03  0.32963725032E+03  0.78993202349E+02 0.  0.
        -13    1    5    5    0    0 -0.16055706832E+02 -0.10450772797E+02  0.20685950838E+03  0.20774470049E+03  0.00000000000E+00 0.  1.
         14    1    5    5    0    0 -0.54105779028E+01  0.53082836891E+02  0.10959348420E+03  0.12189254983E+03  0.00000000000E+00 0. -1.
         11    1    3    3    0    0 -0.26547242214E+02  0.10251830135E+01 -0.12282815247E+02  0.29269004421E+02  0.00000000000E+00 0. -1.
        -12    1    3    3    0    0  0.61393622170E+02  0.36598808024E+00 -0.52187257265E+02  0.80578040503E+02  0.00000000000E+00 0.  1.
          5    1    4    4  501    0 -0.66102473009E+02 -0.75297237345E+01  0.35324876763E+02  0.75442381959E+02  0.41800000000E+01 0.  1.
         -5    1    4    4    0  501  0.52722377787E+02 -0.36493511452E+02  0.64813258790E+02  0.91266951371E+02  0.41800000000E+01 0.  1.
</event>
<event>
11    1  0.1002087E-008  0.4494410E+03  0.7561462E-02  0.9514184E-01
         22   -1    0    0    0    0  0.00000000000E+00  0.00000000000E+00  0.38990799255E+03  0.38990799255E+03  0.00000000000E+00 0. -1.
         22   -1    0    0    0    0 -0.00000000000E+00 -0.00000000000E+00 -0.93243140640E+03  0.93243140640E+03  0.00000000000E+00 0. -1.
         24    2    1    2    0    0  0.39399000637E+03 -0.19725440441E+03 -0.55335313032E+03  0.71096245367E+03  0.71627498299E+02 0.  0.
         25    2    1    2    0    0 -0.37227530511E+03  0.17972163419E+03 -0.12644033586E+03  0.45002453202E+03  0.12508458059E+03 0.  0.
        -24    2    1    2    0    0 -0.21714701267E+02  0.17532770229E+02  0.13727005233E+03  0.16135241326E+03  0.80078759446E+02 0.  0.
        -11    1    3    3    0    0  0.14943688036E+03 -0.10857716672E+03 -0.25920054679E+03  0.31828494435E+03  0.00000000000E+00 0.  1.
         12    1    3    3    0    0  0.24455312601E+03 -0.88677237689E+02 -0.29415258354E+03  0.39267750932E+03  0.00000000000E+00 0. -1.
         11    1    5    5    0    0  0.21366323967E+02  0.27075178702E+02  0.31351050124E+02  0.46609799887E+02  0.00000000000E+00 0. -1.
        -12    1    5    5    0    0 -0.43081025234E+02 -0.95424084736E+01  0.10591900221E+03  0.11474261337E+03  0.00000000000E+00 0.  1.
          5    1    4    4  501    0 -0.28081925356E+03  0.73015374618E+02 -0.69922266807E+02  0.29849169820E+03  0.41800000000E+01 0. -1.
         -5    1    4    4    0  501 -0.91456051545E+02  0.10670625957E+03 -0.56518069049E+02  0.15153283382E+03  0.41800000000E+01 0. -1.
</event>
<event>
11    1  0.1002087E-008  0.2234919E+03  0.7561462E-02  0.1039052E+00
         22   -1    0    0    0    0  0.00000000000E+00  0.00000000000E+00  0.55210299847E+03  0.55210299847E+03  0.00000000000E+00 0. -1.
         22   -1    0    0    0    0 -0.00000000000E+00 -0.00000000000E+00 -0.58008132739E+03  0.58008132739E+03  0.00000000000E+00 0. -1.
         24    2    1    2    0    0 -0.14050179932E+02  0.10136846120E+02 -0.48707254267E+03  0.49394723304E+03  0.80274803065E+02 0.  0.
         25    2    1    2    0    0  0.10513984263E+03  0.15176332339E+03  0.14910383363E+03  0.26826552885E+03  0.12509175805E+03 0.  0.
        -24    2    1    2    0    0 -0.91089662700E+02 -0.16190016951E+03  0.30999038011E+03  0.36997156396E+03  0.79220772772E+02 0.  0.
        -11    1    3    3    0    0  0.22964150588E+02  0.31649565058E+02 -0.21500830755E+03  0.21853516764E+03  0.00000000000E+00 0.  1.
         12    1    3    3    0    0 -0.37014330520E+02 -0.21512718937E+02 -0.27206423511E+03  0.27541206540E+03  0.00000000000E+00 0. -1.
         13    1    5    5    0    0 -0.30991769002E+02 -0.95874683501E+02  0.22577667085E+03  0.24723986285E+03  0.00000000000E+00 0. -1.
        -14    1    5    5    0    0 -0.60097893699E+02 -0.66025486013E+02  0.84213709270E+02  0.12273170112E+03  0.00000000000E+00 0.  1.
          5    1    4    4  501    0 -0.17953458201E+02  0.70229611157E+02  0.30166918334E+02  0.78625951863E+02  0.41800000000E+01 0. -1.
         -5    1    4    4    0  501  0.12309330083E+03  0.81533712237E+02  0.11893691529E+03  0.18963957699E+03  0.41800000000E+01 0. -1.
</event>
<event>
11    1  0.1002087E-008  0.2006466E+03  0.7561462E-02  0.1054067E+00
         22   -1    0    0    0    0  0.00000000000E+00  0.00000000000E+00  0.93192815637E+02  0.93192815637E+02  0.00000000000E+00 0. -1.
         22   -1    0    0    0    0 -0.00000000000E+00 -0.00000000000E+00 -0.20225544445E+04  0.20225544445E+04  0.00000000000E+00 0. -1.
         24    2    1    2    0    0 -0.40585475599E+02 -0.54495126782E+02 -0.75577546946E+03  0.76317426875E+03  0.81372627902E+02 0.  0.
         25    2    1    2    0    0 -0.99940577270E+02 -0.25571170483E+02 -0.11585198695E+04  0.11698117413E+04  0.12509683568E+03 0.  0.
        -24    2    1    2    0    0  0.14052605287E+03  0.80066297265E+02 -0.15066289993E+02  0.18276125018E+03  0.83764538928E+02 0.  0.
        -13    1    3    3    0    0 -0.47006806148E+02 -0.37761490546E+02 -0.25323590515E+03  0.26031518137E+03  0.00000000000E+00 0.  1.
         14    1    3    3    0    0  0.64213305485E+01 -0.16733636236E+02 -0.50253956431E+03  0.50285908738E+03  0.00000000000E+00 0. -1.
         11    1    5    5    0    0  0.14115262203E+03  0.71524537298E+02  0.77103914820E+01  0.15842749849E+03  0.00000000000E+00 0. -1.
        -12    1    5    5    0    0 -0.62656916327E+00  0.85417599672E+01 -0.22776681475E+02  0.24333751689E+02  0.00000000000E+00 0.  1.
          5    1    4    4  501    0 -0.81886637085E+02 -0.69931834934E+02 -0.93438027713E+03  0.94057421693E+03  0.41800000000E+01 0.  1.
         -5    1    4    4    0  501 -0.18053940185E+02  0.44360664451E+02 -0.22413959233E+03  0.22923752432E+03  0.41800000000E+01 0.  1.
</event>
<event>
11    1  0.1002087E-008  0.1606998E+03  0.7561462E-02  0.1086421E+00
         22   -1    0    0    0    0  0.00000000000E+00  0.00000000000E+00  0.13126546421E+04  0.13126546421E+04  0.00000000000E+00 0. -1.
         22   -1    0    0    0    0 -0.00000000000E+00 -0.00000000000E+00 -0.42178249779E+03  0.42178249779E+03  0.00000000000E+00 0. -1.
         24    2    1    2    0    0  0.88218704138E+02  0.43709881892E+02 -0.35986113852E+03  0.38130363595E+03  0.78735825606E+02 0.  0.
         25    2    1    2    0    0 -0.14585497972E+03 -0.30572204699E+02  0.14431726489E+03  0.24224660450E+03  0.12509040586E+03 0.  0.
        -24    2    1    2    0    0  0.57636275584E+02 -0.13137677192E+02  0.11064160180E+04  0.11108868995E+04  0.80117162819E+02 0.  0.
        -11    1    3    3    0    0  0.63232463873E+02  0.66513625290E+02 -0.27683961772E+03  0.29165490014E+03  0.00000000000E+00 0.  1.
         12    1    3    3    0    0  0.24986240266E+02 -0.22803743398E+02 -0.83021520800E+02  0.89648735805E+02  0.00000000000E+00 0. -1.
         11    1    5    5    0    0 -0.64984150223E+01  0.13066915736E+02  0.54733652931E+03  0.54753104935E+03  0.00000000000E+00 0. -1.
        -12    1    5    5    0    0  0.64134690606E+02 -0.26204592929E+02  0.55907948867E+03  0.56335585014E+03  0.00000000000E+00 0.  1.
          5    1    4    4  501    0 -0.10338797728E+03 -0.57267547176E+02  0.15064019074E+03  0.19151654046E+03  0.41800000000E+01 0. -1.
         -5    1    4    4    0  501 -0.42467002447E+02  0.26695342476E+02 -0.63229258428E+01  0.50730064045E+02  0.41800000000E+01 0. -1.
</event>
<event>
11    1  0.1002087E-008  0.1404127E+03  0.7561462E-02  0.1107098E+00
         22   -1    0    0    0    0  0.00000000000E+00  0.00000000000E+00  0.37468069033E+03  0.37468069033E+03  0.00000000000E+00 0. -1.
         22   -1    0    0    0    0 -0.00000000000E+00 -0.00000000000E+00 -0.85454483188E+03  0.85454483188E+03  0.00000000000E+00 0.  1.
         24    2    1    2    0    0 -0.61174180912E+02  0.20197721931E+02 -0.79215809239E+03  0.79878517075E+03  0.79956721308E+02 0.  0.
         25    2    1    2    0    0  0.54156755939E+02  0.15676824842E+02  0.36365748753E+02  0.14194247530E+03  0.12508589673E+03 0.  0.
        -24    2    1    2    0    0  0.70174249731E+01 -0.35874546774E+02  0.27592820208E+03  0.28849787616E+03  0.75884283508E+02 0.  0.
        -13    1    3    3    0    0  0.27160809315E+01  0.21782709481E+01 -0.46233180969E+03  0.46234491909E+03  0.00000000000E+00 0.  1.
         14    1    3    3    0    0 -0.63890261844E+02  0.18019450983E+02 -0.32982628270E+03  0.33644025165E+03  0.00000000000E+00 0. -1.
         13    1    5    5    0    0  0.15428109872E+02 -0.58210000201E+02  0.18981914470E+03  0.19914250775E+03  0.00000000000E+00 0. -1.
        -14    1    5    5    0    0 -0.84106848990E+01  0.22335453427E+02  0.86109057381E+02  0.89355368408E+02  0.00000000000E+00 0.  1.
          5    1    4    4  501    0  0.22749842655E+02 -0.28450098652E+02 -0.36047009216E+02  0.51418116725E+02  0.41800000000E+01 0.  1.
         -5    1    4    4    0  501  0.31406913284E+02  0.44126923495E+02  0.72412757969E+02  0.90524358577E+02  0.41800000000E+01 0.  1.
</event>
<event>
11    1  0.1002087E-008  0.1441331E+03  0.7561462E-02  0.1103029E+00
         22   -1    0    0    0    0  0.00000000000E+00  0.00000000000E+00  0.94781392951E+03  0.94781392951E+03  0.00000000000E+00 0.  1.
         22   -1    0    0    0    0 -0.00000000000E+00 -0.00000000000E+00 -0.53078504923E+03  0.53078504923E+03  0.00000000000E+00 0.  1.
         24    2    1    2    0    0  0.29074065292E+02  0.65526125203E+02 -0.51084824836E+03  0.52204712185E+03  0.80176618895E+02 0.  0.
         25    2    1    2    0    0 -0.46768720908E+02 -0.49839619279E+02  0.47322134016E+03  0.49422340766E+03  0.12508812489E+03 0.  0.
        -24    2    1    2    0    0  0.17694655615E+02 -0.15686505924E+02  0.45465578848E+03  0.46232844923E+03  0.80476963536E+02 0.  0.
        -13    1    3    3    0    0 -0.20324297855E+02  0.47318952567E+02 -0.31794222219E+03  0.32208603975E+03  0.00000000000E+00 0.  1.
         14    1    3    3    0    0  0.49398363148E+02  0.18207172636E+02 -0.19290602618E+03  0.19996108210E+03  0.00000000000E+00 0. -1.
         11    1    5    5    0    0  0.35848026603E+02 -0.39700691922E+02  0.27220661393E+03  0.27741244856E+03  0.00000000000E+00 0. -1.
        -12    1    5    5    0    0 -0.18153370988E+02  0.24014185998E+02  0.18244917455E+03  0.18491600067E+03  0.00000000000E+00 0.  1.
          5    1    4    4  501    0  0.14529281149E+00  0.22403527587E+02  0.29858465345E+03  0.29945317970E+03  0.41800000000E+01 0.  1.
         -5    1    4    4    0  501 -0.46914013719E+02 -0.72243146866E+02  0.17463668671E+03  0.19477022795E+03  0.41800000000E+01 0.  1.
</event>
<event>
11    1  0.1002087E-008  0.2449435E+03  0.7561462E-02  0.1026628E+00
         22   -1    0    0    0    0  0.00000000000E+00  0.00000000000E+00  0.56549179612E+03  0.56549179612E+03  0.00000000000E+00 0.  1.
         22   -1    0    0    0    0 -0.00000000000E+00 -0.00000000000E+00 -0.25644721547E+04  0.25644721547E+04  0.00000000000E+00 0. -1.
        -24    2    1    2    0    0 -0.49075556463E+02 -0.25534672574E+02 -0.10211116070E+04  0.10256480137E+04  0.78895527933E+02 0.  0.
         25    2    1    2    0    0  0.23232339649E+03 -0.77323969327E+02 -0.15055983148E+04  0.15304986180E+04  0.12508627987E+03 0.  0.
         24    2    1    2    0    0 -0.18324784003E+03  0.10285864190E+03  0.52772956317E+03  0.57381731915E+03  0.81290545673E+02 0.  0.
        -11    1    5    5    0    0 -0.12664506300E+03  0.92554813465E+02  0.29533588121E+03  0.33440790692E+03  0.00000000000E+00 0.  1.
         12    1    5    5    0    0 -0.56602777028E+02  0.10303828436E+02  0.23239368196E+03  0.23940941223E+03  0.00000000000E+00 0. -1.
         11    1    3    3    0    0 -0.49695676749E+02 -0.38722159707E+02 -0.98792625631E+03  0.98993300473E+03  0.00000000000E+00 0. -1.
        -12    1    3    3    0    0  0.62012028589E+00  0.13187487133E+02 -0.33185350668E+02  0.35715008960E+02  0.00000000000E+00 0.  1.
          5    1    4    4  501    0  0.97930119772E+02 -0.87545535138E+02 -0.55292268976E+03  0.56832693261E+03  0.41800000000E+01 0.  1.
         -5    1    4    4    0  501  0.13439327672E+03  0.10221565811E+02 -0.95267562504E+03  0.96217168540E+03  0.41800000000E+01 0.  1.
</event>
<event>
11    1  0.1002087E-008  0.1388137E+03  0.7561462E-02  0.1108890E+00
         22   -1    0    0    0    0  0.00000000000E+00  0.00000000000E+00  0.60794849213E+03  0.60794849213E+03  0.00000000000E+00 0.  1.
         22   -1    0    0    0    0 -0.00000000000E+00 -0.00000000000E+00 -0.26197946365E+03  0.26197946365E+03  0.00000000000E+00 0. -1.
        -24    2    1    2    0    0 -0.33274585230E+02 -0.48817828640E+02 -0.22242543945E+03  0.24388970483E+03  0.80738674694E+02 0.  0.
         25    2    1    2    0    0  0.69375929135E+02  0.56933868633E+02  0.23234315537E+03  0.27872155288E+03  0.12509147554E+03 0.  0.
         24    2    1    2    0    0 -0.36101343905E+02 -0.81160399926E+01  0.33605131257E+03  0.34731669806E+03  0.79556438701E+02 0.  0.
        -13    1    5    5    0    0 -0.18628343983E+02 -0.39686645677E+02  0.25292702180E+03  0.25669850682E+03  0.00000000000E+00 0.  1.
         14    1    5    5    0    0 -0.17472999922E+02  0.31570605684E+02  0.83124290765E+02  0.90618191246E+02  0.00000000000E+00 0. -1.
         13    1    3    3    0    0 -0.46486948222E+02 -0.34935744772E+01 -0.15291039338E+03  0.15985878087E+03  0.00000000000E+00 0. -1.
        -14    1    3    3    0    0  0.13212362992E+02 -0.45324254163E+02 -0.69515046077E+02  0.84030923965E+02  0.00000000000E+00 0.  1.
          5    1    4    4  501    0  0.80504275651E+00  0.65037801389E+02  0.18156932213E+03  0.19291307587E+03  0.41800000000E+01 0. -1.
         -5    1    4    4    0  501  0.68570886378E+02 -0.81039327564E+01  0.50773833233E+02  0.85808477005E+02  0.41800000000E+01 0. -1.
</event>
<event>
11    1  0.1170944E-008  0.1728952E+03  0.7561462E-02  0.1075539E+00
         22   -1    0    0    0    0  0.00000000000E+00  0.00000000000E+00  0.10624237801E+03  0.10624237801E+03  0.00000000000E+00 0.  1.
         22   -1    0    0    0    0 -0.00000000000E+00 -0.00000000000E+00 -0.17019560242E+04  0.17019560242E+04  0.00000000000E+00 0. -1.
         24    2    1    2    0    0  0.21851398827E+01  0.18639658951E+02 -0.69654267989E+03  0.70115030381E+03  0.78024559627E+02 0.  0.
         25    2    1    2    0    0 -0.41208504672E+02 -0.13040928730E+03 -0.94102037668E+03  0.95909915343E+03  0.12508842354E+03 0.  0.
        -24    2    1    2    0    0  0.39023364789E+02  0.11176962835E+03  0.41849410337E+02  0.14794894502E+03  0.78244772138E+02 0.  0.
        -13    1    3    3    0    0  0.39956788876E+02  0.76076983774E+01 -0.32774203722E+03  0.33025636256E+03  0.00000000000E+00 0.  1.
         14    1    3    3    0    0 -0.37771648993E+02  0.11031960573E+02 -0.36880064267E+03  0.37089394125E+03  0.00000000000E+00 0. -1.
         11    1    5    5    0    0 -0.10311446601E+02  0.49480332243E+01 -0.13687523312E+02  0.17836963257E+02  0.00000000000E+00 0. -1.
        -12    1    5    5    0    0  0.49334811390E+02  0.10682159512E+03  0.55536933649E+02  0.13011198176E+03  0.00000000000E+00 0.  1.
          5    1    4    4  501    0 -0.83419038369E+02 -0.79535838842E+02 -0.49981367424E+03  0.51294821082E+03  0.41800000000E+01 0.  1.
         -5    1    4    4    0  501  0.42210533697E+02 -0.50873448457E+02 -0.44120670244E+03  0.44615094261E+03  0.41800000000E+01 0.  1.
</event>
<event>
11    1  0.1002087E-008  0.1628614E+03  0.7561462E-02  0.1084416E+00
         22   -1    0    0    0    0  0.00000000000E+00  0.00000000000E+00  0.12459898723E+03  0.12459898723E+03  0.00000000000E+00 0.  1.
         22   -1    0    0    0    0 -0.00000000000E+00 -0.00000000000E+00 -0.32519433989E+03  0.32519433989E+03  0.00000000000E+00 0. -1.
        -24    2    1    2    0    0 -0.20757265278E+02 -0.11590060451E+03 -0.14119889929E+03  0.20052495766E+03  0.80058199445E+02 0.  0.
         25    2    1    2    0    0 -0.47415699231E+01  0.75960147491E+02 -0.15521222275E+02  0.14724303459E+03  0.12508867415E+03 0.  0.
         24    2    1    2    0    0  0.25498835201E+02  0.39940457019E+02 -0.43875231105E+02  0.10202533487E+03  0.78985456557E+02 0.  0.
        -13    1    5    5    0    0  0.15511059531E+02  0.34050252763E+02  0.16249383225E+02  0.40792831922E+02  0.00000000000E+00 0.  1.
         14    1    5    5    0    0  0.99877756694E+01  0.58902042553E+01 -0.60124614330E+02  0.61232502949E+02  0.00000000000E+00 0. -1.
         11    1    3    3    0    0  0.10216514499E+01 -0.73144438473E+02 -0.13307938044E+03  0.15185938940E+03  0.00000000000E+00 0. -1.
        -12    1    3    3    0    0 -0.21778916727E+02 -0.42756166037E+02 -0.81195188491E+01  0.48665568263E+02  0.00000000000E+00 0.  1.
          5    1    4    4  501    0 -0.12147855690E+02  0.98828348500E+02 -0.44685063575E+02  0.10921922986E+03  0.41800000000E+01 0. -1.
         -5    1    4    4    0  501  0.74062857670E+01 -0.22868201009E+02  0.29163841299E+02  0.38023804722E+02  0.41800000000E+01 0. -1.
</event>
<event>
11    1  0.1002087E-008  0.1459314E+03  0.7561462E-02  0.1101110E+00
         22   -1    0    0    0    0  0.00000000000E+00  0.00000000000E+00  0.31850048434E+03  0.31850048434E+03  0.00000000000E+00 0.  1.
         22   -1    0    0    0    0 -0.00000000000E+00 -0.00000000000E+00 -0.18680631784E+04  0.18680631784E+04  0.00000000000E+00 0.  1.
        -24    2    1    2    0    0 -0.49141567190E+02 -0.28431442147E+02 -0.17661575731E+04  0.17693196317E+04  0.89197226890E+02 0.  0.
         25    2    1    2    0    0  0.49078749168E+02  0.99242304248E+02 -0.50606610173E+01  0.16712248774E+03  0.12508619847E+03 0.  0.
         24    2    1    2    0    0  0.62818021088E-01 -0.70810862100E+02  0.22165554007E+03  0.25012154337E+03  0.91735630360E+02 0.  0.
        -11    1    5    5    0    0 -0.47831316240E+01 -0.84118267581E+02  0.22033880788E+03  0.23589818047E+03  0.00000000000E+00 0.  1.
         12    1    5    5    0    0  0.48459496451E+01  0.13307405480E+02  0.13167321841E+01  0.14223362901E+02  0.00000000000E+00 0. -1.
         11    1    3    3    0    0 -0.52139709818E+02 -0.20949171531E+02 -0.50178797556E+03  0.50492434042E+03  0.00000000000E+00 0. -1.
        -12    1    3    3    0    0  0.29981426281E+01 -0.74822706164E+01 -0.12643695976E+04  0.12643952912E+04  0.00000000000E+00 0.  1.
          5    1    4    4  501    0 -0.94084076267E+01 -0.18870192365E+02 -0.25857956769E+02  0.33626011096E+02  0.41800000000E+01 0.  1.
         -5    1    4    4    0  501  0.58487156795E+02  0.11811249661E+03  0.20797295752E+02  0.13349647664E+03  0.41800000000E+01 0.  1.
</event>
<event>
11    1  0.1002087E-008  0.1299632E+03  0.7561462E-02  0.1119314E+00
         22   -1    0    0    0    0  0.00000000000E+00  0.00000000000E+00  0.43563587700E+02  0.43563587700E+02  0.00000000000E+00 0. -1.
         22   -1    0    0    0    0 -0.00000000000E+00 -0.00000000000E+00 -0.11959670341E+04  0.11959670341E+04  0.00000000000E+00 0. -1.
        -24    2    1    2    0    0  0.10242293060E+02  0.32072268647E+02 -0.72250539136E+03  0.72774618210E+03  0.80417224755E+02 0.  0.
         25    2    1    2    0    0  0.47200375685E+01  0.49676968290E+01 -0.39513499231E+03  0.41452022885E+03  0.12509356984E+03 0.  0.
         24    2    1    2    0    0 -0.14962330629E+02 -0.37039965476E+02 -0.34763062688E+02  0.97264210803E+02  0.81584470308E+02 0.  0.
        -13    1    5    5    0    0  0.28612943308E+02 -0.36654486373E+02 -0.24221737366E+02  0.52430377235E+02  0.00000000000E+00 0.  1.
         14    1    5    5    0    0 -0.43575273937E+02 -0.38547910312E+00 -0.10541325323E+02  0.44833833568E+02  0.00000000000E+00 0. -1.
         13    1    3    3    0    0 -0.77563919646E+01  0.16791095457E+02 -0.66908568617E+03  0.66934128659E+03  0.00000000000E+00 0. -1.
        -14    1    3    3    0    0  0.17998685025E+02  0.15281173190E+02 -0.53419705192E+02  0.58404895510E+02  0.00000000000E+00 0.  1.
          5    1    4    4  501    0 -0.26914316716E+02 -0.51306483568E+02 -0.14620672953E+03  0.15732328455E+03  0.41800000000E+01 0.  1.
         -5    1    4    4    0  501  0.31634354284E+02  0.56274180397E+02 -0.24892826277E+03  0.25719694430E+03  0.41800000000E+01 0.  1.
</event>
<event>
11    1  0.1002087E-008  0.7593514E+03  0.7561462E-02  0.8949140E-01
         22   -1    0    0    0    0  0.00000000000E+00  0.00000000000E+00  0.93803820907E+03  0.93803820907E+03  0.00000000000E+00 0.  1.
         22   -1    0    0    0    0 -0.00000000000E+00 -0.00000000000E+00 -0.15367566287E+03  0.15367566287E+03  0.00000000000E+00 0.  1.
         24    2    1    2    0    0 -0.11670490780E+03  0.25540578570E+02  0.18584944570E+03  0.23525256806E+03  0.80817062877E+02 0.  0.
         25    2    1    2    0    0  0.27596551507E+03 -0.14483486463E+03  0.16783368171E+03  0.37543263213E+03  0.12508961999E+03 0.  0.
        -24    2    1    2    0    0 -0.15926060726E+03  0.11929428606E+03  0.43067941879E+03  0.48102867175E+03  0.79427662482E+02 0.  0.
        -13    1    3    3    0    0  0.68459487598E+01 -0.10223336096E+02  0.34514922017E+02  0.36642372429E+02  0.00000000000E+00 0.  1.
         14    1    3    3    0    0 -0.12355085656E+03  0.35763914666E+02  0.15133452368E+03  0.19861019563E+03  0.00000000000E+00 0. -1.
         13    1    5    5    0    0 -0.15843288140E+03  0.10907128590E+03  0.34718554158E+03  0.39690719771E+03  0.00000000000E+00 0. -1.
        -14    1    5    5    0    0 -0.82772585752E+00  0.10223000163E+02  0.83493877213E+02  0.84121474039E+02  0.00000000000E+00 0.  1.
          5    1    4    4  501    0  0.17742301011E+03 -0.81079809503E+02  0.35182469838E+02  0.19826280188E+03  0.41800000000E+01 0. -1.
         -5    1    4    4    0  501  0.98542504952E+02 -0.63755055127E+02  0.13265121187E+03  0.17716983024E+03  0.41800000000E+01 0. -1.
</event>
<event>
11    1  0.1002087E-008  0.4772838E+03  0.7561462E-02  0.9445765E-01
         22   -1    0    0    0    0  0.00000000000E+00  0.00000000000E+00  0.48393490232E+03  0.48393490232E+03  0.00000000000E+00 0. -1.
         22   -1    0    0    0    0 -0.00000000000E+00 -0.00000000000E+00 -0.20225889912E+04  0.20225889912E+04  0.00000000000E+00 0.  1.
        -24    2    1    2    0    0 -0.33744413839E+02 -0.50535077680E+02 -0.86043116133E+03  0.86633018048E+03  0.80583613024E+02 0.  0.
         25    2    1    2    0    0 -0.38032121766E+03  0.25418164723E+03 -0.97634206073E+03  0.10854232662E+04  0.12508920386E+03 0.  0.
         24    2    1    2    0    0  0.41406563150E+03 -0.20364656955E+03  0.29811913322E+03  0.55477044676E+03  0.77284917893E+02 0.  0.
        -11    1    5    5    0    0  0.56202738897E+02 -0.61586566894E+01  0.18303657177E+02  0.59428114372E+02  0.00000000000E+00 0.  1.
         12    1    5    5    0    0  0.35786289260E+03 -0.19748791286E+03  0.27981547604E+03  0.49534233239E+03  0.00000000000E+00 0. -1.
         11    1    3    3    0    0 -0.49568627241E+02 -0.46079729092E+02 -0.81847373161E+03  0.82126709394E+03  0.00000000000E+00 0. -1.
        -12    1    3    3    0    0  0.15824213402E+02 -0.44553485886E+01 -0.41957429712E+02  0.45063086544E+02  0.00000000000E+00 0.  1.
          5    1    4    4  501    0 -0.76308244192E+02  0.30403739085E+02 -0.89388020388E+02  0.12147026826E+03  0.41800000000E+01 0.  1.
         -5    1    4    4    0  501 -0.30401297347E+03  0.22377790815E+03 -0.88695404034E+03  0.96395299796E+03  0.41800000000E+01 0.  1.
</event>
<event>
11    1  0.1002087E-008  0.1264351E+03  0.7561462E-02  0.1123728E+00
         22   -1    0    0    0    0  0.00000000000E+00  0.00000000000E+00  0.42392650514E+03  0.42392650514E+03  0.00000000000E+00 0.  1.
         22   -1    0    0    0    0 -0.00000000000E+00 -0.00000000000E+00 -0.76744588360E+03  0.76744588360E+03  0.00000000000E+00 0.  1.
        -24    2    1    2    0    0 -0.96475329491E+01 -0.15221967418E+02 -0.69967224695E+03  0.70457284124E+03  0.80974392701E+02 0.  0.
         25    2    1    2    0    0  0.22765063321E+02  0.19565074956E+02  0.76924125945E+01  0.12887083928E+03  0.12508988664E+03 0.  0.
         24    2    1    2    0    0 -0.13117530372E+02 -0.43431075383E+01  0.34846045590E+03  0.35792870822E+03  0.80606070849E+02 0.  0.
        -13    1    5    5    0    0  0.22156968159E+02  0.12235745481E+02  0.26041176094E+03  0.26163893048E+03  0.00000000000E+00 0.  1.
         14    1    5    5    0    0 -0.35274498531E+02 -0.16578853019E+02  0.88048694956E+02  0.96289777742E+02  0.00000000000E+00 0. -1.
         11    1    3    3    0    0 -0.25892963555E+02  0.19760228433E+02 -0.14742320895E+03  0.15097852405E+03  0.00000000000E+00 0. -1.
        -12    1    3    3    0    0  0.16245430606E+02 -0.34982195851E+02 -0.55224903800E+03  0.55359431718E+03  0.00000000000E+00 0.  1.
          5    1    4    4  501    0  0.55712888699E+01 -0.50216196305E+02 -0.15870538170E+02  0.53122989494E+02  0.41800000000E+01 0. -1.
         -5    1    4    4    0  501  0.17193774451E+02  0.69781271261E+02  0.23562950765E+02  0.75747849787E+02  0.41800000000E+01 0. -1.
</event>
<event>
11    1  0.1002087E-008  0.1775663E+03  0.7561462E-02  0.1071629E+00
         22   -1    0    0    0    0  0.00000000000E+00  0.00000000000E+00  0.53492504677E+03  0.53492504677E+03  0.00000000000E+00 0. -1.
         22   -1    0    0    0    0 -0.00000000000E+00 -0.00000000000E+00 -0.82028585427E+03  0.82028585427E+03  0.00000000000E+00 0.  1.
        -24    2    1    2    0    0 -0.93088895230E+01  0.40847203361E+02 -0.72572323491E+03  0.73151670658E+03  0.81776089795E+02 0.  0.
         25    2    1    2    0    0 -0.10269105503E+03  0.25254794679E+02  0.67354021820E+01  0.16393930867E+03  0.12508986309E+03 0.  0.
         24    2    1    2    0    0  0.11199994456E+03 -0.66101998040E+02  0.43362702524E+03  0.45975488579E+03  0.80179151056E+02 0.  0.
        -13    1    5    5    0    0  0.79679142776E+02 -0.50353647639E+02  0.17617587597E+03  0.19980539256E+03  0.00000000000E+00 0.  1.
         14    1    5    5    0    0  0.32320801781E+02 -0.15748350402E+02  0.25745114927E+03  0.25994949322E+03  0.00000000000E+00 0. -1.
         11    1    3    3    0    0  0.18029187391E+02  0.18865577451E+01 -0.37520418047E+02  0.41670042819E+02  0.00000000000E+00 0. -1.
        -12    1    3    3    0    0 -0.27338076914E+02  0.38960645616E+02 -0.68820281687E+03  0.68984666376E+03  0.00000000000E+00 0.  1.
          5    1    4    4  501    0 -0.40983650407E+02  0.62006864218E+02 -0.33358992190E+02  0.81576991675E+02  0.41800000000E+01 0. -1.
         -5    1    4    4    0  501 -0.61707404627E+02 -0.36752069539E+02  0.40094394372E+02  0.82362316998E+02  0.41800000000E+01 0. -1.
</event>
<event>
11    1  0.1002087E-008  0.1515884E+03  0.7561462E-02  0.1095267E+00
         22   -1    0    0    0    0  0.00000000000E+00  0.00000000000E+00  0.46682682027E+03  0.46682682027E+03  0.00000000000E+00 0.  1.
         22   -1    0    0    0    0 -0.00000000000E+00 -0.00000000000E+00 -0.37864453244E+03  0.37864453244E+03  0.00000000000E+00 0. -1.
        -24    2    1    2    0    0 -0.22217927958E+01  0.64769121558E+02 -0.31003802170E+03  0.32717343580E+03  0.81968937574E+02 0.  0.
         25    2    1    2    0    0  0.56138096257E+02 -0.11963562763E+03  0.11759992796E+03  0.21665853685E+03  0.12508800616E+03 0.  0.
         24    2    1    2    0    0 -0.53916303461E+02  0.54866506069E+02  0.28062038157E+03  0.30163938005E+03  0.79506073850E+02 0.  0.
        -11    1    5    5    0    0 -0.25978336724E+02  0.36775610059E+02  0.25678143532E+03  0.26069910816E+03  0.00000000000E+00 0.  1.
         12    1    5    5    0    0 -0.27937966737E+02  0.18090896009E+02  0.23838946252E+02  0.40940271887E+02  0.00000000000E+00 0. -1.
         11    1    3    3    0    0 -0.18419325360E+02  0.60688408563E+02 -0.11423992076E+03  0.13066412659E+03  0.00000000000E+00 0. -1.
        -12    1    3    3    0    0  0.16197532564E+02  0.40807129955E+01 -0.19579810093E+03  0.19650930922E+03  0.00000000000E+00 0.  1.
          5    1    4    4  501    0  0.76264333533E+01 -0.11121408828E+03  0.12404305023E+03  0.16682591714E+03  0.41800000000E+01 0.  1.
         -5    1    4    4    0  501  0.48511662903E+02 -0.84215393441E+01 -0.64431222768E+01  0.49832619711E+02  0.41800000000E+01 0.  1.
</event>
<event>
11    1  0.1002087E-008  0.1661484E+03  0.7561462E-02  0.1081433E+00
         22   -1    0    0    0    0  0.00000000000E+00  0.00000000000E+00  0.18835874080E+04  0.18835874080E+04  0.00000000000E+00 0. -1.
         22   -1    0    0    0    0 -0.00000000000E+00 -0.00000000000E+00 -0.74030000889E+02  0.74030000889E+02  0.00000000000E+00 0. -1.
         24    2    1    2    0    0 -0.18567788392E+02  0.57517641473E+02 -0.42527599099E+01  0.10021724759E+03  0.79827118839E+02 0.  0.
         25    2    1    2    0    0 -0.73012612958E+02  0.14771160299E+02  0.26682371567E+03  0.30395943281E+03  0.12508961877E+03 0.  0.
        -24    2    1    2    0    0  0.91580401350E+02 -0.72288801772E+02  0.15469864513E+04  0.15534407284E+04  0.79989846031E+02 0.  0.
        -11    1    3    3    0    0  0.12309884509E+02 -0.16116662795E+02 -0.99732467240E+00  0.20304549558E+02  0.00000000000E+00 0.  1.
         12    1    3    3    0    0 -0.30877672901E+02  0.73634304268E+02 -0.32554352375E+01  0.79912698036E+02  0.00000000000E+00 0. -1.
         13    1    5    5    0    0  0.10268117711E+03 -0.46911082244E+02  0.11677229315E+04  0.11731670463E+04  0.00000000000E+00 0. -1.
        -14    1    5    5    0    0 -0.11100775762E+02 -0.25377719528E+02  0.37926351985E+03  0.38027368218E+03  0.00000000000E+00 0.  1.
          5    1    4    4  501    0 -0.39505197887E+02  0.55768985188E+02  0.22829791220E+03  0.23834481216E+03  0.41800000000E+01 0. -1.
         -5    1    4    4    0  501 -0.33507415070E+02 -0.40997824888E+02  0.38525803467E+02  0.65614620650E+02  0.41800000000E+01 0. -1.
</event>
<event>
11    1  0.1002087E-008  0.1575321E+03  0.7561462E-02  0.1089422E+00
         22   -1    0    0    0    0  0.00000000000E+00  0.00000000000E+00  0.32976564200E+03  0.32976564200E+03  0.00000000000E+00 0.  1.
         22   -1    0    0    0    0 -0.00000000000E+00 -0.00000000000E+00 -0.13606171856E+04  0.13606171856E+04  0.00000000000E+00 0.  1.
         24    2    1    2    0    0  0.25229704307E+02  0.93897984330E+02 -0.12421974890E+04  0.12484670327E+04  0.78498156822E+02 0.  0.
         25    2    1    2    0    0 -0.58250411868E+02 -0.57101562822E+02 -0.52734474630E+02  0.15837836782E+03  0.12509629738E+03 0.  0.
        -24    2    1    2    0    0  0.33020707562E+02 -0.36796421508E+02  0.26408042000E+03  0.28353742711E+03  0.90612695492E+02 0.  0.
        -13    1    3    3    0    0  0.16987392253E+02  0.47298879410E+02 -0.10223302641E+04  0.10235648120E+04  0.00000000000E+00 0.  1.
         14    1    3    3    0    0  0.82423120534E+01  0.46599104919E+02 -0.21986722492E+03  0.22490222071E+03  0.00000000000E+00 0. -1.
         13    1    5    5    0    0 -0.40515230941E+01 -0.26826894315E+02  0.14004977082E+02  0.30532547896E+02  0.00000000000E+00 0. -1.
        -14    1    5    5    0    0  0.37072230656E+02 -0.99695271931E+01  0.25007544291E+03  0.25300487922E+03  0.00000000000E+00 0.  1.
          5    1    4    4  501    0 -0.13204853955E+02 -0.66728335666E+01 -0.82832052453E+02  0.84246757738E+02  0.41800000000E+01 0.  1.
         -5    1    4    4    0  501 -0.45045557913E+02 -0.50428729255E+02  0.30097577824E+02  0.74131610079E+02  0.41800000000E+01 0.  1.
</event>
<event>
11    1  0.1002087E-008  0.1777164E+03  0.7561462E-02  0.1071505E+00
         22   -1    0    0    0    0  0.00000000000E+00  0.00000000000E+00  0.25514573200E+04  0.25514573200E+04  0.00000000000E+00 0. -1.
         22   -1    0    0    0    0 -0.00000000000E+00 -0.00000000000E+00 -0.17303436086E+03  0.17303436086E+03  0.00000000000E+00 0. -1.
        -24    2    1    2    0    0  0.16688070698E+02  0.18004696699E+02 -0.13660641234E+03  0.16086215762E+03  0.81318270116E+02 0.  0.
         25    2    1    2    0    0 -0.96661540051E+02  0.80100951275E+02  0.33987280460E+03  0.38330251482E+03  0.12509068246E+03 0.  0.
         24    2    1    2    0    0  0.79973469354E+02 -0.98105647974E+02  0.21751565669E+04  0.21803270084E+04  0.80618231808E+02 0.  0.
        -13    1    5    5    0    0  0.28967134890E+01 -0.30434625517E+02  0.18335301046E+03  0.18588432915E+03  0.00000000000E+00 0.  1.
         14    1    5    5    0    0  0.77076755864E+02 -0.67671022457E+02  0.19918035564E+04  0.19944426793E+04  0.00000000000E+00 0. -1.
         11    1    3    3    0    0  0.14979321052E+02  0.35355995122E+02 -0.13812304024E+03  0.14336108501E+03  0.00000000000E+00 0. -1.
        -12    1    3    3    0    0  0.17087496454E+01 -0.17351298423E+02  0.15166278988E+01  0.17501072610E+02  0.00000000000E+00 0.  1.
          5    1    4    4  501    0 -0.10897736529E+03  0.99448499350E+02  0.24871066976E+03  0.28920674235E+03  0.41800000000E+01 0.  1.
         -5    1    4    4    0  501  0.12315825237E+02 -0.19347548075E+02  0.91162134837E+02  0.94095772465E+02  0.41800000000E+01 0.  1.
</event>
<event>
11    1  0.1002087E-008  0.1295750E+03  0.7561462E-02  0.1119792E+00
         22   -1    0    0    0    0  0.00000000000E+00  0.00000000000E+00  0.51624019064E+03  0.51624019064E+03  0.00000000000E+00 0. -1.
         22   -1    0    0    0    0 -0.00000000000E+00 -0.00000000000E+00 -0.99690594797E+03  0.99690594797E+03  0.00000000000E+00 0.  1.
         24    2    1    2    0    0 -0.34853389915E+02  0.90123102538E+01 -0.75121242407E+03  0.75668640369E+03  0.83415987205E+02 0.  0.
         25    2    1    2    0    0  0.22612623572E+02  0.11026840283E+02 -0.22244437758E+03  0.25644868606E+03  0.12510597714E+03 0.  0.
        -24    2    1    2    0    0  0.12240766343E+02 -0.20039150537E+02  0.49299104432E+03  0.50001104886E+03  0.80121628067E+02 0.  0.
        -11    1    3    3    0    0 -0.34025015289E+02 -0.32733770601E+02 -0.47422149582E+03  0.47656607989E+03  0.00000000000E+00 0.  1.
         12    1    3    3    0    0 -0.82837462633E+00  0.41746080855E+02 -0.27699092825E+03  0.28012032380E+03  0.00000000000E+00 0. -1.
         11    1    5    5    0    0  0.43269165723E+02  0.10178293352E+01  0.32606154405E+03  0.32892155173E+03  0.00000000000E+00 0. -1.
        -12    1    5    5    0    0 -0.31028399380E+02 -0.21056979872E+02  0.16692950027E+03  0.17108949713E+03  0.00000000000E+00 0.  1.
          5    1    4    4  501    0 -0.17159936699E+02 -0.50760188619E+02 -0.85789156519E+02  0.10123394664E+03  0.41800000000E+01 0.  1.
         -5    1    4    4    0  501  0.39772560271E+02  0.61787028902E+02 -0.13665522106E+03  0.15521473942E+03  0.41800000000E+01 0.  1.
</event>
<event>
11    1  0.1002087E-008  0.1462641E+03  0.7561462E-02  0.1100758E+00
         22   -1    0    0    0    0  0.00000000000E+00  0.00000000000E+00  0.39672633520E+03  0.39672633520E+03  0.00000000000E+00 0. -1.
         22   -1    0    0    0    0 -0.00000000000E+00 -0.00000000000E+00 -0.57323129099E+03  0.57323129099E+03  0.00000000000E+00 0.  1.
        -24    2    1    2    0    0  0.75252276609E+02 -0.73809323386E+01 -0.44740951550E+03  0.46071888760E+03  0.79807490499E+02 0.  0.
         25    2    1    2    0    0 -0.70445869529E+02  0.55410566781E+02 -0.60107222891E+02  0.16520840620E+03  0.12509191736E+03 0.  0.
         24    2    1    2    0    0 -0.48064070796E+01 -0.48029634443E+02  0.33101178260E+03  0.34403033239E+03  0.80362441808E+02 0.  0.
        -11    1    5    5    0    0  0.15586710243E+02 -0.12238318737E+02  0.13785068391E+02  0.24140217320E+02  0.00000000000E+00 0.  1.
         12    1    5    5    0    0 -0.20393117323E+02 -0.35791315706E+02  0.31722671421E+03  0.31989011507E+03  0.00000000000E+00 0. -1.
         13    1    3    3    0    0  0.43795863313E+01 -0.42434872636E+01  0.14660236898E+01  0.62719363874E+01  0.00000000000E+00 0. -1.
        -14    1    3    3    0    0  0.70872690278E+02 -0.31374450751E+01 -0.44887553919E+03  0.45444695122E+03  0.00000000000E+00 0.  1.
          5    1    4    4  501    0 -0.53606774940E+02 -0.33322403540E+02 -0.29054827228E+02  0.69611236754E+02  0.41800000000E+01 0.  1.
         -5    1    4    4    0  501 -0.16839094589E+02  0.88732970322E+02 -0.31052395663E+02  0.95597169441E+02  0.41800000000E+01 0.  1.
</event>
<event>
11    1  0.1002087E-008  0.1601000E+03  0.7561462E-02  0.1086983E+00
         22   -1    0    0    0    0  0.00000000000E+00  0.00000000000E+00  0.26558478067E+03  0.26558478067E+03  0.00000000000E+00 0. -1.
         22   -1    0    0    0    0 -0.00000000000E+00 -0.00000000000E+00 -0.19280409829E+04  0.19280409829E+04  0.00000000000E+00 0. -1.
         24    2    1    2    0    0  0.24575071366E+01 -0.98085827771E+02 -0.16678915638E+04  0.16726745690E+04  0.79693640581E+02 0.  0.
         25    2    1    2    0    0  0.54352760426E+02  0.12687727431E+03 -0.21101668737E+03  0.28147389673E+03  0.12508975533E+03 0.  0.
        -24    2    1    2    0    0 -0.56810267563E+02 -0.28791446539E+02  0.21645204893E+03  0.23947729782E+03  0.80259160158E+02 0.  0.
        -11    1    3    3    0    0  0.38426049580E+02 -0.29213356057E+02 -0.70786666136E+03  0.70951052967E+03  0.00000000000E+00 0.  1.
         12    1    3    3    0    0 -0.35968542444E+02 -0.68872471714E+02 -0.96002490244E+03  0.96316403936E+03  0.00000000000E+00 0. -1.
         11    1    5    5    0    0 -0.96207076653E+01 -0.49407141238E+02  0.12024162450E+03  0.13035210732E+03  0.00000000000E+00 0. -1.
        -12    1    5    5    0    0 -0.47189559897E+02  0.20615694699E+02  0.96210424432E+02  0.10912519049E+03  0.00000000000E+00 0.  1.
          5    1    4    4  501    0 -0.18880031449E+02  0.94332194545E+02 -0.15885988891E+03  0.18576586128E+03  0.41800000000E+01 0. -1.
         -5    1    4    4    0  501  0.73232791875E+02  0.32545079765E+02 -0.52156798469E+02  0.95708035448E+02  0.41800000000E+01 0. -1.
</event>
<event>
11    1  0.1002087E-008  0.1505845E+03  0.7561462E-02  0.1096283E+00
         22   -1    0    0    0    0  0.00000000000E+00  0.00000000000E+00  0.25399411920E+03  0.25399411920E+03  0.00000000000E+00 0.  1.
         22   -1    0    0    0    0 -0.00000000000E+00 -0.00000000000E+00 -0.50843193703E+03  0.50843193703E+03  0.00000000000E+00 0.  1.
         24    2    1    2    0    0 -0.26893543098E+02  0.81870369109E+02 -0.43490947368E+03  0.45067634925E+03  0.80851106892E+02 0.  0.
         25    2    1    2    0    0 -0.11135140610E+02 -0.62028831406E+02  0.42366063657E+02  0.14633329465E+03  0.12508789906E+03 0.  0.
        -24    2    1    2    0    0  0.38028683708E+02 -0.19841537703E+02  0.13810559219E+03  0.16541641233E+03  0.80309199162E+02 0.  0.
        -13    1    3    3    0    0 -0.22979485070E+02  0.96102820649E+02 -0.40984524992E+03  0.42158858826E+03  0.00000000000E+00 0.  1.
         14    1    3    3    0    0 -0.39140580278E+01 -0.14232451540E+02 -0.25064223758E+02  0.29087760994E+02  0.00000000000E+00 0. -1.
         13    1    5    5    0    0  0.23219784066E+02 -0.32044461598E+02  0.17458420679E+02  0.43252772672E+02  0.00000000000E+00 0. -1.
        -14    1    5    5    0    0  0.14808899641E+02  0.12202923895E+02  0.12064717151E+03  0.12216363966E+03  0.00000000000E+00 0.  1.
          5    1    4    4  501    0 -0.20549239925E+02  0.32820576811E+01  0.71130044581E+02  0.74229366198E+02  0.41800000000E+01 0. -1.
         -5    1    4    4    0  501  0.94140993157E+01 -0.65310889087E+02 -0.28763980923E+02  0.72103928449E+02  0.41800000000E+01 0. -1.
</event>
<event>
11    1  0.1002087E-008  0.2345618E+03  0.7561462E-02  0.1032461E+00
         22   -1    0    0    0    0  0.00000000000E+00  0.00000000000E+00  0.45601598531E+03  0.45601598531E+03  0.00000000000E+00 0. -1.
         22   -1    0    0    0    0 -0.00000000000E+00 -0.00000000000E+00 -0.15659863235E+04  0.15659863235E+04  0.00000000000E+00 0.  1.
        -24    2    1    2    0    0  0.45582829238E+02 -0.85828382352E+02 -0.91143049514E+03  0.92029019406E+03  0.82366184001E+02 0.  0.
         25    2    1    2    0    0 -0.15571045020E+03  0.24606460843E+03 -0.58296890018E+03  0.66354651871E+03  0.12509079940E+03 0.  0.
         24    2    1    2    0    0  0.11012762097E+03 -0.16023622607E+03  0.38442905710E+03  0.43816559608E+03  0.79997803733E+02 0.  0.
        -11    1    5    5    0    0  0.81743293388E+01 -0.79563696842E+02  0.15698509166E+03  0.17618603951E+03  0.00000000000E+00 0.  1.
         12    1    5    5    0    0  0.10195329163E+03 -0.80672529232E+02  0.22744396544E+03  0.26197955657E+03  0.00000000000E+00 0. -1.
         13    1    3    3    0    0 -0.51293715021E+00  0.12666580849E+02 -0.21953348718E+03  0.21989919820E+03  0.00000000000E+00 0. -1.
        -14    1    3    3    0    0  0.46095766388E+02 -0.98494963201E+02 -0.69189700796E+03  0.70039099586E+03  0.00000000000E+00 0.  1.
          5    1    4    4  501    0 -0.72650205611E+02  0.19771986138E+02 -0.12466133925E+03  0.14569456309E+03  0.41800000000E+01 0.  1.
         -5    1    4    4    0  501 -0.83060244594E+02  0.22629262229E+03 -0.45830756093E+03  0.51785195562E+03  0.41800000000E+01 0.  1.
</event>
<event>
11    1  0.1002087E-008  0.1510994E+03  0.7561462E-02  0.1095761E+00
         22   -1    0    0    0    0  0.00000000000E+00  0.00000000000E+00  0.14722776857E+04  0.14722776857E+04  0.00000000000E+00 0.  1.
         22   -1    0    0    0    0 -0.00000000000E+00 -0.00000000000E+00 -0.14440614293E+04  0.14440614293E+04  0.00000000000E+00 0. -1.
        -24    2    1    2    0    0  0.49487063029E+02  0.67409352572E+02 -0.13452548584E+04  0.13497848754E+04  0.72219010697E+02 0.  0.
         25    2    1    2    0    0 -0.11270317517E+03 -0.77483413692E+02 -0.38883764780E+01  0.18539411662E+03  0.12510065513E+03 0.  0.
         24    2    1    2    0    0  0.63216112141E+02  0.10074061120E+02  0.13773594913E+04  0.13811601231E+04  0.79914665702E+02 0.  0.
        -13    1    5    5    0    0  0.35439906830E+02  0.38662982422E+02  0.10615788346E+04  0.10628736686E+04  0.00000000000E+00 0.  1.
         14    1    5    5    0    0  0.27776205311E+02 -0.28588921302E+02  0.31578065663E+03  0.31828645448E+03  0.00000000000E+00 0. -1.
         11    1    3    3    0    0  0.60872903738E+02  0.63656574911E+02 -0.12996341634E+04  0.13026153034E+04  0.00000000000E+00 0. -1.
        -12    1    3    3    0    0 -0.11385840710E+02  0.37527776612E+01 -0.45620695004E+02  0.47169571988E+02  0.00000000000E+00 0.  1.
          5    1    4    4  501    0 -0.46333574379E+02 -0.76800275457E+02 -0.51584243862E+02  0.10355428064E+03  0.41800000000E+01 0.  1.
         -5    1    4    4    0  501 -0.66369600791E+02 -0.68313823418E+00  0.47695867384E+02  0.81839835976E+02  0.41800000000E+01 0.  1.
</event>
<event>
11    1  0.1002087E-008  0.3477640E+03  0.7561462E-02  0.9817849E-01
         22   -1    0    0    0    0  0.00000000000E+00  0.00000000000E+00  0.12984072723E+04  0.12984072723E+04  0.00000000000E+00 0.  1.
         22   -1    0    0    0    0 -0.00000000000E+00 -0.00000000000E+00 -0.32044885861E+03  0.32044885861E+03  0.00000000000E+00 0.  1.
        -24    2    1    2    0    0  0.21487535329E+01  0.32408836590E+03 -0.14638524881E+03  0.36458605436E+03  0.80352124502E+02 0.  0.
         25    2    1    2    0    0 -0.66267873900E+02 -0.32479841591E+03  0.45442418388E+03  0.57622447335E+03  0.12509141740E+03 0.  0.
         24    2    1    2    0    0  0.64119120367E+02  0.71005000775E+00  0.66991947867E+03  0.67804560324E+03  0.82716179894E+02 0.  0.
        -13    1    5    5    0    0  0.45893191710E+02  0.75123893048E+01  0.64380039683E+03  0.64547778583E+03  0.00000000000E+00 0.  1.
         14    1    5    5    0    0  0.18225928657E+02 -0.68023392971E+01  0.26119081830E+02  0.32567817412E+02  0.00000000000E+00 0. -1.
         13    1    3    3    0    0  0.58687375147E+01  0.25662070676E+02  0.93646442644E+01  0.27940660579E+02  0.00000000000E+00 0. -1.
        -14    1    3    3    0    0 -0.37199839819E+01  0.29842629522E+03 -0.15574989308E+03  0.33664539378E+03  0.00000000000E+00 0.  1.
          5    1    4    4  501    0 -0.60620495012E+02 -0.27925723949E+03  0.29690558364E+03  0.41210417157E+03  0.41800000000E+01 0. -1.
         -5    1    4    4    0  501 -0.56473788883E+01 -0.45541176413E+02  0.15751860023E+03  0.16412030178E+03  0.41800000000E+01 0. -1.
</event>
<event>
11    1  0.1002087E-008  0.1580368E+03  0.7561462E-02  0.1088938E+00
         22   -1    0    0    0    0  0.00000000000E+00  0.00000000000E+00  0.21846750466E+04  0.21846750466E+04  0.00000000000E+00 0. -1.
         22   -1    0    0    0    0 -0.00000000000E+00 -0.00000000000E+00 -0.85438437728E+03  0.85438437728E+03  0.00000000000E+00 0. -1.
        -24    2    1    2    0    0  0.67589092875E+02  0.14954242229E+02 -0.78514027003E+03  0.79222601427E+03  0.79905564429E+02 0.  0.
         25    2    1    2    0    0 -0.17392534898E+02  0.69229388409E+02  0.17729071168E+02  0.14511530307E+03  0.12509565432E+03 0.  0.
         24    2    1    2    0    0 -0.50196557977E+02 -0.84183630638E+02  0.20977018682E+04  0.21017181065E+04  0.85201487360E+02 0.  0.
        -11    1    5    5    0    0  0.12339162258E+02 -0.11220745110E+02  0.79540593785E+02  0.81270327338E+02  0.00000000000E+00 0.  1.
         12    1    5    5    0    0 -0.62535720235E+02 -0.72962885528E+02  0.20181612744E+04  0.20204477792E+04  0.00000000000E+00 0. -1.
         11    1    3    3    0    0  0.52722068893E+02  0.16365002841E+02 -0.76581932300E+03  0.76780639835E+03  0.00000000000E+00 0. -1.
        -12    1    3    3    0    0  0.14867023982E+02 -0.14107606120E+01 -0.19320947033E+02  0.24419615923E+02  0.00000000000E+00 0.  1.
          5    1    4    4  501    0 -0.70020364744E+02  0.51976682320E+02  0.17489608185E+01  0.87321006911E+02  0.41800000000E+01 0. -1.
         -5    1    4    4    0  501  0.52627829846E+02  0.17252706089E+02  0.15980110349E+02  0.57794296159E+02  0.41800000000E+01 0. -1.
</event>
<event>
11    1  0.1002087E-008  0.7694308E+03  0.7561462E-02  0.8935811E-01
         22   -1    0    0    0    0  0.00000000000E+00  0.00000000000E+00  0.11254061166E+04  0.11254061166E+04  0.00000000000E+00 0. -1.
         22   -1    0    0    0    0 -0.00000000000E+00 -0.00000000000E+00 -0.37342698442E+04  0.37342698442E+04  0.00000000000E+00 0. -1.
         24    2    1    2    0    0  0.72499059765E+03 -0.22427445601E+03 -0.34966575329E+04  0.35789621383E+04  0.80285034459E+02 0.  0.
         25    2    1    2    0    0 -0.76318899203E+03  0.12515159393E+03  0.80670470214E+03  0.11245179966E+04  0.12509152345E+03 0.  0.
        -24    2    1    2    0    0  0.38198394387E+02  0.99122862082E+02  0.81089103170E+02  0.15619582593E+03  0.80853164835E+02 0.  0.
        -13    1    3    3    0    0  0.21834405193E+03 -0.34138722955E+02 -0.93363315579E+03  0.95943235666E+03  0.00000000000E+00 0.  1.
         14    1    3    3    0    0  0.50664654571E+03 -0.19013573306E+03 -0.25630243771E+04  0.26195297816E+04  0.00000000000E+00 0. -1.
         11    1    5    5    0    0  0.36848550250E+02  0.10692701335E+03  0.49197152448E+02  0.12333515982E+03  0.00000000000E+00 0. -1.
        -12    1    5    5    0    0  0.13498441370E+01 -0.78041512669E+01  0.31891950722E+02  0.32860666108E+02  0.00000000000E+00 0.  1.
          5    1    4    4  501    0 -0.41505624403E+03  0.14526359535E+02  0.47634053341E+03  0.63198138975E+03  0.41800000000E+01 0. -1.
         -5    1    4    4    0  501 -0.34813274801E+03  0.11062523440E+03  0.33036416873E+03  0.49253660686E+03  0.41800000000E+01 0. -1.
</event>
<event>
11    1  0.1002087E-008  0.1409384E+03  0.7561462E-02  0.1106515E+00
         22   -1    0    0    0    0  0.00000000000E+00  0.00000000000E+00  0.10324430964E+04  0.10324430964E+04  0.00000000000E+00 0.  1.
         22   -1    0    0    0    0 -0.00000000000E+00 -0.00000000000E+00 -0.15361466530E+03  0.15361466530E+03  0.00000000000E+00 0.  1.
         24    2    1    2    0    0  0.11950054985E+02  0.30192342337E+01 -0.10529588809E+03  0.13431081405E+03  0.82463635214E+02 0.  0.
         25    2    1    2    0    0  0.39633667478E+02  0.38042857863E+02  0.12072737536E+03  0.18232023354E+03  0.12508989474E+03 0.  0.
        -24    2    1    2    0    0 -0.51583722462E+02 -0.41062092097E+02  0.86339694386E+03  0.86942671414E+03  0.78112436587E+02 0.  0.
        -11    1    3    3    0    0 -0.26735271899E+02 -0.14672560742E+01 -0.87477416955E+02  0.91483474361E+02  0.00000000000E+00 0.  1.
         12    1    3    3    0    0  0.38685326884E+02  0.44864903079E+01 -0.17818471137E+02  0.42827339692E+02  0.00000000000E+00 0. -1.
         13    1    5    5    0    0 -0.31565817759E+02 -0.21543973813E+02  0.13010121875E+03  0.13559819608E+03  0.00000000000E+00 0. -1.
        -14    1    5    5    0    0 -0.20017904703E+02 -0.19518118284E+02  0.73329572511E+03  0.73382851806E+03  0.00000000000E+00 0.  1.
          5    1    4    4  501    0 -0.87660047685E+01  0.74590558922E+02  0.58157956854E+02  0.95081095205E+02  0.41800000000E+01 0.  1.
         -5    1    4    4    0  501  0.48399672246E+02 -0.36547701058E+02  0.62569418501E+02  0.87239138336E+02  0.41800000000E+01 0.  1.
</event>
<event>
11    1  0.1002087E-008  0.1626491E+03  0.7561462E-02  0.1084612E+00
         22   -1    0    0    0    0  0.00000000000E+00  0.00000000000E+00  0.10074472282E+04  0.10074472282E+04  0.00000000000E+00 0. -1.
         22   -1    0    0    0    0 -0.00000000000E+00 -0.00000000000E+00 -0.29556537867E+03  0.29556537867E+03  0.00000000000E+00 0. -1.
         24    2    1    2    0    0  0.28644745292E+02 -0.97381196941E+02 -0.24575278278E+03  0.27773993137E+03  0.80258459253E+02 0.  0.
         25    2    1    2    0    0 -0.31210559985E+02  0.15104523865E+03  0.29429406139E+03  0.35502801730E+03  0.12508850997E+03 0.  0.
        -24    2    1    2    0    0  0.25658146924E+01 -0.53664041706E+02  0.66334057090E+03  0.67024465817E+03  0.79503308241E+02 0.  0.
        -11    1    3    3    0    0  0.19985507075E+00  0.47719042540E+01  0.41138567144E+01  0.63035568788E+01  0.00000000000E+00 0.  1.
         12    1    3    3    0    0  0.28444890221E+02 -0.10215310120E+03 -0.24986663950E+03  0.27143637449E+03  0.00000000000E+00 0. -1.
         11    1    5    5    0    0 -0.19214786428E+02 -0.63791019054E+02  0.56930144716E+03  0.57318639191E+03  0.00000000000E+00 0. -1.
        -12    1    5    5    0    0  0.21780601121E+02  0.10126977348E+02  0.94039123746E+02  0.97058266265E+02  0.00000000000E+00 0.  1.
          5    1    4    4  501    0  0.21256006104E+02  0.12970366091E+03  0.25188982805E+03  0.28414928352E+03  0.41800000000E+01 0. -1.
         -5    1    4    4    0  501 -0.52466566089E+02  0.21341577738E+02  0.42404233340E+02  0.70878733782E+02  0.41800000000E+01 0. -1.
</event>
<event>
11    1  0.1002087E-008  0.1670002E+03  0.7561462E-02  0.1080672E+00
         22   -1    0    0    0    0  0.00000000000E+00  0.00000000000E+00  0.30974394061E+03  0.30974394061E+03  0.00000000000E+00 0.  1.
         22   -1    0    0    0    0 -0.00000000000E+00 -0.00000000000E+00 -0.98672832395E+03  0.98672832395E+03  0.00000000000E+00 0. -1.
        -24    2    1    2    0    0 -0.10361269031E+03  0.45297975865E+02 -0.75298280287E+03  0.76581357890E+03  0.81852550367E+02 0.  0.
         25    2    1    2    0    0  0.93284430782E+02 -0.35402017170E+02 -0.19223332837E+03  0.25010969413E+03  0.12508364687E+03 0.  0.
         24    2    1    2    0    0  0.10328259529E+02 -0.98959586946E+01  0.26823174790E+03  0.28054899153E+03  0.80962109193E+02 0.  0.
        -11    1    5    5    0    0 -0.25794546140E+01  0.25029951798E+02  0.20952055086E+03  0.21102609627E+03  0.00000000000E+00 0.  1.
         12    1    5    5    0    0  0.12907714143E+02 -0.34925910493E+02  0.58711197041E+02  0.69522895266E+02  0.00000000000E+00 0. -1.
         11    1    3    3    0    0 -0.79790981974E+02  0.40018608020E+02 -0.71577137023E+03  0.72131598086E+03  0.00000000000E+00 0. -1.
        -12    1    3    3    0    0 -0.23821708337E+02  0.52793678451E+01 -0.37211432632E+02  0.44497598041E+02  0.00000000000E+00 0.  1.
          5    1    4    4  501    0  0.11947420449E+03 -0.50118961103E+02 -0.15806586462E+03  0.20442183289E+03  0.41800000000E+01 0. -1.
         -5    1    4    4    0  501 -0.26189773712E+02  0.14716943933E+02 -0.34167463749E+02  0.45687861242E+02  0.41800000000E+01 0. -1.
</event>
<event>
11    1  0.1002087E-008  0.1987994E+03  0.7561462E-02  0.1055376E+00
         22   -1    0    0    0    0  0.00000000000E+00  0.00000000000E+00  0.11752938738E+04  0.11752938738E+04  0.00000000000E+00 0.  1.
         22   -1    0    0    0    0 -0.00000000000E+00 -0.00000000000E+00 -0.87550324433E+03  0.87550324433E+03  0.00000000000E+00 0.  1.
         24    2    1    2    0    0 -0.10001918425E+03 -0.55471587433E+01 -0.75959747596E+03  0.77036817378E+03  0.80275709332E+02 0.  0.
         25    2    1    2    0    0  0.24802594033E+03  0.29514930865E+01  0.83325466448E+02  0.29002811416E+03  0.12509034835E+03 0.  0.
        -24    2    1    2    0    0 -0.14800675609E+03  0.25956656567E+01  0.97606263895E+03  0.99040083016E+03  0.79264064446E+02 0.  0.
        -13    1    3    3    0    0 -0.66055538587E+02 -0.55005531653E+01 -0.68731709875E+03  0.69050589027E+03  0.00000000000E+00 0.  1.
         14    1    3    3    0    0 -0.33963645660E+02 -0.46605577970E-01 -0.72280377204E+02  0.79862283510E+02  0.00000000000E+00 0. -1.
         11    1    5    5    0    0  0.34133445356E+01 -0.15013008826E+02  0.98662829073E+02  0.99856873553E+02  0.00000000000E+00 0. -1.
        -12    1    5    5    0    0 -0.15142010062E+03  0.17608674483E+02  0.87739980987E+03  0.89054395661E+03  0.00000000000E+00 0.  1.
          5    1    4    4  501    0  0.93630034419E+02 -0.29165479587E+02  0.88534726435E+02  0.13218577355E+03  0.41800000000E+01 0.  1.
         -5    1    4    4    0  501  0.15439590592E+03  0.32116972674E+02 -0.52092599874E+01  0.15784234060E+03  0.41800000000E+01 0.  1.
</event>
<event>
11    1  0.1002087E-008  0.1396292E+03  0.7561462E-02  0.1107973E+00
         22   -1    0    0    0    0  0.00000000000E+00  0.00000000000E+00  0.57044939641E+03  0.57044939641E+03  0.00000000000E+00 0.  1.
         22   -1    0    0    0    0 -0.00000000000E+00 -0.00000000000E+00 -0.19180300186E+04  0.19180300186E+04  0.00000000000E+00 0.  1.
        -24    2    1    2    0    0 -0.21493942240E+02  0.17789046238E+02 -0.18699804386E+04  0.18719083623E+04  0.80222417488E+02 0.  0.
         25    2    1    2    0    0  0.60273523823E+02 -0.61861665090E+02  0.98249474880E+02  0.18099387436E+03  0.12508421147E+03 0.  0.
         24    2    1    2    0    0 -0.38779581583E+02  0.44072618852E+02  0.42415034159E+03  0.43557717832E+03  0.79860593083E+02 0.  0.
        -13    1    5    5    0    0 -0.40500587488E+02  0.37803652034E+02  0.42537007324E+03  0.42896283394E+03  0.00000000000E+00 0.  1.
         14    1    5    5    0    0  0.17210059044E+01  0.62689668184E+01 -0.12197316543E+01  0.66143443819E+01  0.00000000000E+00 0. -1.
         11    1    3    3    0    0 -0.57195503033E+01 -0.22933828271E+02 -0.20545518135E+03  0.20681031231E+03  0.00000000000E+00 0. -1.
        -12    1    3    3    0    0 -0.15774391937E+02  0.40722874509E+02 -0.16645252573E+04  0.16650980500E+04  0.00000000000E+00 0.  1.
          5    1    4    4  501    0  0.43446740321E+01  0.31676051343E+02 -0.27315076073E+01  0.32360190898E+02  0.41800000000E+01 0. -1.
         -5    1    4    4    0  501  0.55928849791E+02 -0.93537716434E+02  0.10098098249E+03  0.14863368346E+03  0.41800000000E+01 0. -1.
</event>
<event>
11    1  0.1002087E-008  0.3122553E+03  0.7561462E-02  0.9951339E-01
         22   -1    0    0    0    0  0.00000000000E+00  0.00000000000E+00  0.65420609613E+03  0.65420609613E+03  0.00000000000E+00 0. -1.
         22   -1    0    0    0    0 -0.00000000000E+00 -0.00000000000E+00 -0.48740792849E+03  0.48740792849E+03  0.00000000000E+00 0. -1.
        -24    2    1    2    0    0 -0.29414985622E+03  0.25187477164E+02 -0.36123140346E+03  0.47351513163E+03  0.81054957396E+02 0.  0.
         25    2    1    2    0    0  0.22973072109E+03  0.67924645705E+02  0.32908837372E+03  0.42583242592E+03  0.12507651874E+03 0.  0.
         24    2    1    2    0    0  0.64419135129E+02 -0.93112122869E+02  0.19894119738E+03  0.24226646707E+03  0.79345753849E+02 0.  0.
        -11    1    5    5    0    0 -0.40483817116E+00 -0.47894000472E+02  0.12568389900E+03  0.13450071242E+03  0.00000000000E+00 0.  1.
         12    1    5    5    0    0  0.64823973300E+02 -0.45218122397E+02  0.73257298383E+02  0.10776575464E+03  0.00000000000E+00 0. -1.
         13    1    3    3    0    0 -0.24353611550E+03  0.27791134064E+02 -0.24428714601E+03  0.34606126103E+03  0.00000000000E+00 0. -1.
        -14    1    3    3    0    0 -0.50613740722E+02 -0.26036569007E+01 -0.11694425745E+03  0.12745387060E+03  0.00000000000E+00 0.  1.
          5    1    4    4  501    0  0.39211510179E+02  0.40835230405E+02  0.15949548911E+03  0.16929660960E+03  0.41800000000E+01 0.  1.
         -5    1    4    4    0  501  0.19051921091E+03  0.27089415300E+02  0.16959288461E+03  0.25653581632E+03  0.41800000000E+01 0.  1.
</event>
<event>
11    1  0.1002087E-008  0.1566234E+03  0.7561462E-02  0.1090297E+00
         22   -1    0    0    0    0  0.00000000000E+00  0.00000000000E+00  0.39717105462E+03  0.39717105462E+03  0.00000000000E+00 0. -1.
         22   -1    0    0    0    0 -0.00000000000E+00 -0.00000000000E+00 -0.63420707308E+03  0.63420707308E+03  0.00000000000E+00 0.  1.
         24    2    1    2    0    0  0.48829360951E+01 -0.72336509594E+01 -0.43604767241E+03  0.44273737149E+03  0.76175053227E+02 0.  0.
         25    2    1    2    0    0 -0.90254533404E+02  0.46215356768E+02 -0.14894515464E+03  0.21934590384E+03  0.12508487694E+03 0.  0.
        -24    2    1    2    0    0  0.85371597309E+02 -0.38981705809E+02  0.34795680859E+03  0.36929485237E+03  0.80603128522E+02 0.  0.
        -13    1    3    3    0    0  0.40737302297E+01 -0.41782645366E+02 -0.25212007506E+03  0.25559130850E+03  0.00000000000E+00 0.  1.
         14    1    3    3    0    0  0.80920586545E+00  0.34548994406E+02 -0.18392759735E+03  0.18714606299E+03  0.00000000000E+00 0. -1.
         13    1    5    5    0    0  0.99356530729E+02 -0.28771788647E+02  0.32101408787E+03  0.33726781737E+03  0.00000000000E+00 0. -1.
        -14    1    5    5    0    0 -0.13984933421E+02 -0.10209917162E+02  0.26942720717E+02  0.32027035000E+02  0.00000000000E+00 0.  1.
          5    1    4    4  501    0 -0.44714706848E+02 -0.36959364012E+02 -0.91430800150E+02  0.10836264676E+03  0.41800000000E+01 0.  1.
         -5    1    4    4    0  501 -0.45539826556E+02  0.83174720781E+02 -0.57514354491E+02  0.11098325708E+03  0.41800000000E+01 0.  1.
</event>
<event>
11    1  0.1002087E-008  0.1787130E+03  0.7561462E-02  0.1070689E+00
         22   -1    0    0    0    0  0.00000000000E+00  0.00000000000E+00  0.93260035914E+03  0.93260035914E+03  0.00000000000E+00 0.  1.
         22   -1    0    0    0    0 -0.00000000000E+00 -0.00000000000E+00 -0.12039913334E+04  0.12039913334E+04  0.00000000000E+00 0. -1.
        -24    2    1    2    0    0  0.10476167078E+03  0.74330280507E+02 -0.11511596029E+04  0.11610915943E+04  0.80406844791E+02 0.  0.
         25    2    1    2    0    0 -0.70200582728E+02 -0.78065246371E+02  0.10954839959E+03  0.19664780228E+03  0.12508877561E+03 0.  0.
         24    2    1    2    0    0 -0.34561088051E+02  0.37349658637E+01  0.77022022907E+03  0.77885229596E+03  0.11028725617E+03 0.  0.
        -11    1    5    5    0    0 -0.44569916945E+02  0.38388106775E+02  0.66549352397E+03  0.66808813392E+03  0.00000000000E+00 0.  1.
         12    1    5    5    0    0  0.10008828894E+02 -0.34653140911E+02  0.10472670510E+03  0.11076416204E+03  0.00000000000E+00 0. -1.
         13    1    3    3    0    0  0.11819542801E+03  0.62898523906E+02 -0.10120069337E+04  0.10208253609E+04  0.00000000000E+00 0. -1.
        -14    1    3    3    0    0 -0.13433757235E+02  0.11431756601E+02 -0.13915266924E+03  0.14026623346E+03  0.00000000000E+00 0.  1.
          5    1    4    4  501    0 -0.78819818378E+02 -0.48999931821E+02  0.13004055438E+03  0.15981731843E+03  0.41800000000E+01 0.  1.
         -5    1    4    4    0  501  0.86192356497E+01 -0.29065314550E+02 -0.20492154785E+02  0.36830483852E+02  0.41800000000E+01 0.  1.
</event>
<event>
11    1  0.1002087E-008  0.1469299E+03  0.7561462E-02  0.1100058E+00
         22   -1    0    0    0    0  0.00000000000E+00  0.00000000000E+00  0.83159266537E+03  0.83159266537E+03  0.00000000000E+00 0.  1.
         22   -1    0    0    0    0 -0.00000000000E+00 -0.00000000000E+00 -0.55144567477E+03  0.55144567477E+03  0.00000000000E+00 0.  1.
         24    2    1    2    0    0  0.34426285215E+01  0.22880818169E+01 -0.50588776945E+03  0.51251401408E+03  0.82043234545E+02 0.  0.
         25    2    1    2    0    0  0.31980119259E+02 -0.70696731199E+02  0.10613408537E+03  0.18147007806E+03  0.12508472858E+03 0.  0.
        -24    2    1    2    0    0 -0.35422747781E+02  0.68408649382E+02  0.67990067468E+03  0.68905424801E+03  0.81217700639E+02 0.  0.
        -13    1    3    3    0    0  0.35257446389E+02  0.13727825346E+02 -0.38897774861E+03  0.39081354842E+03  0.00000000000E+00 0.  1.
         14    1    3    3    0    0 -0.31814817868E+02 -0.11439743529E+02 -0.11691002084E+03  0.12170046566E+03  0.00000000000E+00 0. -1.
         11    1    5    5    0    0 -0.27894814116E+02  0.59684894307E+02  0.23652823939E+03  0.24553210644E+03  0.00000000000E+00 0. -1.
        -12    1    5    5    0    0 -0.75279336650E+01  0.87237550751E+01  0.44337243529E+03  0.44352214157E+03  0.00000000000E+00 0.  1.
          5    1    4    4  501    0  0.41453390141E+02 -0.85793510644E+02  0.25417763729E+02  0.98703825335E+02  0.41800000000E+01 0. -1.
         -5    1    4    4    0  501 -0.94732708823E+01  0.15096779445E+02  0.80716321637E+02  0.82766252721E+02  0.41800000000E+01 0. -1.
</event>
<event>
11    1  0.1002087E-008  0.1334169E+03  0.7561462E-02  0.1115141E+00
         22   -1    0    0    0    0  0.00000000000E+00  0.00000000000E+00  0.29083344056E+03  0.29083344056E+03  0.00000000000E+00 0. -1.
         22   -1    0    0    0    0 -0.00000000000E+00 -0.00000000000E+00 -0.38850842874E+03  0.38850842874E+03  0.00000000000E+00 0. -1.
        -24    2    1    2    0    0 -0.26853280523E+02 -0.32192150321E+02 -0.30286914181E+03  0.31578435787E+03  0.78946883411E+02 0.  0.
         25    2    1    2    0    0  0.60282484532E+02 -0.11197541955E+00  0.79203208358E-02  0.13885739535E+03  0.12508951075E+03 0.  0.
         24    2    1    2    0    0 -0.33429204009E+02  0.32304125740E+02  0.20518623331E+03  0.22470011608E+03  0.78915674018E+02 0.  0.
        -11    1    5    5    0    0 -0.23672037838E+02  0.23619389969E+02  0.19816549132E+02  0.38870767646E+02  0.00000000000E+00 0.  1.
         12    1    5    5    0    0 -0.97571661717E+01  0.86847357712E+01  0.18536968418E+03  0.18582934843E+03  0.00000000000E+00 0. -1.
         13    1    3    3    0    0  0.97278105949E+01  0.28105207322E+00 -0.21497976680E+03  0.21519992896E+03  0.00000000000E+00 0. -1.
        -14    1    3    3    0    0 -0.36581091118E+02 -0.32473202394E+02 -0.87889375005E+02  0.10058442891E+03  0.00000000000E+00 0.  1.
          5    1    4    4  501    0 -0.33980297425E+01 -0.54595500334E+02 -0.23762862166E+01  0.54912060598E+02  0.41800000000E+01 0. -1.
         -5    1    4    4    0  501  0.63680514275E+02  0.54483524915E+02  0.23842065374E+01  0.83945334750E+02  0.41800000000E+01 0. -1.
</event>
<event>
11    1  0.1002087E-008  0.1326282E+03  0.7561462E-02  0.1116081E+00
         22   -1    0    0    0    0  0.00000000000E+00  0.00000000000E+00  0.20193976354E+03  0.20193976354E+03  0.00000000000E+00 0. -1.
         22   -1    0    0    0    0 -0.00000000000E+00 -0.00000000000E+00 -0.23304885754E+04  0.23304885754E+04  0.00000000000E+00 0. -1.
         24    2    1    2    0    0 -0.34817208166E+01 -0.14536438821E+02 -0.17811189590E+04  0.17829783878E+04  0.80023465489E+02 0.  0.
         25    2    1    2    0    0  0.30755279600E+02 -0.20379127039E+02 -0.52994453780E+03  0.54575228353E+03  0.12507256210E+03 0.  0.
        -24    2    1    2    0    0 -0.27273558783E+02  0.34915565860E+02  0.18251468491E+03  0.20369766759E+03  0.78855474292E+02 0.  0.
        -11    1    3    3    0    0 -0.57818933772E+01 -0.45176472617E+02 -0.73600026759E+03  0.73740812164E+03  0.00000000000E+00 0.  1.
         12    1    3    3    0    0  0.23001725605E+01  0.30640033796E+02 -0.10451186914E+04  0.10455702662E+04  0.00000000000E+00 0. -1.
         11    1    5    5    0    0  0.17028576465E+02 -0.15471024837E+02  0.54758714042E+02  0.59395637799E+02  0.00000000000E+00 0. -1.
        -12    1    5    5    0    0 -0.44302135248E+02  0.50386590697E+02  0.12775597087E+03  0.14430202979E+03  0.00000000000E+00 0.  1.
          5    1    4    4  501    0  0.38369666483E+02 -0.60400445750E+02 -0.18525962392E+03  0.19864301097E+03  0.41800000000E+01 0.  1.
         -5    1    4    4    0  501 -0.76143868836E+01  0.40021318711E+02 -0.34468491388E+03  0.34710927256E+03  0.41800000000E+01 0.  1.
</event>
<event>
11    1  0.1002087E-008  0.1783030E+03  0.7561462E-02  0.1071024E+00
         22   -1    0    0    0    0  0.00000000000E+00  0.00000000000E+00  0.51956491798E+03  0.51956491798E+03  0.00000000000E+00 0. -1.
         22   -1    0    0    0    0 -0.00000000000E+00 -0.00000000000E+00 -0.47320533294E+03  0.47320533294E+03  0.00000000000E+00 0. -1.
        -24    2    1    2    0    0 -0.97858541306E+02 -0.78105879257E+02 -0.40920663456E+03  0.43602065056E+03  0.83588967390E+02 0.  0.
         25    2    1    2    0    0  0.15533421824E+03  0.73438697138E+02  0.25374550648E+03  0.33099278917E+03  0.12508989898E+03 0.  0.
         24    2    1    2    0    0 -0.57475676937E+02  0.46671821192E+01  0.20182071311E+03  0.22575681119E+03  0.83122208415E+02 0.  0.
        -11    1    5    5    0    0 -0.47828035938E+02 -0.12307631224E+02  0.42240554769E+02  0.64986639205E+02  0.00000000000E+00 0.  1.
         12    1    5    5    0    0 -0.96476409990E+01  0.16974813343E+02  0.15958015834E+03  0.16077017199E+03  0.00000000000E+00 0. -1.
         13    1    3    3    0    0 -0.78729497265E+02 -0.61092437524E+02 -0.39364241149E+03  0.40606030068E+03  0.00000000000E+00 0. -1.
        -14    1    3    3    0    0 -0.19129044041E+02 -0.17013441733E+02 -0.15564223067E+02  0.29960349884E+02  0.00000000000E+00 0.  1.
          5    1    4    4  501    0 -0.19576291590E+02  0.72008436015E+01  0.50268367322E+02  0.54584471181E+02  0.41800000000E+01 0. -1.
         -5    1    4    4    0  501  0.17491050983E+03  0.66237853536E+02  0.20347713916E+03  0.27640831798E+03  0.41800000000E+01 0. -1.
</event>
<event>
11    1  0.1002087E-008  0.1418390E+03  0.7561462E-02  0.1105522E+00
         22   -1    0    0    0    0  0.00000000000E+00  0.00000000000E+00  0.54661069354E+03  0.54661069354E+03  0.00000000000E+00 0.  1.
         22   -1    0    0    0    0 -0.00000000000E+00 -0.00000000000E+00 -0.24855785831E+03  0.24855785831E+03  0.00000000000E+00 0. -1.
         24    2    1    2    0    0 -0.23427549822E+02  0.14920614626E+02 -0.13240168572E+03  0.15544094731E+03  0.76551988134E+02 0.  0.
         25    2    1    2    0    0 -0.38374019421E+02 -0.42505230814E+02 -0.51182152601E+02  0.14678730893E+03  0.12509053244E+03 0.  0.
        -24    2    1    2    0    0  0.61801569242E+02  0.27584616188E+02  0.48163667355E+03  0.49294029562E+03  0.80224090660E+02 0.  0.
        -13    1    3    3    0    0 -0.50925204800E+02  0.49209909221E+01 -0.72012729723E+02  0.88337001748E+02  0.00000000000E+00 0.  1.
         14    1    3    3    0    0  0.27497654978E+02  0.99996237041E+01 -0.60388955994E+02  0.67103945559E+02  0.00000000000E+00 0. -1.
         13    1    5    5    0    0  0.15131940799E+02  0.47082824126E+02  0.16375312018E+03  0.17105803790E+03  0.00000000000E+00 0. -1.
        -14    1    5    5    0    0  0.46669628444E+02 -0.19498207938E+02  0.31788355337E+03  0.32188225772E+03  0.00000000000E+00 0.  1.
          5    1    4    4  501    0 -0.30919472146E+02 -0.40963541137E+02 -0.91797756418E+02  0.10525362675E+03  0.41800000000E+01 0.  1.
         -5    1    4    4    0  501 -0.74545472741E+01 -0.15416896774E+01  0.40615603817E+02  0.41533682182E+02  0.41800000000E+01 0.  1.
</event>
<event>
11    1  0.1002087E-008  0.1283223E+03  0.7561462E-02  0.1121348E+00
         22   -1    0    0    0    0  0.00000000000E+00  0.00000000000E+00  0.27277563758E+04  0.27277563758E+04  0.00000000000E+00 0.  1.
         22   -1    0    0    0    0 -0.00000000000E+00 -0.00000000000E+00 -0.51281553461E+02  0.51281553461E+02  0.00000000000E+00 0.  1.
         24    2    1    2    0    0 -0.29347493266E+02  0.25030856288E+01  0.44475789017E+01  0.89532948277E+02  0.84432381646E+02 0.  0.
         25    2    1    2    0    0  0.19100817291E+02 -0.36885638197E+01  0.49308463966E+03  0.50907784562E+03  0.12509733932E+03 0.  0.
        -24    2    1    2    0    0  0.10246675975E+02  0.11854781909E+01  0.21789426038E+04  0.21804271354E+04  0.79782343634E+02 0.  0.
        -13    1    3    3    0    0 -0.52557594933E+02  0.14712646183E+02 -0.15325034608E+02  0.56688794560E+02  0.00000000000E+00 0.  1.
         14    1    3    3    0    0  0.23210101668E+02 -0.12209560555E+02  0.19772613510E+02  0.32844153717E+02  0.00000000000E+00 0. -1.
         13    1    5    5    0    0  0.36254990787E+02 -0.23343830346E+02  0.97352915318E+03  0.97448364320E+03  0.00000000000E+00 0. -1.
        -14    1    5    5    0    0 -0.26008314812E+02  0.24529308537E+02  0.12054134506E+04  0.12059434922E+04  0.00000000000E+00 0.  1.
          5    1    4    4  501    0  0.12672486165E+02  0.32924377406E+02  0.45246587013E+03  0.45385839484E+03  0.41800000000E+01 0.  1.
         -5    1    4    4    0  501  0.64283311257E+01 -0.36612941225E+02  0.40618769531E+02  0.55219450780E+02  0.41800000000E+01 0.  1.
</event>
<event>
11    1  0.1002087E-008  0.1793615E+03  0.7561462E-02  0.1070160E+00
         22   -1    0    0    0    0  0.00000000000E+00  0.00000000000E+00  0.82187422518E+03  0.82187422518E+03  0.00000000000E+00 0. -1.
         22   -1    0    0    0    0 -0.00000000000E+00 -0.00000000000E+00 -0.31904570856E+03  0.31904570856E+03  0.00000000000E+00 0. -1.
        -24    2    1    2    0    0 -0.60581493321E+02  0.10687988617E+03 -0.18570606496E+03  0.23740040975E+03  0.82333374670E+02 0.  0.
         25    2    1    2    0    0  0.14946677787E+03 -0.84286132973E+02  0.83273943387E+01  0.21251265317E+03  0.12509121617E+03 0.  0.
         24    2    1    2    0    0 -0.88885284545E+02 -0.22593753195E+02  0.68020718724E+03  0.69100687082E+03  0.79985038887E+02 0.  0.
        -13    1    5    5    0    0 -0.14231552329E+02  0.13335685475E+02  0.31631055239E+02  0.37160479603E+02  0.00000000000E+00 0.  1.
         14    1    5    5    0    0 -0.74653732215E+02 -0.35929438670E+02  0.64857613201E+03  0.65384639121E+03  0.00000000000E+00 0. -1.
         11    1    3    3    0    0 -0.39618644066E+02  0.92887220594E+02 -0.80287182631E+02  0.12901048175E+03  0.00000000000E+00 0. -1.
        -12    1    3    3    0    0 -0.20962849255E+02  0.13992665574E+02 -0.10541888233E+03  0.10838992800E+03  0.00000000000E+00 0.  1.
          5    1    4    4  501    0  0.93866904473E+01 -0.70370206091E+02  0.89670691254E+01  0.71679540955E+02  0.41800000000E+01 0.  1.
         -5    1    4    4    0  501  0.14008008742E+03 -0.13915926882E+02 -0.63967478668E+00  0.14083311221E+03  0.41800000000E+01 0.  1.
</event>
<event>
11    1  0.1002087E-008  0.1505051E+03  0.7561462E-02  0.1096364E+00
         22   -1    0    0    0    0  0.00000000000E+00  0.00000000000E+00  0.42747956784E+03  0.42747956784E+03  0.00000000000E+00 0. -1.
         22   -1    0    0    0    0 -0.00000000000E+00 -0.00000000000E+00 -0.78465288930E+03  0.78465288930E+03  0.00000000000E+00 0. -1.
        -24    2    1    2    0    0  0.28461595982E+01 -0.26519976389E+02 -0.47914616944E+03  0.48626065078E+03  0.78466292363E+02 0.  0.
         25    2    1    2    0    0  0.56384305181E+02 -0.33420894068E+02 -0.27659097181E+03  0.31055806676E+03  0.12509037177E+03 0.  0.
         24    2    1    2    0    0 -0.59230464779E+02  0.59940870457E+02  0.39856381978E+03  0.41531373960E+03  0.80816012960E+02 0.  0.
        -11    1    5    5    0    0  0.15929523093E+02  0.33065788082E+02  0.13806421217E+03  0.14285945097E+03  0.00000000000E+00 0.  1.
         12    1    5    5    0    0 -0.75159987871E+02  0.26875082374E+02  0.26049960761E+03  0.27245428864E+03  0.00000000000E+00 0. -1.
         11    1    3    3    0    0  0.25934512736E+01 -0.51999876693E+02 -0.39272783434E+03  0.39616393707E+03  0.00000000000E+00 0. -1.
        -12    1    3    3    0    0  0.25270832460E+00  0.25479900304E+02 -0.86418335096E+02  0.90096713712E+02  0.00000000000E+00 0.  1.
          5    1    4    4  501    0  0.52510661805E+01 -0.18001515362E+02  0.81152784146E+01  0.20855656190E+02  0.41800000000E+01 0.  1.
         -5    1    4    4    0  501  0.51133239000E+02 -0.15419378706E+02 -0.28470625023E+03  0.28970241057E+03  0.41800000000E+01 0.  1.
</event>
<event>
11    1  0.1002087E-008  0.1321441E+03  0.7561462E-02  0.1116662E+00
         22   -1    0    0    0    0  0.00000000000E+00  0.00000000000E+00  0.20274652893E+04  0.20274652893E+04  0.00000000000E+00 0. -1.
         22   -1    0    0    0    0 -0.00000000000E+00 -0.00000000000E+00 -0.32658811828E+02  0.32658811828E+02  0.00000000000E+00 0. -1.
        -24    2    1    2    0    0 -0.32581011150E+01  0.23394766856E+02  0.54750859754E+02  0.10015806061E+03  0.80473909578E+02 0.  0.
         25    2    1    2    0    0  0.35555522125E+02 -0.47029203529E+02  0.55807820015E+03  0.57495576163E+03  0.12508760618E+03 0.  0.
         24    2    1    2    0    0 -0.32297421010E+02  0.23634436674E+02  0.13819774175E+04  0.13850102789E+04  0.82402548057E+02 0.  0.
        -13    1    5    5    0    0 -0.26378735169E+02  0.52111673500E+02  0.70783438036E+03  0.71024008208E+03  0.00000000000E+00 0.  1.
         14    1    5    5    0    0 -0.59186858404E+01 -0.28477236826E+02  0.67414303719E+03  0.67477019677E+03  0.00000000000E+00 0. -1.
         11    1    3    3    0    0 -0.20215636157E+02  0.42217633635E+02  0.87167097019E+01  0.47612829815E+02  0.00000000000E+00 0. -1.
        -12    1    3    3    0    0  0.16957535042E+02 -0.18822866780E+02  0.46034150052E+02  0.52545230797E+02  0.00000000000E+00 0.  1.
          5    1    4    4  501    0  0.27839439469E+02  0.99158602737E+01  0.46173168792E+03  0.46269534545E+03  0.41800000000E+01 0. -1.
         -5    1    4    4    0  501  0.77160826559E+01 -0.56945063803E+02  0.96346512224E+02  0.11226041618E+03  0.41800000000E+01 0. -1.
</event>
<event>
11    1  0.1002087E-008  0.1276617E+03  0.7561462E-02  0.1122176E+00
         22   -1    0    0    0    0  0.00000000000E+00  0.00000000000E+00  0.57610481296E+03  0.57610481296E+03  0.00000000000E+00 0.  1.
         22   -1    0    0    0    0 -0.00000000000E+00 -0.00000000000E+00 -0.21240205899E+04  0.21240205899E+04  0.00000000000E+00 0.  1.
         24    2    1    2    0    0 -0.11266020440E+02  0.21003801718E+02 -0.14629464504E+04  0.14652952620E+04  0.79434281388E+02 0.  0.
         25    2    1    2    0    0 -0.11482243484E+02 -0.93019824254E+01 -0.65068503911E+03  0.66276489568E+03  0.12509163852E+03 0.  0.
        -24    2    1    2    0    0  0.22748263924E+02 -0.11701819292E+02  0.56571571263E+03  0.57206524517E+03  0.81055296800E+02 0.  0.
        -11    1    3    3    0    0 -0.42327304806E+02  0.13944039387E+02 -0.55351011916E+03  0.55530125966E+03  0.00000000000E+00 0.  1.
         12    1    3    3    0    0  0.31061284367E+02  0.70597623313E+01 -0.90943633126E+03  0.90999400232E+03  0.00000000000E+00 0. -1.
         11    1    5    5    0    0 -0.21956279438E+02  0.10327625409E+02  0.75046715516E+02  0.78871715862E+02  0.00000000000E+00 0. -1.
        -12    1    5    5    0    0  0.44704543362E+02 -0.22029444701E+02  0.49066899711E+03  0.49319352931E+03  0.00000000000E+00 0.  1.
          5    1    4    4  501    0  0.29449771707E+01 -0.43975749629E+01 -0.64634302848E+03  0.64637821314E+03  0.41800000000E+01 0.  1.
         -5    1    4    4    0  501 -0.14427220655E+02 -0.49044074626E+01 -0.43420106349E+01  0.16386682542E+02  0.41800000000E+01 0.  1.
</event>
<event>
11    1  0.1002087E-008  0.1341328E+03  0.7561462E-02  0.1114293E+00
         22   -1    0    0    0    0  0.00000000000E+00  0.00000000000E+00  0.14704009921E+04  0.14704009921E+04  0.00000000000E+00 0. -1.
         22   -1    0    0    0    0 -0.00000000000E+00 -0.00000000000E+00 -0.23038288851E+03  0.23038288851E+03  0.00000000000E+00 0. -1.
         24    2    1    2    0    0  0.12694223434E+02 -0.48351035921E+02 -0.20255781854E+03  0.22325689200E+03  0.79466999364E+02 0.  0.
         25    2    1    2    0    0  0.10421778685E+02  0.15355191367E+02  0.23699729521E+03  0.26860905770E+03  0.12505483825E+03 0.  0.
        -24    2    1    2    0    0 -0.23116002119E+02  0.32995844554E+02  0.12055786269E+04  0.12089179309E+04  0.80247508653E+02 0.  0.
        -13    1    3    3    0    0  0.10723694160E+02  0.18853541625E+02 -0.23436415098E+02  0.31933042462E+02  0.00000000000E+00 0.  1.
         14    1    3    3    0    0  0.19705292738E+01 -0.67204577546E+02 -0.17912140345E+03  0.19132384954E+03  0.00000000000E+00 0. -1.
         11    1    5    5    0    0 -0.38845231930E+02  0.19580743684E+02  0.30342451248E+03  0.30652698468E+03  0.00000000000E+00 0. -1.
        -12    1    5    5    0    0  0.15729229811E+02  0.13415100870E+02  0.90215411445E+03  0.90239094622E+03  0.00000000000E+00 0.  1.
          5    1    4    4  501    0 -0.76208619858E+01  0.62304452541E+02  0.69822110255E+02  0.93981497244E+02  0.41800000000E+01 0.  1.
         -5    1    4    4    0  501  0.18042640671E+02 -0.46949261174E+02  0.16717518495E+03  0.17462756046E+03  0.41800000000E+01 0.  1.
</event>
<event>
11    1  0.1002087E-008  0.1580188E+03  0.7561462E-02  0.1088956E+00
         22   -1    0    0    0    0  0.00000000000E+00  0.00000000000E+00  0.72719445340E+02  0.72719445340E+02  0.00000000000E+00 0. -1.
         22   -1    0    0    0    0 -0.00000000000E+00 -0.00000000000E+00 -0.19555939131E+04  0.19555939131E+04  0.00000000000E+00 0.  1.
        -24    2    1    2    0    0  0.11717300629E+02  0.23235521818E+02 -0.14361591606E+04  0.14385983416E+04  0.79591893068E+02 0.  0.
         25    2    1    2    0    0  0.75173378473E+02 -0.65329903510E+02 -0.43532768547E+03  0.46376281816E+03  0.12508686840E+03 0.  0.
         24    2    1    2    0    0 -0.86890679102E+02  0.42094381692E+02 -0.11387621718E+02  0.12595219865E+03  0.80077158612E+02 0.  0.
        -11    1    5    5    0    0 -0.71921867166E+02  0.62778927363E+02 -0.22537458379E+02  0.98091211266E+02  0.00000000000E+00 0.  1.
         12    1    5    5    0    0 -0.14968811935E+02 -0.20684545671E+02  0.11149836661E+02  0.27860987383E+02  0.00000000000E+00 0. -1.
         13    1    3    3    0    0  0.19926493886E+01 -0.28885855033E+02 -0.37543213522E+03  0.37654701092E+03  0.00000000000E+00 0. -1.
        -14    1    3    3    0    0  0.97246512403E+01  0.52121376851E+02 -0.10607270253E+04  0.10620513307E+04  0.00000000000E+00 0.  1.
          5    1    4    4  501    0  0.10737583871E+03 -0.54235960828E+02 -0.38047070260E+03  0.39905706124E+03  0.41800000000E+01 0.  1.
         -5    1    4    4    0  501 -0.32202460235E+02 -0.11093942682E+02 -0.54856982872E+02  0.64705756925E+02  0.41800000000E+01 0.  1.
</event>
<event>
11    1  0.1002087E-008  0.1464391E+04  0.7561462E-02  0.8331003E-01
         22   -1    0    0    0    0  0.00000000000E+00  0.00000000000E+00  0.29850410447E+03  0.29850410447E+03  0.00000000000E+00 0. -1.
         22   -1    0    0    0    0 -0.00000000000E+00 -0.00000000000E+00 -0.17959902731E+04  0.17959902731E+04  0.00000000000E+00 0. -1.
        -24    2    1    2    0    0  0.16279378181E+03  0.55207288246E+03 -0.10567331638E+04  0.12059327813E+04  0.79388983673E+02 0.  0.
         25    2    1    2    0    0 -0.23242620852E+03 -0.57883266430E+03 -0.28180587095E+03  0.69579546372E+03  0.12509029841E+03 0.  0.
         24    2    1    2    0    0  0.69632426705E+02  0.26759781845E+02 -0.15894713390E+03  0.19276613252E+03  0.79560226860E+02 0.  0.
        -11    1    5    5    0    0  0.66756633423E+02 -0.88147619421E+01 -0.13151604038E+03  0.14775187651E+03  0.00000000000E+00 0.  1.
         12    1    5    5    0    0  0.28757932820E+01  0.35574543787E+02 -0.27431093523E+02  0.45014256014E+02  0.00000000000E+00 0. -1.
         11    1    3    3    0    0  0.10773858612E+03  0.23691217775E+03 -0.50624913853E+03  0.56923033401E+03  0.00000000000E+00 0. -1.
        -12    1    3    3    0    0  0.55055195693E+02  0.31516070471E+03 -0.55048402524E+03  0.63670244731E+03  0.00000000000E+00 0.  1.
          5    1    4    4  501    0 -0.69659969352E+01 -0.51612642271E+02  0.87295797464E+01  0.52972331628E+02  0.41800000000E+01 0. -1.
         -5    1    4    4    0  501 -0.22546021158E+03 -0.52722002203E+03 -0.29053545069E+03  0.64282313209E+03  0.41800000000E+01 0. -1.
</event>
<event>
11    1  0.1002087E-008  0.1578588E+03  0.7561462E-02  0.1089109E+00
         22   -1    0    0    0    0  0.00000000000E+00  0.00000000000E+00  0.13618767471E+04  0.13618767471E+04  0.00000000000E+00 0. -1.
         22   -1    0    0    0    0 -0.00000000000E+00 -0.00000000000E+00 -0.50770311921E+03  0.50770311921E+03  0.00000000000E+00 0.  1.
        -24    2    1    2    0    0 -0.81952918257E+02 -0.49479757313E+02 -0.46492294814E+03  0.48170784958E+03  0.82003520921E+02 0.  0.
         25    2    1    2    0    0  0.72561462852E+02  0.94979288099E+02  0.19814526234E+03  0.26305117649E+03  0.12509254735E+03 0.  0.
         24    2    1    2    0    0  0.93914554048E+01 -0.45499530786E+02  0.11209513137E+04  0.11248208402E+04  0.80818736984E+02 0.  0.
        -11    1    5    5    0    0  0.40444088344E+01  0.12454008522E+02  0.35962288200E+02  0.38271996860E+02  0.00000000000E+00 0.  1.
         12    1    5    5    0    0  0.53470465704E+01 -0.57953539308E+02  0.10849890255E+04  0.10865488434E+04  0.00000000000E+00 0. -1.
         11    1    3    3    0    0  0.15742768680E+02 -0.34711214620E+01 -0.94508083495E+02  0.95873152112E+02  0.00000000000E+00 0. -1.
        -12    1    3    3    0    0 -0.97695686938E+02 -0.46008635851E+02 -0.37041486464E+03  0.38583469747E+03  0.00000000000E+00 0.  1.
          5    1    4    4  501    0  0.68143166096E+02 -0.26463941170E+01  0.46677286941E+02  0.82745005913E+02  0.41800000000E+01 0.  1.
         -5    1    4    4    0  501  0.44182967568E+01  0.97625682216E+02  0.15146797540E+03  0.18030617057E+03  0.41800000000E+01 0.  1.
</event>
<event>
11    1  0.1002087E-008  0.1861647E+03  0.7561462E-02  0.1064763E+00
         22   -1    0    0    0    0  0.00000000000E+00  0.00000000000E+00  0.23317420470E+04  0.23317420470E+04  0.00000000000E+00 0.  1.
         22   -1    0    0    0    0 -0.00000000000E+00 -0.00000000000E+00 -0.22316145694E+02  0.22316145694E+02  0.00000000000E+00 0. -1.
        -24    2    1    2    0    0 -0.47194707454E+02 -0.11201527151E+03  0.62629036421E+03  0.64327793062E+03  0.82414284285E+02 0.  0.
         25    2    1    2    0    0  0.10489193866E+03  0.11631302400E+03  0.12681884672E+04  0.12839346066E+04  0.12512013223E+03 0.  0.
         24    2    1    2    0    0 -0.57697231208E+02 -0.42977524909E+01  0.41494706993E+03  0.42684565545E+03  0.81662118309E+02 0.  0.
        -11    1    5    5    0    0 -0.76304392241E+02  0.80528541431E+01  0.29358364047E+03  0.30344449688E+03  0.00000000000E+00 0.  1.
         12    1    5    5    0    0  0.18607161033E+02 -0.12350606634E+02  0.12136342946E+03  0.12340115856E+03  0.00000000000E+00 0. -1.
         13    1    3    3    0    0  0.42348428031E+01 -0.42302780112E+02  0.84362213115E+02  0.94469265375E+02  0.00000000000E+00 0. -1.
        -14    1    3    3    0    0 -0.51429550257E+02 -0.69712491401E+02  0.54192815109E+03  0.54880866524E+03  0.00000000000E+00 0.  1.
          5    1    4    4  501    0 -0.26900047382E+02  0.27346458692E+02  0.17269543315E+03  0.17695374080E+03  0.41800000000E+01 0.  1.
         -5    1    4    4    0  501  0.13179198604E+03  0.88966565312E+02  0.10954930340E+04  0.11069808658E+04  0.41800000000E+01 0.  1.
</event>
<event>
11    1  0.1002087E-008  0.1244738E+04  0.7561462E-02  0.8475747E-01
         22   -1    0    0    0    0  0.00000000000E+00  0.00000000000E+00  0.30158069617E+03  0.30158069617E+03  0.00000000000E+00 0. -1.
         22   -1    0    0    0    0 -0.00000000000E+00 -0.00000000000E+00 -0.12843765594E+04  0.12843765594E+04  0.00000000000E+00 0. -1.
         24    2    1    2    0    0  0.12505254999E+03  0.22155980572E+03 -0.15850950064E+03  0.31169970867E+03  0.85466711770E+02 0.  0.
         25    2    1    2    0    0 -0.22540597220E+03 -0.42025517731E+03 -0.89977618313E+03  0.10259962092E+04  0.12509506435E+03 0.  0.
        -24    2    1    2    0    0  0.10035342221E+03  0.19869537159E+03  0.75489820567E+02  0.24826133770E+03  0.79901932068E+02 0.  0.
        -11    1    3    3    0    0  0.73226054926E+02  0.55107883070E+02 -0.74870351232E+02  0.11834062443E+03  0.00000000000E+00 0.  1.
         12    1    3    3    0    0  0.51826495066E+02  0.16645192265E+03 -0.83639149411E+02  0.19335908424E+03  0.00000000000E+00 0. -1.
         13    1    5    5    0    0  0.10835187137E+03  0.14652104743E+03  0.69916052115E+02  0.19518401500E+03  0.00000000000E+00 0. -1.
        -14    1    5    5    0    0 -0.79984491550E+01  0.52174324163E+02  0.55737684517E+01  0.53077322705E+02  0.00000000000E+00 0.  1.
          5    1    4    4  501    0 -0.18038820089E+03 -0.39159040140E+03 -0.84902109377E+03  0.95222751249E+03  0.41800000000E+01 0. -1.
         -5    1    4    4    0  501 -0.45017771311E+02 -0.28664775916E+02 -0.50755089366E+02  0.73768696672E+02  0.41800000000E+01 0. -1.
</event>
<event>
11    1  0.1002087E-008  0.2111325E+03  0.7561462E-02  0.1046919E+00
         22   -1    0    0    0    0  0.00000000000E+00  0.00000000000E+00  0.18204444513E+04  0.18204444513E+04  0.00000000000E+00 0. -1.
         22   -1    0    0    0    0 -0.00000000000E+00 -0.00000000000E+00 -0.79581376144E+02  0.79581376144E+02  0.00000000000E+00 0. -1.
        -24    2    1    2    0    0 -0.52683443864E+02  0.14266995906E+03  0.11677205351E+03  0.20833164681E+03  0.81462261859E+02 0.  0.
         25    2    1    2    0    0  0.14816607736E+03 -0.20693431812E+03  0.67374031099E+03  0.73098746699E+03  0.12506666919E+03 0.  0.
         24    2    1    2    0    0 -0.95482633498E+02  0.64264359065E+02  0.95035071063E+03  0.96070671361E+03  0.80895458763E+02 0.  0.
        -11    1    5    5    0    0 -0.50647116993E+02  0.71989325606E+01  0.18561993717E+03  0.19254016767E+03  0.00000000000E+00 0.  1.
         12    1    5    5    0    0 -0.44835516505E+02  0.57065426504E+02  0.76473077346E+03  0.76816654595E+03  0.00000000000E+00 0. -1.
         11    1    3    3    0    0 -0.71886255811E+02  0.95826008866E+02  0.96383989133E+02  0.15375347512E+03  0.00000000000E+00 0. -1.
        -12    1    3    3    0    0  0.19202811947E+02  0.46843950192E+02  0.20388064373E+02  0.54578171691E+02  0.00000000000E+00 0.  1.
          5    1    4    4  501    0  0.55994381689E+02 -0.53893361560E+01  0.86112512137E+02  0.10294295931E+03  0.41800000000E+01 0.  1.
         -5    1    4    4    0  501  0.92171695673E+02 -0.20154498197E+03  0.58762779885E+03  0.62804450768E+03  0.41800000000E+01 0.  1.
</event>
<event>
11    1  0.1002087E-008  0.1506109E+03  0.7561462E-02  0.1096256E+00
         22   -1    0    0    0    0  0.00000000000E+00  0.00000000000E+00  0.13032115881E+04  0.13032115881E+04  0.00000000000E+00 0. -1.
         22   -1    0    0    0    0 -0.00000000000E+00 -0.00000000000E+00 -0.11749094826E+03  0.11749094826E+03  0.00000000000E+00 0.  1.
         24    2    1    2    0    0  0.15368766575E+02  0.65877158710E+01 -0.52259290076E+02  0.95382723326E+02  0.78020724961E+02 0.  0.
         25    2    1    2    0    0  0.48845433991E+02  0.49263895107E+02  0.86510587628E+02  0.16716308482E+03  0.12508639962E+03 0.  0.
        -24    2    1    2    0    0 -0.64214200566E+02 -0.55851610978E+02  0.11514693423E+04  0.11581567283E+04  0.90567626034E+02 0.  0.
        -11    1    3    3    0    0  0.15514932798E+02 -0.32188767309E+02 -0.81464831092E+01  0.36649625750E+02  0.00000000000E+00 0.  1.
         12    1    3    3    0    0 -0.14616622367E+00  0.38776483179E+02 -0.44112806967E+02  0.58733097576E+02  0.00000000000E+00 0. -1.
         11    1    5    5    0    0 -0.24672636461E+02 -0.59237713117E+02  0.98233444784E+03  0.98442816552E+03  0.00000000000E+00 0. -1.
        -12    1    5    5    0    0 -0.39541564105E+02  0.33861021398E+01  0.16913489449E+03  0.17372856275E+03  0.00000000000E+00 0.  1.
          5    1    4    4  501    0  0.70122692050E+02  0.76033189026E+02  0.44087349238E+02  0.11251401929E+03  0.41800000000E+01 0.  1.
         -5    1    4    4    0  501 -0.21277258059E+02 -0.26769293919E+02  0.42423238390E+02  0.54649065526E+02  0.41800000000E+01 0.  1.
</event>
<event>
11    1  0.1002087E-008  0.1329999E+03  0.7561462E-02  0.1115637E+00
         22   -1    0    0    0    0  0.00000000000E+00  0.00000000000E+00  0.86020699965E+02  0.86020699965E+02  0.00000000000E+00 0. -1.
         22   -1    0    0    0    0 -0.00000000000E+00 -0.00000000000E+00 -0.64968613542E+03  0.64968613542E+03  0.00000000000E+00 0.  1.
        -24    2    1    2    0    0 -0.79161187737E+01 -0.15681073216E+02 -0.48150980565E+03  0.48868050340E+03  0.81537601557E+02 0.  0.
         25    2    1    2    0    0 -0.27876414554E+02  0.41045823699E+02 -0.65243525535E+02  0.14955371164E+03  0.12509093056E+03 0.  0.
         24    2    1    2    0    0  0.35792533327E+02 -0.25364750484E+02 -0.16912104267E+02  0.97472620349E+02  0.85383935479E+02 0.  0.
        -11    1    5    5    0    0  0.30068070064E+02  0.22563669342E+02 -0.29273271733E+02  0.47645906954E+02  0.00000000000E+00 0.  1.
         12    1    5    5    0    0  0.57244632631E+01 -0.47928419825E+02  0.12361167466E+02  0.49826713395E+02  0.00000000000E+00 0. -1.
         11    1    3    3    0    0  0.32280567899E+02  0.68732053378E+01 -0.12834423170E+03  0.13251987709E+03  0.00000000000E+00 0. -1.
        -12    1    3    3    0    0 -0.40196686672E+02 -0.22554278554E+02 -0.35316557396E+03  0.35616062631E+03  0.00000000000E+00 0.  1.
          5    1    4    4  501    0 -0.63759989626E+01  0.74371149537E+02 -0.77649493693E+02  0.10778978392E+03  0.41800000000E+01 0.  1.
         -5    1    4    4    0  501 -0.21500415591E+02 -0.33325325838E+02  0.12405968157E+02  0.41763927721E+02  0.41800000000E+01 0.  1.
</event>
<event>
11    1  0.1002087E-008  0.1582179E+03  0.7561462E-02  0.1088766E+00
         22   -1    0    0    0    0  0.00000000000E+00  0.00000000000E+00  0.63726992021E+03  0.63726992021E+03  0.00000000000E+00 0.  1.
         22   -1    0    0    0    0 -0.00000000000E+00 -0.00000000000E+00 -0.61598778589E+03  0.61598778589E+03  0.00000000000E+00 0. -1.
         24    2    1    2    0    0  0.80398092934E+02 -0.59088073108E+02 -0.54089459938E+03  0.55671973194E+03  0.86108295571E+02 0.  0.
         25    2    1    2    0    0 -0.44627588173E+02  0.53139597197E+02  0.16450276470E+02  0.14398821741E+03  0.12508619724E+03 0.  0.
        -24    2    1    2    0    0 -0.35770504762E+02  0.59484759111E+01  0.54572645722E+03  0.55254975675E+03  0.78606324181E+02 0.  0.
        -13    1    3    3    0    0 -0.35213715145E+01 -0.42175546930E+02 -0.12101898873E+03  0.12820597665E+03  0.00000000000E+00 0.  1.
         14    1    3    3    0    0  0.83919464449E+02 -0.16912526178E+02 -0.41987561065E+03  0.42851375529E+03  0.00000000000E+00 0. -1.
         11    1    5    5    0    0 -0.32298671752E+02  0.40522224134E+02  0.32637076531E+03  0.33045897067E+03  0.00000000000E+00 0. -1.
        -12    1    5    5    0    0 -0.34718330096E+01 -0.34573748223E+02  0.21935569191E+03  0.22209078608E+03  0.00000000000E+00 0.  1.
          5    1    4    4  501    0  0.45111382097E+01  0.83885885768E+02  0.17275378989E+02  0.85866776568E+02  0.41800000000E+01 0.  1.
         -5    1    4    4    0  501 -0.49138726382E+02 -0.30746288571E+02 -0.82510251882E+00  0.58121440842E+02  0.41800000000E+01 0.  1.
</event>
<event>
11    1  0.1002087E-008  0.1652044E+03  0.7561462E-02  0.1082282E+00
         22   -1    0    0    0    0  0.00000000000E+00  0.00000000000E+00  0.22517478701E+03  0.22517478701E+03  0.00000000000E+00 0. -1.
         22   -1    0    0    0    0 -0.00000000000E+00 -0.00000000000E+00 -0.33276759299E+04  0.33276759299E+04  0.00000000000E+00 0. -1.
        -24    2    1    2    0    0  0.10459786662E+03 -0.25611664837E+02 -0.30782709964E+04  0.30811840993E+04  0.79664640568E+02 0.  0.
         25    2    1    2    0    0 -0.11707510156E+03 -0.49606419096E+01 -0.20698871965E+03  0.26874170062E+03  0.12508630706E+03 0.  0.
         24    2    1    2    0    0  0.12477234942E+02  0.30572306746E+02  0.18275857317E+03  0.20292491706E+03  0.81777005104E+02 0.  0.
        -11    1    5    5    0    0 -0.24661880699E+02 -0.14175198896E+02  0.43071464755E+02  0.51616816053E+02  0.00000000000E+00 0.  1.
         12    1    5    5    0    0  0.37139115641E+02  0.44747505642E+02  0.13968710842E+03  0.15130810101E+03  0.00000000000E+00 0. -1.
         13    1    3    3    0    0  0.99513056442E+02 -0.24772323151E+02 -0.18100975315E+04  0.18130001627E+04  0.00000000000E+00 0. -1.
        -14    1    3    3    0    0  0.50848101802E+01 -0.83934168576E+00 -0.12681734650E+04  0.12681839366E+04  0.00000000000E+00 0.  1.
          5    1    4    4  501    0 -0.71083202716E+02  0.42217312886E+02 -0.45910320494E+02  0.94659141891E+02  0.41800000000E+01 0.  1.
         -5    1    4    4    0  501 -0.45991898848E+02 -0.47177954795E+02 -0.16107839916E+03  0.17408255873E+03  0.41800000000E+01 0.  1.
</event>
<event>
11    1  0.1002087E-008  0.1377602E+03  0.7561462E-02  0.1110086E+00
         22   -1    0    0    0    0  0.00000000000E+00  0.00000000000E+00  0.21378788418E+03  0.21378788418E+03  0.00000000000E+00 0.  1.
         22   -1    0    0    0    0 -0.00000000000E+00 -0.00000000000E+00 -0.22210701034E+04  0.22210701034E+04  0.00000000000E+00 0.  1.
         24    2    1    2    0    0 -0.20694416138E+02 -0.53869201726E+02 -0.20507643504E+04  0.20530592923E+04  0.78024912572E+02 0.  0.
         25    2    1    2    0    0  0.27452086029E+02  0.50704089820E+02 -0.13092243661E+03  0.19003983529E+03  0.12509969161E+03 0.  0.
        -24    2    1    2    0    0 -0.67576698915E+01  0.31651119061E+01  0.17440456782E+03  0.19175885997E+03  0.79365124996E+02 0.  0.
        -13    1    3    3    0    0 -0.33669736922E+02 -0.26646204607E+02 -0.17964604966E+04  0.17969735633E+04  0.00000000000E+00 0.  1.
         14    1    3    3    0    0  0.12975320784E+02 -0.27222997120E+02 -0.25430385387E+03  0.25608572904E+03  0.00000000000E+00 0. -1.
         13    1    5    5    0    0 -0.79461691370E+01 -0.20020531489E+01 -0.66949824902E+01  0.10581711171E+02  0.00000000000E+00 0. -1.
        -14    1    5    5    0    0  0.11884992455E+01  0.51671650551E+01  0.18109955031E+03  0.18117714880E+03  0.00000000000E+00 0.  1.
          5    1    4    4  501    0 -0.99689896120E+01  0.85045622437E+02 -0.70495810756E+02  0.11099220866E+03  0.41800000000E+01 0.  1.
         -5    1    4    4    0  501  0.37421075641E+02 -0.34341532617E+02 -0.60426625849E+02  0.79047626632E+02  0.41800000000E+01 0.  1.
</event>
<event>
11    1  0.1002087E-008  0.1332855E+03  0.7561462E-02  0.1115297E+00
         22   -1    0    0    0    0  0.00000000000E+00  0.00000000000E+00  0.10956182506E+04  0.10956182506E+04  0.00000000000E+00 0. -1.
         22   -1    0    0    0    0 -0.00000000000E+00 -0.00000000000E+00 -0.10270333718E+03  0.10270333718E+03  0.00000000000E+00 0. -1.
         24    2    1    2    0    0  0.46483979205E+02  0.24694530135E+01 -0.67138891211E+02  0.11588625105E+03  0.82189621905E+02 0.  0.
         25    2    1    2    0    0 -0.33270341824E+02 -0.10949849682E+02  0.54785288762E+03  0.56304280853E+03  0.12509037899E+03 0.  0.
        -24    2    1    2    0    0 -0.13213637381E+02  0.84803966688E+01  0.51220091700E+03  0.51939252818E+03  0.84689442169E+02 0.  0.
        -11    1    3    3    0    0 -0.23861672910E+02  0.16729353150E+01 -0.20265070112E+02  0.31350457944E+02  0.00000000000E+00 0.  1.
         12    1    3    3    0    0  0.70345652116E+02  0.79651769850E+00 -0.46873821099E+02  0.84535793108E+02  0.00000000000E+00 0. -1.
         13    1    5    5    0    0 -0.28306008216E+02 -0.26735286228E+02  0.37262126446E+03  0.37464998647E+03  0.00000000000E+00 0. -1.
        -14    1    5    5    0    0  0.15092370835E+02  0.35215682896E+02  0.13957965253E+03  0.14474254171E+03  0.00000000000E+00 0.  1.
          5    1    4    4  501    0  0.34944156010E+02 -0.56342272857E+01  0.38091693831E+03  0.38258074292E+03  0.41800000000E+01 0.  1.
         -5    1    4    4    0  501 -0.68214497834E+02 -0.53156223966E+01  0.16693594930E+03  0.18046206561E+03  0.41800000000E+01 0.  1.
</event>
<event>
11    1  0.1002087E-008  0.1838007E+03  0.7561462E-02  0.1066609E+00
         22   -1    0    0    0    0  0.00000000000E+00  0.00000000000E+00  0.21284885707E+04  0.21284885707E+04  0.00000000000E+00 0. -1.
         22   -1    0    0    0    0 -0.00000000000E+00 -0.00000000000E+00 -0.34767119465E+03  0.34767119465E+03  0.00000000000E+00 0.  1.
         24    2    1    2    0    0 -0.12454532037E+03  0.16673470373E+02 -0.23229792036E+03  0.27625319620E+03  0.81018289103E+02 0.  0.
         25    2    1    2    0    0  0.19198417368E+03 -0.11136770323E+03  0.88153560339E+02  0.26959118768E+03  0.12509064718E+03 0.  0.
        -24    2    1    2    0    0 -0.67438853311E+02  0.94694232852E+02  0.19249617361E+04  0.19303153815E+04  0.84408470477E+02 0.  0.
        -11    1    3    3    0    0 -0.12938484311E+03 -0.16642976433E+01 -0.18975223925E+03  0.22967176538E+03  0.00000000000E+00 0.  1.
         12    1    3    3    0    0  0.48395227428E+01  0.18337768016E+02 -0.42545681115E+02  0.46581430825E+02  0.00000000000E+00 0. -1.
         11    1    5    5    0    0 -0.22100139941E+02  0.52915404969E+02  0.14790994752E+04  0.14802106992E+04  0.00000000000E+00 0. -1.
        -12    1    5    5    0    0 -0.45338713370E+02  0.41778827883E+02  0.44586226084E+03  0.45010468230E+03  0.00000000000E+00 0.  1.
          5    1    4    4  501    0  0.19205374676E+03 -0.62681722927E+02  0.88808437381E+02  0.22072165953E+03  0.41800000000E+01 0. -1.
         -5    1    4    4    0  501 -0.69573087446E-01 -0.48685980298E+02 -0.65487704198E+00  0.48869528154E+02  0.41800000000E+01 0. -1.
</event>
<event>
11    1  0.1002087E-008  0.2356488E+03  0.7561462E-02  0.1031835E+00
         22   -1    0    0    0    0  0.00000000000E+00  0.00000000000E+00  0.13526222609E+03  0.13526222609E+03  0.00000000000E+00 0.  1.
         22   -1    0    0    0    0 -0.00000000000E+00 -0.00000000000E+00 -0.16953146572E+04  0.16953146572E+04  0.00000000000E+00 0. -1.
        -24    2    1    2    0    0 -0.48761120372E+02  0.54276964228E+02 -0.87856549258E+03  0.88523280139E+03  0.80225633123E+02 0.  0.
         25    2    1    2    0    0 -0.15034187836E+03  0.45970665814E+01 -0.69551626603E+03  0.72250518505E+03  0.12508817972E+03 0.  0.
         24    2    1    2    0    0  0.19910299873E+03 -0.58874030809E+02  0.14029327499E+02  0.22283889683E+03  0.79700666912E+02 0.  0.
        -11    1    5    5    0    0  0.14364506485E+03 -0.47331018305E+02  0.45628482323E+02  0.15797496114E+03  0.00000000000E+00 0.  1.
         12    1    5    5    0    0  0.55457933881E+02 -0.11543012504E+02 -0.31599154824E+02  0.64863935693E+02  0.00000000000E+00 0. -1.
         11    1    3    3    0    0  0.20073466239E+02  0.33461849631E+01 -0.25578131529E+03  0.25658959888E+03  0.00000000000E+00 0. -1.
        -12    1    3    3    0    0 -0.68834586611E+02  0.50930779265E+02 -0.62278417729E+03  0.62864320252E+03  0.00000000000E+00 0.  1.
          5    1    4    4  501    0 -0.39228910415E+02 -0.36530747331E+02 -0.40767443148E+03  0.41120471470E+03  0.41800000000E+01 0.  1.
         -5    1    4    4    0  501 -0.11111296794E+03  0.41127813912E+02 -0.28784183456E+03  0.31130047035E+03  0.41800000000E+01 0.  1.
</event>
<event>
11    1  0.1002087E-008  0.1546278E+03  0.7561462E-02  0.1092242E+00
         22   -1    0    0    0    0  0.00000000000E+00  0.00000000000E+00  0.45036961763E+03  0.45036961763E+03  0.00000000000E+00 0. -1.
         22   -1    0    0    0    0 -0.00000000000E+00 -0.00000000000E+00 -0.13904412083E+04  0.13904412083E+04  0.00000000000E+00 0. -1.
        -24    2    1    2    0    0 -0.30592985667E+02  0.68089282316E+01 -0.13471718885E+04  0.13497487136E+04  0.77247656682E+02 0.  0.
         25    2    1    2    0    0 -0.47600188201E+02  0.59502524082E+02  0.19900277974E+03  0.24709736496E+03  0.12509465671E+03 0.  0.
         24    2    1    2    0    0  0.78193173868E+02 -0.66311452313E+02  0.20809751810E+03  0.24396474735E+03  0.75517148793E+02 0.  0.
        -13    1    5    5    0    0  0.11538641355E+02 -0.56962474801E+02  0.75667398922E+02  0.95411839094E+02  0.00000000000E+00 0.  1.
         14    1    5    5    0    0  0.66654532513E+02 -0.93489775119E+01  0.13243011918E+03  0.14855290825E+03  0.00000000000E+00 0. -1.
         13    1    3    3    0    0 -0.74729534242E+01 -0.47515427654E+01 -0.12171509180E+04  0.12171831330E+04  0.00000000000E+00 0. -1.
        -14    1    3    3    0    0 -0.23120032243E+02  0.11560470997E+02 -0.13002097046E+03  0.13256558053E+03  0.00000000000E+00 0.  1.
          5    1    4    4  501    0 -0.34119911226E+02  0.89529915304E+02  0.18982066999E+03  0.21267142081E+03  0.41800000000E+01 0. -1.
         -5    1    4    4    0  501 -0.13480276975E+02 -0.30027391223E+02  0.91821097547E+01  0.34425944148E+02  0.41800000000E+01 0. -1.
</event>
<event>
11    1  0.1002087E-008  0.1397180E+03  0.7561462E-02  0.1107874E+00
         22   -1    0    0    0    0  0.00000000000E+00  0.00000000000E+00  0.94146750365E+03  0.94146750365E+03  0.00000000000E+00 0. -1.
         22   -1    0    0    0    0 -0.00000000000E+00 -0.00000000000E+00 -0.17046928257E+03  0.17046928257E+03  0.00000000000E+00 0.  1.
        -24    2    1    2    0    0  0.59487240697E+02 -0.82161120812E+01 -0.12535314079E+03  0.16084921720E+03  0.80949518013E+02 0.  0.
         25    2    1    2    0    0 -0.89415601157E+02  0.41049873402E+02  0.23828423388E+03  0.28654288965E+03  0.12508880707E+03 0.  0.
         24    2    1    2    0    0  0.29928360460E+02 -0.32833761321E+02  0.65806712799E+03  0.66454467937E+03  0.81200512894E+02 0.  0.
        -11    1    5    5    0    0  0.25048577170E+02 -0.57752261110E+02  0.36583908082E+03  0.37121555455E+03  0.00000000000E+00 0.  1.
         12    1    5    5    0    0  0.48797832900E+01  0.24918499789E+02  0.29222804716E+03  0.29332912482E+03  0.00000000000E+00 0. -1.
         11    1    3    3    0    0 -0.15920102642E+02  0.67141530371E+01 -0.49038998804E+01  0.17960449693E+02  0.00000000000E+00 0. -1.
        -12    1    3    3    0    0  0.75407343339E+02 -0.14930265118E+02 -0.12044924090E+03  0.14288876751E+03  0.00000000000E+00 0.  1.
          5    1    4    4  501    0 -0.10600982034E+03  0.66859089859E+01  0.21932178212E+03  0.24372587039E+03  0.41800000000E+01 0.  1.
         -5    1    4    4    0  501  0.16594219187E+02  0.34363964416E+02  0.18962451763E+02  0.42817019252E+02  0.41800000000E+01 0.  1.
</event>
<event>
11    1  0.1002087E-008  0.1664421E+03  0.7561462E-02  0.1081170E+00
         22   -1    0    0    0    0  0.00000000000E+00  0.00000000000E+00  0.54361384152E+03  0.54361384152E+03  0.00000000000E+00 0. -1.
         22   -1    0    0    0    0 -0.00000000000E+00 -0.00000000000E+00 -0.29652578815E+03  0.29652578815E+03  0.00000000000E+00 0. -1.
        -24    2    1    2    0    0 -0.29272530878E+01 -0.87893315740E+02 -0.22635482261E+03  0.25560587088E+03  0.79775007038E+02 0.  0.
         25    2    1    2    0    0 -0.87896290761E+02  0.31694550121E+01  0.98566878306E+02  0.18192329878E+03  0.12507938986E+03 0.  0.
         24    2    1    2    0    0  0.90823543848E+02  0.84723860728E+02  0.37487599767E+03  0.40261046000E+03  0.78333391195E+02 0.  0.
        -11    1    5    5    0    0  0.25289157289E+02  0.40790020225E+02  0.54306736034E+02  0.72474745981E+02  0.00000000000E+00 0.  1.
         12    1    5    5    0    0  0.65534386559E+02  0.43933840503E+02  0.32056926164E+03  0.33013571402E+03  0.00000000000E+00 0. -1.
         11    1    3    3    0    0  0.36557295460E+02 -0.25324365391E+02 -0.93554545341E+02  0.10358673799E+03  0.00000000000E+00 0. -1.
        -12    1    3    3    0    0 -0.39484548548E+02 -0.62568950349E+02 -0.13280027727E+03  0.15201913289E+03  0.00000000000E+00 0.  1.
          5    1    4    4  501    0 -0.11489952125E+03  0.20059904852E+02  0.93190553233E+02  0.14935277493E+03  0.41800000000E+01 0. -1.
         -5    1    4    4    0  501  0.27003230494E+02 -0.16890449840E+02  0.53763250724E+01  0.32570523855E+02  0.41800000000E+01 0. -1.
</event>
<event>
11    1  0.1002087E-008  0.1264290E+03  0.7561462E-02  0.1123736E+00
         22   -1    0    0    0    0  0.00000000000E+00  0.00000000000E+00  0.27783162366E+03  0.27783162366E+03  0.00000000000E+00 0. -1.
         22   -1    0    0    0    0 -0.00000000000E+00 -0.00000000000E+00 -0.67941156103E+03  0.67941156103E+03  0.00000000000E+00 0. -1.
         24    2    1    2    0    0 -0.40133373340E+01  0.21238244718E+02 -0.45237478356E+03  0.45992094075E+03  0.80107159603E+02 0.  0.
         25    2    1    2    0    0  0.10107831312E+02 -0.19863013565E+00 -0.19846689045E+03  0.23481798977E+03  0.12509266167E+03 0.  0.
        -24    2    1    2    0    0 -0.60944939782E+01 -0.21039614582E+02  0.24926173665E+03  0.26250425417E+03  0.79355288796E+02 0.  0.
        -13    1    3    3    0    0 -0.10202953936E+02  0.38772816051E+01 -0.47279691139E+01  0.11894842312E+02  0.00000000000E+00 0.  1.
         14    1    3    3    0    0  0.61896166024E+01  0.17360963113E+02 -0.44764681445E+03  0.44802609844E+03  0.00000000000E+00 0. -1.
         11    1    5    5    0    0  0.36297731743E+01 -0.53467853174E+00  0.23638139827E+03  0.23640986989E+03  0.00000000000E+00 0. -1.
        -12    1    5    5    0    0 -0.97242671525E+01 -0.20504936051E+02  0.12880338386E+02  0.26094384282E+02  0.00000000000E+00 0.  1.
          5    1    4    4  501    0  0.42270813235E+02 -0.38221239144E+02 -0.42992952057E+02  0.71509098021E+02  0.41800000000E+01 0. -1.
         -5    1    4    4    0  501 -0.32162981922E+02  0.38022609008E+02 -0.15547393840E+03  0.16330889174E+03  0.41800000000E+01 0. -1.
</event>
<event>
11    1  0.1002087E-008  0.1286672E+03  0.7561462E-02  0.1120917E+00
         22   -1    0    0    0    0  0.00000000000E+00  0.00000000000E+00  0.28174285809E+03  0.28174285809E+03  0.00000000000E+00 0. -1.
         22   -1    0    0    0    0 -0.00000000000E+00 -0.00000000000E+00 -0.21452771718E+03  0.21452771718E+03  0.00000000000E+00 0. -1.
        -24    2    1    2    0    0  0.19006003388E+02 -0.10178196541E+02 -0.11712529906E+03  0.14458156447E+03  0.81979688062E+02 0.  0.
         25    2    1    2    0    0  0.69493039877E+01 -0.91255837402E+01 -0.22308912651E+02  0.12758158509E+03  0.12509118340E+03 0.  0.
         24    2    1    2    0    0 -0.25955307375E+02  0.19303780281E+02  0.20664935262E+03  0.22410742572E+03  0.80460359234E+02 0.  0.
        -11    1    5    5    0    0 -0.13761286776E+02  0.19002100928E+02  0.75671107572E+01  0.24651856291E+02  0.00000000000E+00 0.  1.
         12    1    5    5    0    0 -0.12194020599E+02  0.30167935368E+00  0.19908224186E+03  0.19945556942E+03  0.00000000000E+00 0. -1.
         11    1    3    3    0    0  0.31205499293E+02 -0.20885178623E+02 -0.12198862166E+03  0.12763697618E+03  0.00000000000E+00 0. -1.
        -12    1    3    3    0    0 -0.12199495905E+02  0.10706982081E+02  0.48633226035E+01  0.16944588292E+02  0.00000000000E+00 0.  1.
          5    1    4    4  501    0  0.41557199546E+02 -0.53391789527E+02 -0.21894817832E+02  0.71235801890E+02  0.41800000000E+01 0. -1.
         -5    1    4    4    0  501 -0.34607895559E+02  0.44266205787E+02 -0.41409481913E+00  0.56345783199E+02  0.41800000000E+01 0. -1.
</event>
<event>
11    1  0.1002087E-008  0.2593527E+04  0.7561462E-02  0.7859511E-01
         22   -1    0    0    0    0  0.00000000000E+00  0.00000000000E+00  0.79300504322E+03  0.79300504322E+03  0.00000000000E+00 0. -1.
         22   -1    0    0    0    0 -0.00000000000E+00 -0.00000000000E+00 -0.21205360788E+04  0.21205360788E+04  0.00000000000E+00 0. -1.
         24    2    1    2    0    0  0.92354384162E+03 -0.14362972485E+03 -0.10218412542E+04  0.13870333832E+04  0.78353889743E+02 0.  0.
         25    2    1    2    0    0 -0.11296120804E+04  0.33777718924E+03 -0.15553675947E+03  0.11958081446E+04  0.12509417773E+03 0.  0.
        -24    2    1    2    0    0  0.20606823880E+03 -0.19414746439E+03 -0.15015302190E+03  0.33069959423E+03  0.81602295728E+02 0.  0.
        -11    1    3    3    0    0  0.72188816294E+03 -0.86245552544E+02 -0.76262552491E+03  0.10536405964E+04  0.00000000000E+00 0.  1.
         12    1    3    3    0    0  0.20165567869E+03 -0.57384172309E+02 -0.25921572927E+03  0.33339278678E+03  0.00000000000E+00 0. -1.
         13    1    5    5    0    0  0.14111209615E+03 -0.79267472682E+02 -0.70389741614E+02  0.17649552864E+03  0.00000000000E+00 0. -1.
        -14    1    5    5    0    0  0.64956142644E+02 -0.11487999170E+03 -0.79763280287E+02  0.15420406559E+03  0.00000000000E+00 0.  1.
          5    1    4    4  501    0 -0.48469972688E+03  0.16072699992E+03 -0.12793296490E+03  0.52645162138E+03  0.41800000000E+01 0. -1.
         -5    1    4    4    0  501 -0.64491235354E+03  0.17705018932E+03 -0.27603794574E+02  0.66935652321E+03  0.41800000000E+01 0. -1.
</event>
<event>
11    1  0.1002087E-008  0.1381095E+03  0.7561462E-02  0.1109688E+00
         22   -1    0    0    0    0  0.00000000000E+00  0.00000000000E+00  0.13337271865E+04  0.13337271865E+04  0.00000000000E+00 0. -1.
         22   -1    0    0    0    0 -0.00000000000E+00 -0.00000000000E+00 -0.24268939012E+03  0.24268939012E+03  0.00000000000E+00 0.  1.
        -24    2    1    2    0    0 -0.16570254429E+02  0.59490350486E+01 -0.19403162493E+03  0.21156726508E+03  0.82477098838E+02 0.  0.
         25    2    1    2    0    0  0.18122776632E+02  0.52842376783E+02  0.86179276043E+02  0.16185043696E+03  0.12509174436E+03 0.  0.
         24    2    1    2    0    0 -0.15525222026E+01 -0.58791411832E+02  0.11988901453E+04  0.12029988746E+04  0.80061672616E+02 0.  0.
        -11    1    5    5    0    0  0.73410092087E+01  0.17798645689E+02  0.14190225816E+03  0.14320241994E+03  0.00000000000E+00 0.  1.
         12    1    5    5    0    0 -0.88935314113E+01 -0.76590057520E+02  0.10569878871E+04  0.10597964547E+04  0.00000000000E+00 0. -1.
         11    1    3    3    0    0 -0.93104395064E+01 -0.21487671771E+02 -0.10174976257E+02  0.25533007339E+02  0.00000000000E+00 0. -1.
        -12    1    3    3    0    0 -0.72598149226E+01  0.27436706820E+02 -0.18385664867E+03  0.18603425774E+03  0.00000000000E+00 0.  1.
          5    1    4    4  501    0  0.30901561717E+02 -0.22823606019E+02 -0.88411137863E+01  0.39641659920E+02  0.41800000000E+01 0. -1.
         -5    1    4    4    0  501 -0.12778785085E+02  0.75665982802E+02  0.95020389829E+02  0.12220877704E+03  0.41800000000E+01 0. -1.
</event>
<event>
11    1  0.1002087E-008  0.1861659E+03  0.7561462E-02  0.1064762E+00
         22   -1    0    0    0    0  0.00000000000E+00  0.00000000000E+00  0.32404816782E+03  0.32404816782E+03  0.00000000000E+00 0. -1.
         22   -1    0    0    0    0 -0.00000000000E+00 -0.00000000000E+00 -0.28749836447E+04  0.28749836447E+04  0.00000000000E+00 0. -1.
         24    2    1    2    0    0  0.23799369937E+02  0.13166774651E+03 -0.24679900617E+04  0.24729999271E+04  0.82770099005E+02 0.  0.
         25    2    1    2    0    0 -0.61266409863E+02 -0.18475438999E+03 -0.36192985406E+03  0.42956816553E+03  0.12509129455E+03 0.  0.
        -24    2    1    2    0    0  0.37467039926E+02  0.53086643483E+02  0.27898443887E+03  0.29646371990E+03  0.76396657568E+02 0.  0.
        -13    1    3    3    0    0  0.41946784516E+02  0.27012572918E+02 -0.93940780047E+03  0.94073175104E+03  0.00000000000E+00 0.  1.
         14    1    3    3    0    0 -0.18147414580E+02  0.10465517359E+03 -0.15285822613E+04  0.15322681761E+04  0.00000000000E+00 0. -1.
         11    1    5    5    0    0 -0.47903520305E+01  0.57414035163E+02  0.16974513224E+03  0.17925604265E+03  0.00000000000E+00 0. -1.
        -12    1    5    5    0    0  0.42257391957E+02 -0.43273916801E+01  0.10923930663E+03  0.11720767725E+03  0.00000000000E+00 0.  1.
          5    1    4    4  501    0 -0.25389723453E+02 -0.16557131694E+03 -0.34821571382E+03  0.38643260059E+03  0.41800000000E+01 0. -1.
         -5    1    4    4    0  501 -0.35876686411E+02 -0.19183073053E+02 -0.13714140243E+02  0.43135564934E+02  0.41800000000E+01 0. -1.
</event>
<event>
11    1  0.1002087E-008  0.4068400E+03  0.7561462E-02  0.9629789E-01
         22   -1    0    0    0    0  0.00000000000E+00  0.00000000000E+00  0.13990619936E+04  0.13990619936E+04  0.00000000000E+00 0.  1.
         22   -1    0    0    0    0 -0.00000000000E+00 -0.00000000000E+00 -0.22960799763E+04  0.22960799763E+04  0.00000000000E+00 0.  1.
         24    2    1    2    0    0  0.64927207988E+02  0.80265681792E+02 -0.17411846899E+04  0.17460490030E+04  0.79403239381E+02 0.  0.
         25    2    1    2    0    0 -0.21863721660E+03 -0.42972206181E+03 -0.40405962112E+03  0.64138467967E+03  0.12508735751E+03 0.  0.
        -24    2    1    2    0    0  0.15371000861E+03  0.34945638001E+03  0.12482263284E+04  0.13077082872E+04  0.79280952046E+02 0.  0.
        -11    1    3    3    0    0  0.62951477442E+02  0.89977436240E+02 -0.12639244073E+04  0.12686858298E+04  0.00000000000E+00 0.  1.
         12    1    3    3    0    0  0.19757305460E+01 -0.97117544481E+01 -0.47726028266E+03  0.47736317316E+03  0.00000000000E+00 0. -1.
         11    1    5    5    0    0  0.44060982286E+01  0.69743356941E+02  0.16923303413E+03  0.18309388133E+03  0.00000000000E+00 0. -1.
        -12    1    5    5    0    0  0.14930391038E+03  0.27971302307E+03  0.10789932942E+04  0.11246144059E+04  0.00000000000E+00 0.  1.
          5    1    4    4  501    0 -0.15918402277E+03 -0.39657494829E+03 -0.32446052553E+03  0.53656625662E+03  0.41800000000E+01 0.  1.
         -5    1    4    4    0  501 -0.59453193830E+02 -0.33147113511E+02 -0.79599095595E+02  0.10481842305E+03  0.41800000000E+01 0.  1.
</event>
<event>
11    1  0.1002087E-008  0.1601408E+03  0.7561462E-02  0.1086945E+00
         22   -1    0    0    0    0  0.00000000000E+00  0.00000000000E+00  0.11764373515E+04  0.11764373515E+04  0.00000000000E+00 0. -1.
         22   -1    0    0    0    0 -0.00000000000E+00 -0.00000000000E+00 -0.33727373973E+03  0.33727373973E+03  0.00000000000E+00 0. -1.
         24    2    1    2    0    0 -0.14434424444E+02  0.57288412561E+02 -0.29441136504E+03  0.31100581621E+03  0.80970680040E+02 0.  0.
         25    2    1    2    0    0 -0.48476476386E+02  0.29262011933E+02  0.12634881627E+03  0.18659324030E+03  0.12508708905E+03 0.  0.
        -24    2    1    2    0    0  0.62910900830E+02 -0.86550424494E+02  0.10072261606E+04  0.10161120347E+04  0.80810712210E+02 0.  0.
        -11    1    3    3    0    0  0.28230633141E+02  0.67498245573E+00 -0.64428676903E+02  0.70345423848E+02  0.00000000000E+00 0.  1.
         12    1    3    3    0    0 -0.42665057585E+02  0.56613430105E+02 -0.22998268814E+03  0.24066039236E+03  0.00000000000E+00 0. -1.
         13    1    5    5    0    0  0.29979816278E+02 -0.95237946662E+02  0.77351050018E+03  0.77992791318E+03  0.00000000000E+00 0. -1.
        -14    1    5    5    0    0  0.32931084551E+02  0.86875221688E+01  0.23371566039E+03  0.23618412157E+03  0.00000000000E+00 0.  1.
          5    1    4    4  501    0 -0.12936153921E+02  0.15296908961E+02  0.14319355420E+03  0.14464855985E+03  0.41800000000E+01 0. -1.
         -5    1    4    4    0  501 -0.35540322464E+02  0.13965102972E+02 -0.16844737930E+02  0.41944680447E+02  0.41800000000E+01 0. -1.
</event>
<event>
11    1  0.1002087E-008  0.1430817E+03  0.7561462E-02  0.1104165E+00
         22   -1    0    0    0    0  0.00000000000E+00  0.00000000000E+00  0.11623176702E+04  0.11623176702E+04  0.00000000000E+00 0.  1.
         22   -1    0    0    0    0 -0.00000000000E+00 -0.00000000000E+00 -0.77143553674E+03  0.77143553674E+03  0.00000000000E+00 0. -1.
         24    2    1    2    0    0 -0.61830575047E+02 -0.46569573619E+02 -0.44631406261E+03  0.45992635672E+03  0.79650900360E+02 0.  0.
         25    2    1    2    0    0  0.41790023206E+02  0.31820306056E+02 -0.30221522279E+03  0.33126954021E+03  0.12508608824E+03 0.  0.
        -24    2    1    2    0    0  0.20040551840E+02  0.14749267563E+02  0.11394114189E+04  0.11425573100E+04  0.80991731633E+02 0.  0.
        -11    1    3    3    0    0 -0.42515272105E+01 -0.36386612378E+02 -0.69130521191E+02  0.78237395177E+02  0.00000000000E+00 0.  1.
         12    1    3    3    0    0 -0.57579047836E+02 -0.10182961241E+02 -0.37718354142E+03  0.38168896155E+03  0.00000000000E+00 0. -1.
         13    1    5    5    0    0  0.82264731659E+01  0.42475076292E+02  0.36427585197E+03  0.36683607142E+03  0.00000000000E+00 0. -1.
        -14    1    5    5    0    0  0.11814078674E+02 -0.27725808728E+02  0.77513556691E+03  0.77572123860E+03  0.00000000000E+00 0.  1.
          5    1    4    4  501    0  0.62712285017E+02 -0.24500824591E+02 -0.10279240196E+03  0.12295068686E+03  0.41800000000E+01 0. -1.
         -5    1    4    4    0  501 -0.20922261811E+02  0.56321130646E+02 -0.19942282082E+03  0.20831885335E+03  0.41800000000E+01 0. -1.
</event>
<event>
11    1  0.1002087E-008  0.1575299E+03  0.7561462E-02  0.1089424E+00
         22   -1    0    0    0    0  0.00000000000E+00  0.00000000000E+00  0.47739075632E+03  0.47739075632E+03  0.00000000000E+00 0.  1.
         22   -1    0    0    0    0 -0.00000000000E+00 -0.00000000000E+00 -0.10750311894E+04  0.10750311894E+04  0.00000000000E+00 0. -1.
         24    2    1    2    0    0 -0.38950973422E+02  0.28888451298E+02 -0.93636549224E+03  0.94101774434E+03  0.79889543514E+02 0.  0.
         25    2    1    2    0    0  0.99871288963E+02 -0.98421470683E+02 -0.57248483814E+02  0.19643328516E+03  0.12509031285E+03 0.  0.
        -24    2    1    2    0    0 -0.60920315541E+02  0.69533019386E+02  0.39597354300E+03  0.41497091619E+03  0.82823238871E+02 0.  0.
        -13    1    3    3    0    0  0.21182624140E+01  0.37999247602E+02 -0.20900844591E+03  0.21244519367E+03  0.00000000000E+00 0.  1.
         14    1    3    3    0    0 -0.41069235836E+02 -0.91107963048E+01 -0.72735704633E+03  0.72857255067E+03  0.00000000000E+00 0. -1.
         11    1    5    5    0    0 -0.33560344901E+02  0.14173604249E+02  0.41770315515E+02  0.55425148313E+02  0.00000000000E+00 0. -1.
        -12    1    5    5    0    0 -0.27359970641E+02  0.55359415137E+02  0.35420322748E+03  0.35954576788E+03  0.00000000000E+00 0.  1.
          5    1    4    4  501    0  0.10574429671E+03 -0.72936151654E+02 -0.88062466649E+02  0.15580118401E+03  0.41800000000E+01 0. -1.
         -5    1    4    4    0  501 -0.58730077488E+01 -0.25485319029E+02  0.30813982835E+02  0.40632101154E+02  0.41800000000E+01 0. -1.
</event>
<event>
11    1  0.1385474E-008  0.1588548E+03  0.7561462E-02  0.1088159E+00
         22   -1    0    0    0    0  0.00000000000E+00  0.00000000000E+00  0.53021544535E+03  0.53021544535E+03  0.00000000000E+00 0.  1.
         22   -1    0    0    0    0 -0.00000000000E+00 -0.00000000000E+00 -0.12830635400E+04  0.12830635400E+04  0.00000000000E+00 0.  1.
        -24    2    1    2    0    0 -0.34556869739E+02  0.12443773558E+02 -0.99744071027E+03  0.10013304565E+04  0.80160388583E+02 0.  0.
         25    2    1    2    0    0  0.91279321576E+02 -0.91171567316E+02 -0.24673561660E+03  0.30525687506E+03  0.12513642969E+03 0.  0.
         24    2    1    2    0    0 -0.56722451837E+02  0.78727793758E+02  0.49132823219E+03  0.50669165381E+03  0.76925277011E+02 0.  0.
        -13    1    5    5    0    0 -0.18558720432E+02  0.63131931409E+02  0.41267411599E+03  0.41788753616E+03  0.00000000000E+00 0.  1.
         14    1    5    5    0    0 -0.38163731405E+02  0.15595862349E+02  0.78654116199E+02  0.88804117653E+02  0.00000000000E+00 0. -1.
         11    1    3    3    0    0  0.15760841716E+02  0.23748140756E+02 -0.17790763920E+03  0.18017632032E+03  0.00000000000E+00 0. -1.
        -12    1    3    3    0    0 -0.50317711454E+02 -0.11304367199E+02 -0.81953307107E+03  0.82115413619E+03  0.00000000000E+00 0.  1.
          5    1    4    4  501    0  0.16348609212E+02  0.40864825674E+01 -0.14761588834E+03  0.14863343922E+03  0.41800000000E+01 0.  1.
         -5    1    4    4    0  501  0.74930712364E+02 -0.95258049884E+02 -0.99119728261E+02  0.15662343584E+03  0.41800000000E+01 0.  1.
</event>
<event>
11    1  0.1002087E-008  0.2110955E+03  0.7561462E-02  0.1046943E+00
         22   -1    0    0    0    0  0.00000000000E+00  0.00000000000E+00  0.13796403706E+03  0.13796403706E+03  0.00000000000E+00 0.  1.
         22   -1    0    0    0    0 -0.00000000000E+00 -0.00000000000E+00 -0.51089585366E+03  0.51089585366E+03  0.00000000000E+00 0. -1.
         24    2    1    2    0    0 -0.14918481207E+03  0.11856529239E+03 -0.24818973591E+03  0.32316333553E+03  0.80762365694E+02 0.  0.
         25    2    1    2    0    0  0.73322170540E+02 -0.11574328796E+03 -0.51830362331E+02  0.19263442351E+03  0.12509590425E+03 0.  0.
        -24    2    1    2    0    0  0.75862641528E+02 -0.28220044313E+01 -0.72911718364E+02  0.13306213168E+03  0.81402138330E+02 0.  0.
        -11    1    3    3    0    0 -0.10967129223E+03  0.11842617780E+03 -0.16370759888E+03  0.22989721585E+03  0.00000000000E+00 0.  1.
         12    1    3    3    0    0 -0.39513519838E+02  0.13911458950E+00 -0.84482137031E+02  0.93266119681E+02  0.00000000000E+00 0. -1.
         11    1    5    5    0    0 -0.19714847283E+01 -0.54380972485E+01 -0.52142217475E+02  0.52462086281E+02  0.00000000000E+00 0. -1.
        -12    1    5    5    0    0  0.77834126256E+02  0.26160928172E+01 -0.20769500889E+02  0.80600045402E+02  0.00000000000E+00 0.  1.
          5    1    4    4  501    0  0.93289009224E+02 -0.84585168243E+02 -0.77021224935E+02  0.14767271725E+03  0.41800000000E+01 0. -1.
         -5    1    4    4    0  501 -0.19966838684E+02 -0.31158119713E+02  0.25190862604E+02  0.44961706260E+02  0.41800000000E+01 0. -1.
</event>
<event>
11    1  0.1002087E-008  0.1520910E+03  0.7561462E-02  0.1094761E+00
         22   -1    0    0    0    0  0.00000000000E+00  0.00000000000E+00  0.13691622574E+04  0.13691622574E+04  0.00000000000E+00 0.  1.
         22   -1    0    0    0    0 -0.00000000000E+00 -0.00000000000E+00 -0.90130566010E+02  0.90130566010E+02  0.00000000000E+00 0.  1.
        -24    2    1    2    0    0  0.10135776456E+02 -0.27192932186E+02 -0.26230018738E+02  0.91457286907E+02  0.82669413449E+02 0.  0.
         25    2    1    2    0    0 -0.54796585350E+02  0.98266260774E+02  0.22020898621E+03  0.27712517420E+03  0.12508973098E+03 0.  0.
         24    2    1    2    0    0  0.44660808894E+02 -0.71073328588E+02  0.10850527239E+04  0.10907103623E+04  0.72551187836E+02 0.  0.
        -13    1    5    5    0    0  0.40560147966E+02 -0.40933314190E+02  0.96982337977E+03  0.97153386445E+03  0.00000000000E+00 0.  1.
         14    1    5    5    0    0  0.41006609289E+01 -0.30140014398E+02  0.11522934413E+03  0.11917649784E+03  0.00000000000E+00 0. -1.
         11    1    3    3    0    0  0.71208924620E+01  0.53240371999E+01  0.27322726193E+02  0.28732974928E+02  0.00000000000E+00 0. -1.
        -12    1    3    3    0    0  0.30148839935E+01 -0.32516969386E+02 -0.53552744932E+02  0.62724311979E+02  0.00000000000E+00 0.  1.
          5    1    4    4  501    0 -0.69656233653E+02  0.11780711827E+03  0.20890223256E+03  0.24977614612E+03  0.41800000000E+01 0. -1.
         -5    1    4    4    0  501  0.14859648303E+02 -0.19540857491E+02  0.11306753649E+02  0.27349028086E+02  0.41800000000E+01 0. -1.
</event>
<event>
11    1  0.1002087E-008  0.1441840E+03  0.7561462E-02  0.1102974E+00
         22   -1    0    0    0    0  0.00000000000E+00  0.00000000000E+00  0.25189711691E+02  0.25189711691E+02  0.00000000000E+00 0.  1.
         22   -1    0    0    0    0 -0.00000000000E+00 -0.00000000000E+00 -0.22877269741E+04  0.22877269741E+04  0.00000000000E+00 0.  1.
        -24    2    1    2    0    0  0.43043855852E+02  0.14129866852E+01 -0.11686189059E+04  0.11720796116E+04  0.79029731996E+02 0.  0.
         25    2    1    2    0    0 -0.33634320048E+02  0.70432723614E+02 -0.94922328589E+03  0.96060588241E+03  0.12508708491E+03 0.  0.
         24    2    1    2    0    0 -0.94095358036E+01 -0.71845710300E+02 -0.14469507063E+03  0.18023119183E+03  0.79349061698E+02 0.  0.
        -13    1    5    5    0    0 -0.40464327058E+02 -0.62916414825E+02 -0.94318611658E+02  0.12038204818E+03  0.00000000000E+00 0.  1.
         14    1    5    5    0    0  0.31054791254E+02 -0.89292954743E+01 -0.50376458974E+02  0.59849143656E+02  0.00000000000E+00 0. -1.
         13    1    3    3    0    0  0.29082278272E+01  0.91176359083E+01 -0.15364509488E+02  0.18101304523E+02  0.00000000000E+00 0. -1.
        -14    1    3    3    0    0  0.40135628025E+02 -0.77046492232E+01 -0.11532543964E+04  0.11539783070E+04  0.00000000000E+00 0.  1.
          5    1    4    4  501    0  0.59354276768E+01  0.50062016857E+01 -0.69603597358E+03  0.69609183322E+03  0.41800000000E+01 0. -1.
         -5    1    4    4    0  501 -0.39569747725E+02  0.65426521929E+02 -0.25318731230E+03  0.26451404919E+03  0.41800000000E+01 0. -1.
</event>
<event>
11    1  0.1002087E-008  0.1496644E+03  0.7561462E-02  0.1097222E+00
         22   -1    0    0    0    0  0.00000000000E+00  0.00000000000E+00  0.71655648859E+03  0.71655648859E+03  0.00000000000E+00 0. -1.
         22   -1    0    0    0    0 -0.00000000000E+00 -0.00000000000E+00 -0.41816945665E+03  0.41816945665E+03  0.00000000000E+00 0. -1.
         24    2    1    2    0    0  0.31740382071E+02 -0.79867631278E+01 -0.30326338789E+03  0.31648161491E+03  0.84384180406E+02 0.  0.
         25    2    1    2    0    0 -0.73739160459E+02 -0.62016212031E+02 -0.41555424911E+02  0.16327338441E+03  0.12509144806E+03 0.  0.
        -24    2    1    2    0    0  0.41998778387E+02  0.70002975159E+02  0.64320584474E+03  0.65497094592E+03  0.92783982294E+02 0.  0.
        -13    1    3    3    0    0  0.32792812302E+02 -0.10973537971E+02 -0.38697815137E+02  0.51897090195E+02  0.00000000000E+00 0.  1.
         14    1    3    3    0    0 -0.10524302305E+01  0.29867748433E+01 -0.26456557276E+03  0.26458452472E+03  0.00000000000E+00 0. -1.
         13    1    5    5    0    0  0.15564990816E+02  0.88451705988E+02  0.51515230969E+03  0.52292243728E+03  0.00000000000E+00 0. -1.
        -14    1    5    5    0    0  0.26433787571E+02 -0.18448730829E+02  0.12805353504E+03  0.13204850863E+03  0.00000000000E+00 0.  1.
          5    1    4    4  501    0  0.13292338892E+01 -0.80381502992E+02 -0.21022719511E+02  0.83200841472E+02  0.41800000000E+01 0. -1.
         -5    1    4    4    0  501 -0.75068394348E+02  0.18365290961E+02 -0.20532705400E+02  0.80072542941E+02  0.41800000000E+01 0. -1.
</event>
<event>
11    1  0.1002087E-008  0.2581856E+03  0.7561462E-02  0.1019627E+00
         22   -1    0    0    0    0  0.00000000000E+00  0.00000000000E+00  0.12038979500E+04  0.12038979500E+04  0.00000000000E+00 0.  1.
         22   -1    0    0    0    0 -0.00000000000E+00 -0.00000000000E+00 -0.18585496157E+03  0.18585496157E+03  0.00000000000E+00 0. -1.
         24    2    1    2    0    0 -0.15711708482E+03 -0.99768254149E+02  0.64722977588E+02  0.21343309029E+03  0.82006934609E+02 0.  0.
         25    2    1    2    0    0  0.24981944315E+03  0.15718260097E+03  0.13650609618E+03  0.34841928024E+03  0.12508379722E+03 0.  0.
        -24    2    1    2    0    0 -0.92702358328E+02 -0.57414346816E+02  0.81681391466E+03  0.82790054104E+03  0.79650487777E+02 0.  0.
        -13    1    3    3    0    0 -0.23295666914E+02 -0.50698796298E+02 -0.24816971495E+01  0.55849931637E+02  0.00000000000E+00 0.  1.
         14    1    3    3    0    0 -0.13382141791E+03 -0.49069457851E+02  0.67204674738E+02  0.15758315865E+03  0.00000000000E+00 0. -1.
         11    1    5    5    0    0 -0.15485405548E+02 -0.27661854538E+02  0.74173818321E+02  0.80664312467E+02  0.00000000000E+00 0. -1.
        -12    1    5    5    0    0 -0.77216952780E+02 -0.29752492278E+02  0.74264009634E+03  0.74723622857E+03  0.00000000000E+00 0.  1.
          5    1    4    4  501    0  0.12772253604E+03  0.14719002748E+03  0.60098166662E+02  0.20397846072E+03  0.41800000000E+01 0.  1.
         -5    1    4    4    0  501  0.12209690711E+03  0.99925734868E+01  0.76407929513E+02  0.14444081952E+03  0.41800000000E+01 0.  1.
</event>
<event>
11    1  0.1002087E-008  0.1467135E+03  0.7561462E-02  0.1100285E+00
         22   -1    0    0    0    0  0.00000000000E+00  0.00000000000E+00  0.21044395102E+04  0.21044395102E+04  0.00000000000E+00 0.  1.
         22   -1    0    0    0    0 -0.00000000000E+00 -0.00000000000E+00 -0.11851098720E+03  0.11851098720E+03  0.00000000000E+00 0.  1.
        -24    2    1    2    0    0  0.75393350430E+02  0.12657485085E+02 -0.70444720085E+02  0.13190458263E+03  0.81191077797E+02 0.  0.
         25    2    1    2    0    0 -0.78838282443E+02 -0.75554956520E+01  0.31705634900E+03  0.34992079178E+03  0.12508905541E+03 0.  0.
         24    2    1    2    0    0  0.34449320126E+01 -0.51019894328E+01  0.17393168941E+04  0.17411251230E+04  0.79091959390E+02 0.  0.
        -11    1    5    5    0    0 -0.31075073933E+02 -0.20701534107E+02  0.11406255709E+04  0.11412365691E+04  0.00000000000E+00 0.  1.
         12    1    5    5    0    0  0.34520005945E+02  0.15599544674E+02  0.59869132321E+03  0.59988855389E+03  0.00000000000E+00 0. -1.
         13    1    3    3    0    0  0.29004654976E+00  0.99066647316E+01  0.15083838984E+02  0.18048499428E+02  0.00000000000E+00 0. -1.
        -14    1    3    3    0    0  0.75103303881E+02  0.27508203533E+01 -0.85528559068E+02  0.11385608320E+03  0.00000000000E+00 0.  1.
          5    1    4    4  501    0  0.88822516194E+01  0.44344676811E+02  0.11303415015E+03  0.12181763524E+03  0.41800000000E+01 0. -1.
         -5    1    4    4    0  501 -0.87720534062E+02 -0.51900172463E+02  0.20402219885E+03  0.22810315654E+03  0.41800000000E+01 0. -1.
</event>
<event>
11    1  0.1002087E-008  0.1621680E+03  0.7561462E-02  0.1085056E+00
         22   -1    0    0    0    0  0.00000000000E+00  0.00000000000E+00  0.27217058975E+03  0.27217058975E+03  0.00000000000E+00 0.  1.
         22   -1    0    0    0    0 -0.00000000000E+00 -0.00000000000E+00 -0.59454495263E+03  0.59454495263E+03  0.00000000000E+00 0.  1.
         24    2    1    2    0    0 -0.10540148155E+03  0.19208516590E+01 -0.48734966841E+03  0.50545726748E+03  0.82850395056E+02 0.  0.
         25    2    1    2    0    0  0.86305865082E+02 -0.21956491426E+02 -0.23032860224E+02  0.15527723025E+03  0.12509882382E+03 0.  0.
        -24    2    1    2    0    0  0.19095616464E+02  0.20035639767E+02  0.18800816575E+03  0.20598104465E+03  0.79467294748E+02 0.  0.
        -11    1    3    3    0    0 -0.51740275472E+02 -0.36916508568E-01 -0.39698410489E+03  0.40034165035E+03  0.00000000000E+00 0.  1.
         12    1    3    3    0    0 -0.53661206074E+02  0.19577681676E+01 -0.90365563519E+02  0.10511561712E+03  0.00000000000E+00 0. -1.
         13    1    5    5    0    0 -0.16065862105E+02 -0.14820366394E+02  0.16268944258E+02  0.27247637191E+02  0.00000000000E+00 0. -1.
        -14    1    5    5    0    0  0.35161478569E+02  0.34856006161E+02  0.17173922150E+03  0.17873340746E+03  0.00000000000E+00 0.  1.
          5    1    4    4  501    0  0.64775337245E+02  0.45357836280E+01 -0.70966398563E+02  0.96281461213E+02  0.41800000000E+01 0.  1.
         -5    1    4    4    0  501  0.21530527837E+02 -0.26492275054E+02  0.47933538339E+02  0.58995769037E+02  0.41800000000E+01 0.  1.
</event>
<event>
11    1  0.1002087E-008  0.1575850E+03  0.7561462E-02  0.1089371E+00
         22   -1    0    0    0    0  0.00000000000E+00  0.00000000000E+00  0.10079833196E+04  0.10079833196E+04  0.00000000000E+00 0. -1.
         22   -1    0    0    0    0 -0.00000000000E+00 -0.00000000000E+00 -0.18376107685E+03  0.18376107685E+03  0.00000000000E+00 0.  1.
         24    2    1    2    0    0  0.44674224546E+02  0.84270403535E+02 -0.13244318363E+03  0.17934028975E+03  0.74326680199E+02 0.  0.
         25    2    1    2    0    0 -0.68048361791E+02 -0.77972333378E+02  0.23260646574E+03  0.28365856536E+03  0.12508456934E+03 0.  0.
        -24    2    1    2    0    0  0.23374137245E+02 -0.62980701575E+01  0.72405896066E+03  0.72874554137E+03  0.78883899265E+02 0.  0.
        -13    1    3    3    0    0  0.18569798388E+02  0.92662693130E+01 -0.83528509506E+02  0.86068072242E+02  0.00000000000E+00 0.  1.
         14    1    3    3    0    0  0.26104426158E+02  0.75004134222E+02 -0.48914674121E+02  0.93272217513E+02  0.00000000000E+00 0. -1.
         11    1    5    5    0    0  0.47609166404E+02 -0.11611737123E+02  0.61267742757E+03  0.61463411508E+03  0.00000000000E+00 0. -1.
        -12    1    5    5    0    0 -0.24235029159E+02  0.53136669652E+01  0.11138153310E+03  0.11411142629E+03  0.00000000000E+00 0.  1.
          5    1    4    4  501    0 -0.24033507666E+02 -0.28861832644E+02 -0.39968105649E+01  0.38000812741E+02  0.41800000000E+01 0.  1.
         -5    1    4    4    0  501 -0.44014854125E+02 -0.49110500733E+02  0.23660327630E+03  0.24565775262E+03  0.41800000000E+01 0.  1.
</event>
<event>
11    1  0.1002087E-008  0.1884898E+03  0.7561462E-02  0.1062975E+00
         22   -1    0    0    0    0  0.00000000000E+00  0.00000000000E+00  0.81467825667E+03  0.81467825667E+03  0.00000000000E+00 0.  1.
         22   -1    0    0    0    0 -0.00000000000E+00 -0.00000000000E+00 -0.10229404784E+04  0.10229404784E+04  0.00000000000E+00 0.  1.
         24    2    1    2    0    0 -0.57952486485E+02 -0.68606124388E+02 -0.96370515967E+03  0.97122061235E+03  0.80477028275E+02 0.  0.
         25    2    1    2    0    0  0.14849715167E+03  0.15096126917E+03  0.30056972938E+03  0.38836964691E+03  0.12509241216E+03 0.  0.
        -24    2    1    2    0    0 -0.90544665186E+02 -0.82355144780E+02  0.45487320856E+03  0.47802847582E+03  0.81368799680E+02 0.  0.
        -13    1    3    3    0    0 -0.68875164848E+02 -0.65828719999E+02 -0.94160339325E+03  0.94641119969E+03  0.00000000000E+00 0.  1.
         14    1    3    3    0    0  0.10922678363E+02 -0.27774043885E+01 -0.22101766422E+02  0.24809412664E+02  0.00000000000E+00 0. -1.
         13    1    5    5    0    0 -0.95769119778E+02 -0.39455481604E+02  0.30995013549E+03  0.32679893792E+03  0.00000000000E+00 0. -1.
        -14    1    5    5    0    0  0.52244545922E+01 -0.42899663175E+02  0.14492307307E+03  0.15122953790E+03  0.00000000000E+00 0.  1.
          5    1    4    4  501    0  0.13486430010E+03  0.12699114178E+03  0.30805992554E+03  0.35949063918E+03  0.41800000000E+01 0. -1.
         -5    1    4    4    0  501  0.13632851569E+02  0.23970127389E+02 -0.74901961632E+01  0.28879007731E+02  0.41800000000E+01 0. -1.
</event>
<event>
11    1  0.1002087E-008  0.1812491E+03  0.7561462E-02  0.1068637E+00
         22   -1    0    0    0    0  0.00000000000E+00  0.00000000000E+00  0.15073517661E+04  0.15073517661E+04  0.00000000000E+00 0.  1.
         22   -1    0    0    0    0 -0.00000000000E+00 -0.00000000000E+00 -0.14620133982E+04  0.14620133982E+04  0.00000000000E+00 0.  1.
        -24    2    1    2    0    0  0.11449630659E+03 -0.63426231333E+02 -0.14186161629E+04  0.14275677967E+04  0.91354833586E+02 0.  0.
         25    2    1    2    0    0 -0.11879308132E+03  0.89545702265E+02  0.21442731279E+03  0.28940112804E+03  0.12507482352E+03 0.  0.
         24    2    1    2    0    0  0.42967747327E+01 -0.26119470932E+02  0.12495272180E+04  0.12523962395E+04  0.80482192000E+02 0.  0.
        -13    1    5    5    0    0  0.35020112254E+02 -0.35384990437E+02  0.90832591180E+03  0.90968921498E+03  0.00000000000E+00 0.  1.
         14    1    5    5    0    0 -0.30723337521E+02  0.92655195055E+01  0.34120130617E+03  0.34270702452E+03  0.00000000000E+00 0. -1.
         11    1    3    3    0    0  0.14369754546E+02  0.22565497788E+02 -0.18793936378E+03  0.18983386419E+03  0.00000000000E+00 0. -1.
        -12    1    3    3    0    0  0.10012655204E+03 -0.85991729120E+02 -0.12306767991E+04  0.12377339325E+04  0.00000000000E+00 0.  1.
          5    1    4    4  501    0 -0.27003659783E+02  0.86095234295E+02  0.56160970421E+02  0.10636312335E+03  0.41800000000E+01 0.  1.
         -5    1    4    4    0  501 -0.91789421535E+02  0.34504679698E+01  0.15826634237E+03  0.18303800469E+03  0.41800000000E+01 0.  1.
</event>
<event>
11    1  0.1002087E-008  0.1329087E+03  0.7561462E-02  0.1115746E+00
         22   -1    0    0    0    0  0.00000000000E+00  0.00000000000E+00  0.37526217449E+04  0.37526217449E+04  0.00000000000E+00 0.  1.
         22   -1    0    0    0    0 -0.00000000000E+00 -0.00000000000E+00 -0.24907573219E+02  0.24907573219E+02  0.00000000000E+00 0.  1.
         24    2    1    2    0    0 -0.49495415277E+02 -0.71302085759E+01  0.11839093469E+03  0.15016248949E+03  0.77664173380E+02 0.  0.
         25    2    1    2    0    0  0.27707585976E+02 -0.10951132309E+02  0.48136580545E+03  0.49824409096E+03  0.12508596205E+03 0.  0.
        -24    2    1    2    0    0  0.21787829301E+02  0.18081340885E+02  0.31279574316E+04  0.31291227377E+04  0.80559105116E+02 0.  0.
        -13    1    3    3    0    0  0.14934048153E+02  0.43994915358E+01  0.80782469504E+00  0.15589544597E+02  0.00000000000E+00 0.  1.
         14    1    3    3    0    0 -0.64429463430E+02 -0.11529700112E+02  0.11758310999E+03  0.13457294489E+03  0.00000000000E+00 0. -1.
         11    1    5    5    0    0 -0.81109481306E+01  0.25537416148E+02  0.36073655317E+03  0.36173029718E+03  0.00000000000E+00 0. -1.
        -12    1    5    5    0    0  0.29898777432E+02 -0.74560752624E+01  0.27672208784E+04  0.27673924405E+04  0.00000000000E+00 0.  1.
          5    1    4    4  501    0 -0.23266452665E+02 -0.37663495764E+02  0.37146327012E+03  0.37411535678E+03  0.41800000000E+01 0.  1.
         -5    1    4    4    0  501  0.50974038641E+02  0.26712363454E+02  0.10990253533E+03  0.12412873417E+03  0.41800000000E+01 0.  1.
</event>
<event>
11    1  0.1002087E-008  0.3497519E+03  0.7561462E-02  0.9810886E-01
         22   -1    0    0    0    0  0.00000000000E+00  0.00000000000E+00  0.68174681206E+03  0.68174681206E+03  0.00000000000E+00 0.  1.
         22   -1    0    0    0    0 -0.00000000000E+00 -0.00000000000E+00 -0.13139972670E+04  0.13139972670E+04  0.00000000000E+00 0. -1.
        -24    2    1    2    0    0  0.24855880833E+03  0.30642462490E+02 -0.35971497480E+03  0.44524508244E+03  0.78280767962E+02 0.  0.
         25    2    1    2    0    0 -0.40652450870E+03 -0.14859242487E+03 -0.83518846060E+03  0.94896155545E+03  0.12508550714E+03 0.  0.
         24    2    1    2    0    0  0.15796570037E+03  0.11794996238E+03  0.56265298048E+03  0.60153744114E+03  0.80022250198E+02 0.  0.
        -11    1    5    5    0    0  0.73068918376E+02  0.99177296043E+02  0.28219956873E+03  0.30791524723E+03  0.00000000000E+00 0.  1.
         12    1    5    5    0    0  0.84896781998E+02  0.18772666341E+02  0.28045341176E+03  0.29362219392E+03  0.00000000000E+00 0. -1.
         13    1    3    3    0    0  0.38328137776E+02  0.26169234180E+02 -0.33924449547E+02  0.57486896246E+02  0.00000000000E+00 0. -1.
        -14    1    3    3    0    0  0.21023067055E+03  0.44732283102E+01 -0.32579052526E+03  0.38775818619E+03  0.00000000000E+00 0.  1.
          5    1    4    4  501    0 -0.40381258581E+03 -0.12585323344E+03 -0.75448098921E+03  0.86496397399E+03  0.41800000000E+01 0.  1.
         -5    1    4    4    0  501 -0.27119228962E+01 -0.22739191430E+02 -0.80707471392E+02  0.83997581460E+02  0.41800000000E+01 0.  1.
</event>
<event>
11    1  0.1002087E-008  0.1651290E+03  0.7561462E-02  0.1082350E+00
         22   -1    0    0    0    0  0.00000000000E+00  0.00000000000E+00  0.27156016893E+03  0.27156016893E+03  0.00000000000E+00 0. -1.
         22   -1    0    0    0    0 -0.00000000000E+00 -0.00000000000E+00 -0.23502378850E+04  0.23502378850E+04  0.00000000000E+00 0. -1.
        -24    2    1    2    0    0 -0.50280142987E+01  0.18851318149E+02 -0.20407281037E+04  0.20424197430E+04  0.80787128329E+02 0.  0.
         25    2    1    2    0    0  0.10857339718E+03 -0.46433814679E+02 -0.26291299778E+03  0.31419013650E+03  0.12509162941E+03 0.  0.
         24    2    1    2    0    0 -0.10354538288E+03  0.27582496530E+02  0.22496338549E+03  0.26518817438E+03  0.90740303008E+02 0.  0.
        -13    1    5    5    0    0  0.98019222665E+01  0.10226320981E+02  0.75435740621E+02  0.76754193917E+02  0.00000000000E+00 0.  1.
         14    1    5    5    0    0 -0.11334730514E+03  0.17356175549E+02  0.14952764487E+03  0.18843398047E+03  0.00000000000E+00 0. -1.
         11    1    3    3    0    0 -0.33803861890E+02  0.31826440402E+02 -0.84456414619E+03  0.84583935852E+03  0.00000000000E+00 0. -1.
        -12    1    3    3    0    0  0.28775847591E+02 -0.12975122253E+02 -0.11961639575E+04  0.11965803845E+04  0.00000000000E+00 0.  1.
          5    1    4    4  501    0  0.19497919873E+02 -0.47135780235E+02 -0.19180960717E+02  0.54656493775E+02  0.41800000000E+01 0. -1.
         -5    1    4    4    0  501  0.89075477302E+02  0.70196555663E+00 -0.24373203707E+03  0.25953364272E+03  0.41800000000E+01 0. -1.
</event>
<event>
11    1  0.1002087E-008  0.1290341E+03  0.7561462E-02  0.1120461E+00
         22   -1    0    0    0    0  0.00000000000E+00  0.00000000000E+00  0.70500388272E+03  0.70500388272E+03  0.00000000000E+00 0.  1.
         22   -1    0    0    0    0 -0.00000000000E+00 -0.00000000000E+00 -0.25059809297E+03  0.25059809297E+03  0.00000000000E+00 0. -1.
         24    2    1    2    0    0 -0.10444574632E+02 -0.28704088232E+02 -0.21263289831E+03  0.22782330443E+03  0.75879475343E+02 0.  0.
         25    2    1    2    0    0  0.21694855628E+02  0.53861017734E+02  0.15463351831E+03  0.20719701787E+03  0.12508958084E+03 0.  0.
        -24    2    1    2    0    0 -0.11250280996E+02 -0.25156929502E+02  0.51240516974E+03  0.52058165340E+03  0.87674169254E+02 0.  0.
        -13    1    3    3    0    0 -0.40966197390E+02 -0.94207195605E+01 -0.14727990798E+03  0.15316119150E+03  0.00000000000E+00 0.  1.
         14    1    3    3    0    0  0.30521622758E+02 -0.19283368672E+02 -0.65352990328E+02  0.74662112935E+02  0.00000000000E+00 0. -1.
         11    1    5    5    0    0 -0.43483317053E+02  0.88292369527E+01  0.21749649247E+03  0.22197630172E+03  0.00000000000E+00 0. -1.
        -12    1    5    5    0    0  0.32233036058E+02 -0.33986166454E+02  0.29490867727E+03  0.29860535168E+03  0.00000000000E+00 0.  1.
          5    1    4    4  501    0  0.42773391498E+02  0.87789788349E+02  0.10894950941E+03  0.14636966202E+03  0.41800000000E+01 0. -1.
         -5    1    4    4    0  501 -0.21078535870E+02 -0.33928770615E+02  0.45684008902E+02  0.60827355846E+02  0.41800000000E+01 0. -1.
</event>
<event>
11    1  0.1002087E-008  0.2820699E+03  0.7561462E-02  0.1008079E+00
         22   -1    0    0    0    0  0.00000000000E+00  0.00000000000E+00  0.19422761600E+04  0.19422761600E+04  0.00000000000E+00 0.  1.
         22   -1    0    0    0    0 -0.00000000000E+00 -0.00000000000E+00 -0.10912201443E+04  0.10912201443E+04  0.00000000000E+00 0.  1.
         24    2    1    2    0    0 -0.24295371926E+02 -0.43142578465E+02 -0.10325487833E+04  0.10369868667E+04  0.82056227682E+02 0.  0.
         25    2    1    2    0    0  0.73157845917E+01  0.28654841838E+03  0.50497004436E+03  0.59397471947E+03  0.12509078658E+03 0.  0.
        -24    2    1    2    0    0  0.16979587334E+02 -0.24340583992E+03  0.13786347547E+04  0.14025347182E+04  0.83277486197E+02 0.  0.
        -11    1    3    3    0    0 -0.19951408761E+02 -0.67318545160E+02 -0.69180926332E+03  0.69536314401E+03  0.00000000000E+00 0.  1.
         12    1    3    3    0    0 -0.43439631651E+01  0.24175966695E+02 -0.34073952000E+03  0.34162372264E+03  0.00000000000E+00 0. -1.
         11    1    5    5    0    0  0.16600955901E+02 -0.14714588949E+03  0.60142096044E+03  0.61938249587E+03  0.00000000000E+00 0. -1.
        -12    1    5    5    0    0  0.37863143299E+00 -0.96259950427E+02  0.77721379421E+03  0.78315222232E+03  0.00000000000E+00 0.  1.
          5    1    4    4  501    0 -0.93335613481E+01  0.83102174089E+02  0.55911176792E+02  0.10068077670E+03  0.41800000000E+01 0. -1.
         -5    1    4    4    0  501  0.16649345940E+02  0.20344624430E+03  0.44905886757E+03  0.49329394278E+03  0.41800000000E+01 0. -1.
</event>
<event>
11    1  0.1002087E-008  0.1946616E+03  0.7561462E-02  0.1058364E+00
         22   -1    0    0    0    0  0.00000000000E+00  0.00000000000E+00  0.64622108216E+03  0.64622108216E+03  0.00000000000E+00 0. -1.
         22   -1    0    0    0    0 -0.00000000000E+00 -0.00000000000E+00 -0.87022661551E+03  0.87022661551E+03  0.00000000000E+00 0.  1.
        -24    2    1    2    0    0 -0.27897834060E+02  0.19646189366E+02 -0.71729313221E+03  0.72259307875E+03  0.80418020620E+02 0.  0.
         25    2    1    2    0    0  0.16034523633E+03  0.45883100146E+02 -0.58900913784E+02  0.21664003330E+03  0.12509089772E+03 0.  0.
         24    2    1    2    0    0 -0.13244740227E+03 -0.65529289512E+02  0.55218851263E+03  0.57721458562E+03  0.80175571224E+02 0.  0.
        -11    1    5    5    0    0 -0.76433427627E+02  0.47082225940E+01  0.21367759333E+03  0.22698535220E+03  0.00000000000E+00 0.  1.
         12    1    5    5    0    0 -0.56013974638E+02 -0.70237512106E+02  0.33851091930E+03  0.35022923343E+03  0.00000000000E+00 0. -1.
         13    1    3    3    0    0 -0.52168537699E+01 -0.26865564155E+02 -0.12088159110E+03  0.12394084544E+03  0.00000000000E+00 0. -1.
        -14    1    3    3    0    0 -0.22680980290E+02  0.46511753521E+02 -0.59641154111E+03  0.59865223331E+03  0.00000000000E+00 0.  1.
          5    1    4    4  501    0  0.16510657093E+03  0.16444620812E+02 -0.19600391024E+02  0.16712944997E+03  0.41800000000E+01 0. -1.
         -5    1    4    4    0  501 -0.47613346046E+01  0.29438479334E+02 -0.39300522760E+02  0.49510583332E+02  0.41800000000E+01 0. -1.
</event>
<event>
11    1  0.1002087E-008  0.1330315E+03  0.7561462E-02  0.1115599E+00
         22   -1    0    0    0    0  0.00000000000E+00  0.00000000000E+00  0.92463292490E+03  0.92463292490E+03  0.00000000000E+00 0.  1.
         22   -1    0    0    0    0 -0.00000000000E+00 -0.00000000000E+00 -0.85220616522E+02  0.85220616522E+02  0.00000000000E+00 0.  1.
         24    2    1    2    0    0  0.29800321357E+02 -0.26907799051E+02 -0.35474040266E+02  0.95730660703E+02  0.79333870844E+02 0.  0.
         25    2    1    2    0    0  0.18068531002E+02  0.57071373570E+01  0.23501803491E+03  0.26690870391E+03  0.12509091199E+03 0.  0.
        -24    2    1    2    0    0 -0.47868852359E+02  0.21200661694E+02  0.63986831373E+03  0.64721417680E+03  0.81938004943E+02 0.  0.
        -11    1    3    3    0    0 -0.25846371114E+02 -0.19344187770E+02 -0.82481476702E+01  0.33320630850E+02  0.00000000000E+00 0.  1.
         12    1    3    3    0    0  0.55646692471E+02 -0.75636112807E+01 -0.27225892596E+02  0.62410029853E+02  0.00000000000E+00 0. -1.
         11    1    5    5    0    0  0.20490376357E+02 -0.27754055089E+00  0.24826899782E+03  0.24911328313E+03  0.00000000000E+00 0. -1.
        -12    1    5    5    0    0 -0.68359228716E+02  0.21478202245E+02  0.39159931591E+03  0.39810089367E+03  0.00000000000E+00 0.  1.
          5    1    4    4  501    0  0.26465261367E+02  0.61472614958E+02  0.98679720391E+02  0.11930822296E+03  0.41800000000E+01 0. -1.
         -5    1    4    4    0  501 -0.83967303654E+01 -0.55765477601E+02  0.13633831452E+03  0.14760048095E+03  0.41800000000E+01 0. -1.
</event>
<event>
11    1  0.1002087E-008  0.1808863E+03  0.7561462E-02  0.1068928E+00
         22   -1    0    0    0    0  0.00000000000E+00  0.00000000000E+00  0.55506057519E+03  0.55506057519E+03  0.00000000000E+00 0.  1.
         22   -1    0    0    0    0 -0.00000000000E+00 -0.00000000000E+00 -0.38013621005E+03  0.38013621005E+03  0.00000000000E+00 0. -1.
         24    2    1    2    0    0  0.83397724131E+02  0.10555612770E+03 -0.31977936065E+03  0.35642496638E+03  0.81747420021E+02 0.  0.
         25    2    1    2    0    0 -0.57432651146E+02 -0.75414592053E+02  0.13412271275E+03  0.20644928063E+03  0.12508610348E+03 0.  0.
        -24    2    1    2    0    0 -0.25965072985E+02 -0.30141535648E+02  0.36058101304E+03  0.37232253823E+03  0.83801600936E+02 0.  0.
        -11    1    3    3    0    0 -0.12625500556E+02  0.17648392405E+02 -0.19639953101E+02  0.29267674602E+02  0.00000000000E+00 0.  1.
         12    1    3    3    0    0  0.96023224687E+02  0.87907735296E+02 -0.30013940755E+03  0.32715729178E+03  0.00000000000E+00 0. -1.
         11    1    5    5    0    0  0.16502789362E+02 -0.39097560707E+02  0.10798047295E+03  0.11602044582E+03  0.00000000000E+00 0. -1.
        -12    1    5    5    0    0 -0.42467862348E+02  0.89560250585E+01  0.25260054010E+03  0.25630209241E+03  0.00000000000E+00 0.  1.
          5    1    4    4  501    0  0.32470520851E+02 -0.20144433414E+02  0.36884199800E+01  0.38616185258E+02  0.41800000000E+01 0.  1.
         -5    1    4    4    0  501 -0.89903171997E+02 -0.55270158639E+02  0.13043429277E+03  0.16783309537E+03  0.41800000000E+01 0.  1.
</event>
<event>
11    1  0.1002087E-008  0.1506382E+03  0.7561462E-02  0.1096228E+00
         22   -1    0    0    0    0  0.00000000000E+00  0.00000000000E+00  0.69495618621E+03  0.69495618621E+03  0.00000000000E+00 0.  1.
         22   -1    0    0    0    0 -0.00000000000E+00 -0.00000000000E+00 -0.98967580134E+03  0.98967580134E+03  0.00000000000E+00 0. -1.
        -24    2    1    2    0    0  0.10308733304E+02  0.79447393968E+02 -0.83968256673E+03  0.84732132698E+03  0.80426736229E+02 0.  0.
         25    2    1    2    0    0 -0.28827576355E+02 -0.15091931273E+03 -0.71852153621E+02  0.21075436702E+03  0.12508798154E+03 0.  0.
         24    2    1    2    0    0  0.18518843051E+02  0.71471918757E+02  0.61681510522E+03  0.62655629355E+03  0.81613309231E+02 0.  0.
        -13    1    5    5    0    0  0.29654414108E+02  0.78317356490E+02  0.59682673270E+03  0.60267332899E+03  0.00000000000E+00 0.  1.
         14    1    5    5    0    0 -0.11135571057E+02 -0.68454377329E+01  0.19988372515E+02  0.23882964563E+02  0.00000000000E+00 0. -1.
         13    1    3    3    0    0  0.45386263381E+01  0.82898235955E+02 -0.45083592998E+03  0.45841657084E+03  0.00000000000E+00 0. -1.
        -14    1    3    3    0    0  0.57701069661E+01 -0.34508419865E+01 -0.38884663675E+03  0.38890475615E+03  0.00000000000E+00 0.  1.
          5    1    4    4  501    0 -0.17609795462E+02 -0.98773931763E+02 -0.10699946182E+03  0.14674042293E+03  0.41800000000E+01 0. -1.
         -5    1    4    4    0  501 -0.11217780893E+02 -0.52145380963E+02  0.35147308201E+02  0.64013944088E+02  0.41800000000E+01 0. -1.
</event>
<event>
11    1  0.1002087E-008  0.1487345E+03  0.7561462E-02  0.1098179E+00
         22   -1    0    0    0    0  0.00000000000E+00  0.00000000000E+00  0.64578839338E+03  0.64578839338E+03  0.00000000000E+00 0. -1.
         22   -1    0    0    0    0 -0.00000000000E+00 -0.00000000000E+00 -0.32445216478E+03  0.32445216478E+03  0.00000000000E+00 0.  1.
         24    2    1    2    0    0 -0.78661453517E+02 -0.32461023330E+01 -0.23754896373E+03  0.26314743451E+03  0.81356626468E+02 0.  0.
         25    2    1    2    0    0  0.93856965382E+02 -0.56724822048E+02  0.30900445046E+02  0.16920184735E+03  0.12509033638E+03 0.  0.
        -24    2    1    2    0    0 -0.15195511865E+02  0.59970924381E+02  0.52798474727E+03  0.53789127630E+03  0.82047037821E+02 0.  0.
        -13    1    3    3    0    0 -0.38307335356E+02 -0.33164530399E+02 -0.59518038668E+02  0.78164793516E+02  0.00000000000E+00 0.  1.
         14    1    3    3    0    0 -0.40354118162E+02  0.29918428066E+02 -0.17803092506E+03  0.18498264099E+03  0.00000000000E+00 0. -1.
         13    1    5    5    0    0  0.11871183849E+02  0.64693698398E+02  0.45812706539E+03  0.46282459708E+03  0.00000000000E+00 0. -1.
        -14    1    5    5    0    0 -0.27066695714E+02 -0.47227740171E+01  0.69857681885E+02  0.75066679224E+02  0.00000000000E+00 0.  1.
          5    1    4    4  501    0  0.54166482670E+02 -0.13605973374E+02  0.76513495320E+02  0.94820449917E+02  0.41800000000E+01 0.  1.
         -5    1    4    4    0  501  0.39690482712E+02 -0.43118848674E+02 -0.45613050274E+02  0.74381397434E+02  0.41800000000E+01 0.  1.
</event>
<event>
11    1  0.1002087E-008  0.1722613E+03  0.7561462E-02  0.1076080E+00
         22   -1    0    0    0    0  0.00000000000E+00  0.00000000000E+00  0.10545851690E+04  0.10545851690E+04  0.00000000000E+00 0.  1.
         22   -1    0    0    0    0 -0.00000000000E+00 -0.00000000000E+00 -0.15536155001E+04  0.15536155001E+04  0.00000000000E+00 0. -1.
        -24    2    1    2    0    0 -0.43585496385E+02  0.11133264032E+03 -0.14821581821E+04  0.14892822046E+04  0.82909323059E+02 0.  0.
         25    2    1    2    0    0  0.45509543719E+02 -0.78515811595E+02  0.24775711558E+02  0.15651643267E+03  0.12509079332E+03 0.  0.
         24    2    1    2    0    0 -0.19240473345E+01 -0.32816828722E+02  0.95835213948E+03  0.96240203175E+03  0.81842539496E+02 0.  0.
        -11    1    5    5    0    0  0.34196637103E+02 -0.15338369300E+02  0.69504869115E+03  0.69605844484E+03  0.00000000000E+00 0.  1.
         12    1    5    5    0    0 -0.36120684437E+02 -0.17478459422E+02  0.26330344833E+03  0.26634358691E+03  0.00000000000E+00 0. -1.
         11    1    3    3    0    0 -0.44057522017E+02  0.12367638801E+03 -0.14073915573E+04  0.14135020020E+04  0.00000000000E+00 0. -1.
        -12    1    3    3    0    0  0.47202563170E+00 -0.12343747697E+02 -0.74766624825E+02  0.75780202580E+02  0.00000000000E+00 0.  1.
          5    1    4    4  501    0  0.46685870889E+02 -0.10950579146E+03  0.44438461347E+01  0.11919861187E+03  0.41800000000E+01 0.  1.
         -5    1    4    4    0  501 -0.11763271694E+01  0.30989979865E+02  0.20331865424E+02  0.37317820800E+02  0.41800000000E+01 0.  1.
</event>
<event>
11    1  0.1002087E-008  0.1528632E+03  0.7561462E-02  0.1093989E+00
         22   -1    0    0    0    0  0.00000000000E+00  0.00000000000E+00  0.16502888463E+03  0.16502888463E+03  0.00000000000E+00 0.  1.
         22   -1    0    0    0    0 -0.00000000000E+00 -0.00000000000E+00 -0.37367907230E+03  0.37367907230E+03  0.00000000000E+00 0.  1.
        -24    2    1    2    0    0  0.74304622651E+02 -0.19471374810E+02 -0.17104996237E+03  0.20385342663E+03  0.79986364680E+02 0.  0.
         25    2    1    2    0    0 -0.12440393527E+03 -0.91114372696E+01 -0.11322835492E+03  0.20982826084E+03  0.12509149168E+03 0.  0.
         24    2    1    2    0    0  0.50099312615E+02  0.28582812080E+02  0.75628129624E+02  0.12502626946E+03  0.81148233462E+02 0.  0.
        -13    1    5    5    0    0  0.57678639744E+02  0.23843833489E+02  0.15595450537E+02  0.64331733659E+02  0.00000000000E+00 0.  1.
         14    1    5    5    0    0 -0.75793271288E+01  0.47389785911E+01  0.60032679087E+02  0.60694535802E+02  0.00000000000E+00 0. -1.
         11    1    3    3    0    0  0.82747304900E+01 -0.30346139564E+02 -0.16680826470E+02  0.35603501553E+02  0.00000000000E+00 0. -1.
        -12    1    3    3    0    0  0.66029892161E+02  0.10874764754E+02 -0.15436913590E+03  0.16824992507E+03  0.00000000000E+00 0.  1.
          5    1    4    4  501    0 -0.97889283037E+02  0.42949484748E+02 -0.35944394393E+02  0.11285584549E+03  0.41800000000E+01 0.  1.
         -5    1    4    4    0  501 -0.26514652229E+02 -0.52060922017E+02 -0.77283960522E+02  0.96972415347E+02  0.41800000000E+01 0.  1.
</event>
<event>
11    1  0.1002087E-008  0.1694293E+03  0.7561462E-02  0.1078529E+00
         22   -1    0    0    0    0  0.00000000000E+00  0.00000000000E+00  0.54073433796E+03  0.54073433796E+03  0.00000000000E+00 0.  1.
         22   -1    0    0    0    0 -0.00000000000E+00 -0.00000000000E+00 -0.24380476280E+03  0.24380476280E+03  0.00000000000E+00 0. -1.
         24    2    1    2    0    0  0.52696492135E+02 -0.73005372376E+02 -0.57961685287E+02  0.13751465526E+03  0.86278727216E+02 0.  0.
         25    2    1    2    0    0 -0.47923651158E+02  0.18211434385E+03 -0.41590291526E+02  0.22986560495E+03  0.12508450509E+03 0.  0.
        -24    2    1    2    0    0 -0.47728409769E+01 -0.10910897147E+03  0.39648155198E+03  0.41715884056E+03  0.69973777451E+02 0.  0.
        -11    1    3    3    0    0  0.22923445058E+02  0.12833923426E+02  0.53040719034E+01  0.26801624999E+02  0.00000000000E+00 0.  1.
         12    1    3    3    0    0  0.29773047077E+02 -0.85839295802E+02 -0.63265757190E+02  0.11071303026E+03  0.00000000000E+00 0. -1.
         11    1    5    5    0    0  0.86804116782E+01  0.36440724781E+01  0.86909245694E+02  0.87417651525E+02  0.00000000000E+00 0. -1.
        -12    1    5    5    0    0 -0.13453252655E+02 -0.11275304395E+03  0.30957230628E+03  0.32974118903E+03  0.00000000000E+00 0.  1.
          5    1    4    4  501    0 -0.58848295460E+02  0.42295829940E+02 -0.51814350909E+02  0.89186649612E+02  0.41800000000E+01 0.  1.
         -5    1    4    4    0  501  0.10924644302E+02  0.13981851391E+03  0.10224059382E+02  0.14067895534E+03  0.41800000000E+01 0.  1.
</event>
<event>
11    1  0.1002087E-008  0.1350177E+03  0.7561462E-02  0.1113253E+00
         22   -1    0    0    0    0  0.00000000000E+00  0.00000000000E+00  0.53407109219E+03  0.53407109219E+03  0.00000000000E+00 0. -1.
         22   -1    0    0    0    0 -0.00000000000E+00 -0.00000000000E+00 -0.35827351792E+03  0.35827351792E+03  0.00000000000E+00 0.  1.
         24    2    1    2    0    0 -0.28603081553E+02  0.43282224075E+02 -0.26056532961E+03  0.27784425315E+03  0.81312058261E+02 0.  0.
         25    2    1    2    0    0  0.32272903391E+02 -0.31517553540E+02 -0.33907348815E+02  0.13724280960E+03  0.12510389286E+03 0.  0.
        -24    2    1    2    0    0 -0.36698218373E+01 -0.11764670535E+02  0.47027025269E+03  0.47725754736E+03  0.80428731703E+02 0.  0.
        -13    1    3    3    0    0 -0.43773674044E+02  0.15244611072E+02 -0.22647942746E+03  0.23117409840E+03  0.00000000000E+00 0.  1.
         14    1    3    3    0    0  0.15170592491E+02  0.28037613003E+02 -0.34085902146E+02  0.46670154751E+02  0.00000000000E+00 0. -1.
         13    1    5    5    0    0 -0.93401071147E+01 -0.11357442188E+02  0.47125810621E+03  0.47148746724E+03  0.00000000000E+00 0. -1.
        -14    1    5    5    0    0  0.56702852774E+01 -0.40722834679E+00 -0.98785351997E+00  0.57700801234E+01  0.00000000000E+00 0.  1.
          5    1    4    4  501    0 -0.60128401597E+01 -0.10830185565E+02 -0.75665342064E+02  0.76786480294E+02  0.41800000000E+01 0.  1.
         -5    1    4    4    0  501  0.38285743550E+02 -0.20687367975E+02  0.41757993249E+02  0.60456329306E+02  0.41800000000E+01 0.  1.
</event>
<event>
11    1  0.1002087E-008  0.2322549E+03  0.7561462E-02  0.1033801E+00
         22   -1    0    0    0    0  0.00000000000E+00  0.00000000000E+00  0.35573389006E+03  0.35573389006E+03  0.00000000000E+00 0.  1.
         22   -1    0    0    0    0 -0.00000000000E+00 -0.00000000000E+00 -0.68162362692E+03  0.68162362692E+03  0.00000000000E+00 0.  1.
        -24    2    1    2    0    0 -0.14303012168E+02  0.34606401654E+01 -0.52572501054E+03  0.53255211159E+03  0.83716262821E+02 0.  0.
         25    2    1    2    0    0  0.32991319530E+02  0.19205224929E+03  0.47597203663E+02  0.23640258997E+03  0.12509275409E+03 0.  0.
         24    2    1    2    0    0 -0.18688307362E+02 -0.19551288946E+03  0.15223807002E+03  0.26840281541E+03  0.10143519400E+03 0.  0.
        -11    1    5    5    0    0 -0.21508766664E+01 -0.17879528658E+03  0.16353570135E+03  0.24231447830E+03  0.00000000000E+00 0.  1.
         12    1    5    5    0    0 -0.16537430696E+02 -0.16717602875E+02 -0.11297631331E+02  0.26088337118E+02  0.00000000000E+00 0. -1.
         13    1    3    3    0    0 -0.22156860577E+02 -0.20008808607E+02 -0.69305570196E+02  0.75462182268E+02  0.00000000000E+00 0. -1.
        -14    1    3    3    0    0  0.78538484083E+01  0.23469448773E+02 -0.45641944035E+03  0.45708992932E+03  0.00000000000E+00 0.  1.
          5    1    4    4  501    0 -0.31820045405E+02  0.89225691774E+02  0.62953955384E+02  0.11381745148E+03  0.41800000000E+01 0.  1.
         -5    1    4    4    0  501  0.64811364935E+02  0.10282655752E+03 -0.15356751722E+02  0.12258513849E+03  0.41800000000E+01 0.  1.
</event>
<event>
11    1  0.1002087E-008  0.2198528E+03  0.7561462E-02  0.1041310E+00
         22   -1    0    0    0    0  0.00000000000E+00  0.00000000000E+00  0.22381957421E+03  0.22381957421E+03  0.00000000000E+00 0.  1.
         22   -1    0    0    0    0 -0.00000000000E+00 -0.00000000000E+00 -0.80573947030E+03  0.80573947030E+03  0.00000000000E+00 0.  1.
        -24    2    1    2    0    0 -0.14761440685E+03  0.82612418096E+02 -0.49010335755E+03  0.52490183504E+03  0.81889013957E+02 0.  0.
         25    2    1    2    0    0  0.18822437500E+03 -0.11035908733E+03 -0.22728842467E+03  0.33899077544E+03  0.12508866594E+03 0.  0.
         24    2    1    2    0    0 -0.40609968144E+02  0.27746669237E+02  0.13547188613E+03  0.16566643402E+03  0.81692645100E+02 0.  0.
        -13    1    5    5    0    0 -0.61584860811E+02  0.33978115058E+02  0.82870697925E+02  0.10869572190E+03  0.00000000000E+00 0.  1.
         14    1    5    5    0    0  0.20974892667E+02 -0.62314458206E+01  0.52601188208E+02  0.56970712128E+02  0.00000000000E+00 0. -1.
         11    1    3    3    0    0 -0.46843487298E+02  0.28035757472E+02 -0.66333782934E+02  0.85909759385E+02  0.00000000000E+00 0. -1.
        -12    1    3    3    0    0 -0.10077091955E+03  0.54576660624E+02 -0.42376957462E+03  0.43899207565E+03  0.00000000000E+00 0.  1.
          5    1    4    4  501    0  0.45033765352E+02 -0.19693301719E+02 -0.13973175331E+03  0.14818333725E+03  0.41800000000E+01 0.  1.
         -5    1    4    4    0  501  0.14319060964E+03 -0.90665785614E+02 -0.87556671358E+02  0.19080743820E+03  0.41800000000E+01 0.  1.
</event>
<event>
11    1  0.1002087E-008  0.1361692E+03  0.7561462E-02  0.1111913E+00
         22   -1    0    0    0    0  0.00000000000E+00  0.00000000000E+00  0.13570405184E+04  0.13570405184E+04  0.00000000000E+00 0. -1.
         22   -1    0    0    0    0 -0.00000000000E+00 -0.00000000000E+00 -0.12944508750E+03  0.12944508750E+03  0.00000000000E+00 0.  1.
        -24    2    1    2    0    0  0.32019257815E+02 -0.19042775843E+02 -0.79338506467E+02  0.11853004599E+03  0.79792938356E+02 0.  0.
         25    2    1    2    0    0 -0.15711487618E+02  0.69682576755E+02  0.15345287239E+03  0.21047094365E+03  0.12509085389E+03 0.  0.
         24    2    1    2    0    0 -0.16307770197E+02 -0.50639800913E+02  0.11534810650E+04  0.11574846163E+04  0.80135739950E+02 0.  0.
        -13    1    5    5    0    0  0.66391971299E+01 -0.25195867874E+01  0.77404390812E+01  0.10504363535E+02  0.00000000000E+00 0.  1.
         14    1    5    5    0    0 -0.22946967327E+02 -0.48120214125E+02  0.11457406259E+04  0.11469802528E+04  0.00000000000E+00 0. -1.
         13    1    3    3    0    0 -0.24286711344E+02 -0.18458907675E+02 -0.37711479315E+02  0.48504961525E+02  0.00000000000E+00 0. -1.
        -14    1    3    3    0    0  0.56305969159E+02 -0.58386816765E+00 -0.41627027152E+02  0.70025084466E+02  0.00000000000E+00 0.  1.
          5    1    4    4  501    0 -0.23084965408E+02  0.92098204114E+02  0.15957861124E+03  0.18573583497E+03  0.41800000000E+01 0. -1.
         -5    1    4    4    0  501  0.73734777896E+01 -0.22415627358E+02 -0.61257388462E+01  0.24735108671E+02  0.41800000000E+01 0. -1.
</event>
<event>
11    1  0.1002087E-008  0.1605783E+03  0.7561462E-02  0.1086535E+00
         22   -1    0    0    0    0  0.00000000000E+00  0.00000000000E+00  0.30762241693E+03  0.30762241693E+03  0.00000000000E+00 0.  1.
         22   -1    0    0    0    0 -0.00000000000E+00 -0.00000000000E+00 -0.15897213764E+04  0.15897213764E+04  0.00000000000E+00 0.  1.
        -24    2    1    2    0    0 -0.63826365911E+01  0.97429492404E+01 -0.13147422782E+04  0.13171555665E+04  0.78840758706E+02 0.  0.
         25    2    1    2    0    0 -0.92616317787E+02 -0.29328809204E+02 -0.23502054075E+03  0.28340807179E+03  0.12509004441E+03 0.  0.
         24    2    1    2    0    0  0.98998954378E+02  0.19585859964E+02  0.26766385944E+03  0.29678015505E+03  0.79057699852E+02 0.  0.
        -11    1    5    5    0    0  0.10975808566E+03  0.11558095593E+02  0.25679798270E+03  0.27950962570E+03  0.00000000000E+00 0.  1.
         12    1    5    5    0    0 -0.10759131283E+02  0.80277643712E+01  0.10865876737E+02  0.17270529350E+02  0.00000000000E+00 0. -1.
         11    1    3    3    0    0  0.22224446590E+02 -0.25601230950E+02 -0.62101581572E+03  0.62194050554E+03  0.00000000000E+00 0. -1.
        -12    1    3    3    0    0 -0.28607083181E+02  0.35344180191E+02 -0.69372646247E+03  0.69521506098E+03  0.00000000000E+00 0.  1.
          5    1    4    4  501    0 -0.15663594746E+02  0.32023107228E+02 -0.92226279783E+01  0.37058829767E+02  0.41800000000E+01 0.  1.
         -5    1    4    4    0  501 -0.76952723042E+02 -0.61351916432E+02 -0.22579791277E+03  0.24634924202E+03  0.41800000000E+01 0.  1.
</event>
<event>
11    1  0.1002087E-008  0.1732470E+03  0.7561462E-02  0.1075240E+00
         22   -1    0    0    0    0  0.00000000000E+00  0.00000000000E+00  0.40628034418E+03  0.40628034418E+03  0.00000000000E+00 0. -1.
         22   -1    0    0    0    0 -0.00000000000E+00 -0.00000000000E+00 -0.17941403842E+04  0.17941403842E+04  0.00000000000E+00 0.  1.
         24    2    1    2    0    0 -0.52116002967E+02 -0.62378449583E+02 -0.15085472120E+04  0.15129856888E+04  0.82485482326E+02 0.  0.
         25    2    1    2    0    0  0.87681373860E+02 -0.54756086471E+02 -0.24200809764E+03  0.29138011755E+03  0.12509277060E+03 0.  0.
        -24    2    1    2    0    0 -0.35565370893E+02  0.11713453605E+03  0.36269526964E+03  0.39605492204E+03  0.10161814558E+03 0.  0.
        -11    1    3    3    0    0 -0.27355815676E+02 -0.39145464990E+02 -0.13499608929E+04  0.13508053600E+04  0.00000000000E+00 0.  1.
         12    1    3    3    0    0 -0.24760187292E+02 -0.23232984592E+02 -0.15858631909E+03  0.16218032880E+03  0.00000000000E+00 0. -1.
         13    1    5    5    0    0 -0.17420399806E+02  0.14452637406E+02  0.20962409766E+03  0.21084262230E+03  0.00000000000E+00 0. -1.
        -14    1    5    5    0    0 -0.18144971087E+02  0.10268189865E+03  0.15307117198E+03  0.18521229974E+03  0.00000000000E+00 0.  1.
          5    1    4    4  501    0  0.67888847207E+02 -0.55506011784E+02 -0.55688128143E+02  0.10396370970E+03  0.41800000000E+01 0. -1.
         -5    1    4    4    0  501  0.19792526653E+02  0.74992531281E+00 -0.18631996949E+03  0.18741640785E+03  0.41800000000E+01 0. -1.
</event>
<event>
11    1  0.1002087E-008  0.1303171E+03  0.7561462E-02  0.1118880E+00
         22   -1    0    0    0    0  0.00000000000E+00  0.00000000000E+00  0.30386678945E+03  0.30386678945E+03  0.00000000000E+00 0.  1.
         22   -1    0    0    0    0 -0.00000000000E+00 -0.00000000000E+00 -0.67924728141E+03  0.67924728141E+03  0.00000000000E+00 0.  1.
        -24    2    1    2    0    0 -0.14625917772E+02 -0.51709486845E+02 -0.57992572482E+03  0.58808775900E+03  0.81520411379E+02 0.  0.
         25    2    1    2    0    0 -0.11356732985E+02  0.73439750759E+02 -0.23099744839E+02  0.14731772318E+03  0.12508613422E+03 0.  0.
         24    2    1    2    0    0  0.25982650756E+02 -0.21730263914E+02  0.22764497770E+03  0.24770858869E+03  0.91596978820E+02 0.  0.
        -13    1    5    5    0    0  0.42207254130E+02 -0.20739434039E+02  0.47535261564E+02  0.66866864121E+02  0.00000000000E+00 0.  1.
         14    1    5    5    0    0 -0.16224603374E+02 -0.99082987496E+00  0.18010971614E+03  0.18084172457E+03  0.00000000000E+00 0. -1.
         13    1    3    3    0    0  0.16917006450E+02 -0.62149216001E+02 -0.38468990065E+03  0.39004490744E+03  0.00000000000E+00 0. -1.
        -14    1    3    3    0    0 -0.31542924221E+02  0.10439729156E+02 -0.19523582417E+03  0.19804285156E+03  0.00000000000E+00 0.  1.
          5    1    4    4  501    0 -0.44308076318E+02  0.90871299679E+02  0.36420748937E+01  0.10124986835E+03  0.41800000000E+01 0. -1.
         -5    1    4    4    0  501  0.32951343333E+02 -0.17431548920E+02 -0.26741819732E+02  0.46067854821E+02  0.41800000000E+01 0. -1.
</event>
<event>
11    1  0.1002087E-008  0.1682119E+03  0.7561462E-02  0.1079598E+00
         22   -1    0    0    0    0  0.00000000000E+00  0.00000000000E+00  0.42131200618E+02  0.42131200618E+02  0.00000000000E+00 0. -1.
         22   -1    0    0    0    0 -0.00000000000E+00 -0.00000000000E+00 -0.16245304055E+04  0.16245304055E+04  0.00000000000E+00 0. -1.
        -24    2    1    2    0    0 -0.55381061123E+01 -0.48313378222E+02 -0.82340571847E+03  0.82876391625E+03  0.80546871664E+02 0.  0.
         25    2    1    2    0    0  0.11200846058E+03  0.54162111155E+01 -0.61472284364E+03  0.63726663708E+03  0.12509740864E+03 0.  0.
         24    2    1    2    0    0 -0.10647035447E+03  0.42897167107E+02 -0.14427064273E+03  0.20063105275E+03  0.79137207747E+02 0.  0.
        -13    1    5    5    0    0 -0.14541701624E+02  0.45165539317E+02 -0.47596555200E+02  0.67207284537E+02  0.00000000000E+00 0.  1.
         14    1    5    5    0    0 -0.91928652841E+02 -0.22683722102E+01 -0.96674087527E+02  0.13342376822E+03  0.00000000000E+00 0. -1.
         13    1    3    3    0    0 -0.22336415678E+02  0.43088762022E+01 -0.51143065760E+03  0.51193632359E+03  0.00000000000E+00 0. -1.
        -14    1    3    3    0    0  0.16798309565E+02 -0.52622254424E+02 -0.31197506087E+03  0.31682759266E+03  0.00000000000E+00 0.  1.
          5    1    4    4  501    0  0.16809352998E+02  0.16618406050E+02 -0.41498950965E+03  0.41568316214E+03  0.41800000000E+01 0. -1.
         -5    1    4    4    0  501  0.95199107581E+02 -0.11202194934E+02 -0.19973333399E+03  0.22158347493E+03  0.41800000000E+01 0. -1.
</event>
<event>
11    1  0.1002087E-008  0.1700136E+03  0.7561462E-02  0.1078020E+00
         22   -1    0    0    0    0  0.00000000000E+00  0.00000000000E+00  0.46125962740E+03  0.46125962740E+03  0.00000000000E+00 0.  1.
         22   -1    0    0    0    0 -0.00000000000E+00 -0.00000000000E+00 -0.21824929942E+03  0.21824929942E+03  0.00000000000E+00 0. -1.
        -24    2    1    2    0    0  0.77484078596E+02  0.22978873931E+02 -0.12032214134E+03  0.16673615103E+03  0.82411863706E+02 0.  0.
         25    2    1    2    0    0 -0.11426068946E+03  0.83613812398E+02  0.98340301638E+02  0.21299649315E+03  0.12509962585E+03 0.  0.
         24    2    1    2    0    0  0.36776610864E+02 -0.10659268633E+03  0.26499216769E+03  0.29977628264E+03  0.83249329201E+02 0.  0.
        -11    1    5    5    0    0  0.54059725477E+02 -0.44287152191E+02  0.95256162216E+02  0.11814204251E+03  0.00000000000E+00 0.  1.
         12    1    5    5    0    0 -0.17283114613E+02 -0.62305534138E+02  0.16973600548E+03  0.18163424014E+03  0.00000000000E+00 0. -1.
         11    1    3    3    0    0 -0.64435632187E+01  0.11922047533E+02 -0.63144613536E+02  0.64582481703E+02  0.00000000000E+00 0. -1.
        -12    1    3    3    0    0  0.83927641815E+02  0.11056826398E+02 -0.57177527806E+02  0.10215366933E+03  0.00000000000E+00 0.  1.
          5    1    4    4  501    0 -0.66358279294E+02  0.87824615966E+02  0.11750408872E+03  0.16106293077E+03  0.41800000000E+01 0. -1.
         -5    1    4    4    0  501 -0.47902410166E+02 -0.42108035678E+01 -0.19163787084E+02  0.51933562383E+02  0.41800000000E+01 0. -1.
</event>
<event>
11    1  0.1002087E-008  0.1847291E+03  0.7561462E-02  0.1065880E+00
         22   -1    0    0    0    0  0.00000000000E+00  0.00000000000E+00  0.51414347573E+03  0.51414347573E+03  0.00000000000E+00 0. -1.
         22   -1    0    0    0    0 -0.00000000000E+00 -0.00000000000E+00 -0.79959044714E+03  0.79959044714E+03  0.00000000000E+00 0. -1.
         24    2    1    2    0    0  0.52416474171E+02  0.12412171202E+03 -0.71031227542E+03  0.72738917292E+03  0.79986211948E+02 0.  0.
         25    2    1    2    0    0 -0.14000606897E+02 -0.16226935587E+03  0.62952171448E+02  0.21479385793E+03  0.12508423029E+03 0.  0.
        -24    2    1    2    0    0 -0.38415867274E+02  0.38147643847E+02  0.36191313257E+03  0.37155089202E+03  0.64326730433E+02 0.  0.
        -13    1    3    3    0    0  0.36981538393E+01 -0.99961230344E+01 -0.22049674124E+02  0.24490548106E+02  0.00000000000E+00 0.  1.
         14    1    3    3    0    0  0.48718320331E+02  0.13411783506E+03 -0.68826260130E+03  0.70289862481E+03  0.00000000000E+00 0. -1.
         11    1    5    5    0    0 -0.50016096722E+02  0.67974213146E+01  0.22925768827E+03  0.23474859424E+03  0.00000000000E+00 0. -1.
        -12    1    5    5    0    0  0.11600229448E+02  0.31350222532E+02  0.13265544430E+03  0.13680229778E+03  0.00000000000E+00 0.  1.
          5    1    4    4  501    0 -0.43925008184E+02 -0.74802835561E+02  0.82975988509E+02  0.12011393600E+03  0.41800000000E+01 0.  1.
         -5    1    4    4    0  501  0.29924401287E+02 -0.87466520307E+02 -0.20023817061E+02  0.94679921930E+02  0.41800000000E+01 0.  1.
</event>
<event>
11    1  0.1002087E-008  0.1320847E+03  0.7561462E-02  0.1116734E+00
         22   -1    0    0    0    0  0.00000000000E+00  0.00000000000E+00  0.14953959686E+03  0.14953959686E+03  0.00000000000E+00 0. -1.
         22   -1    0    0    0    0 -0.00000000000E+00 -0.00000000000E+00 -0.20547473904E+04  0.20547473904E+04  0.00000000000E+00 0. -1.
         24    2    1    2    0    0 -0.57627029080E+01 -0.42440667510E+02 -0.16776987718E+04  0.16801187674E+04  0.79318880205E+02 0.  0.
         25    2    1    2    0    0  0.67489198518E+01  0.37763102534E+02 -0.35248353170E+03  0.37598404277E+03  0.12509100874E+03 0.  0.
        -24    2    1    2    0    0 -0.98621694381E+00  0.46775649754E+01  0.12497451000E+03  0.14818417703E+03  0.79479997065E+02 0.  0.
        -13    1    3    3    0    0  0.17824238793E+02 -0.23092140068E+02 -0.20108513864E+03  0.20319001797E+03  0.00000000000E+00 0.  1.
         14    1    3    3    0    0 -0.23586941701E+02 -0.19348527441E+02 -0.14766136332E+04  0.14769287495E+04  0.00000000000E+00 0. -1.
         13    1    5    5    0    0 -0.27852864504E+02 -0.25592107665E+02  0.73899051750E+02  0.83016913249E+02  0.00000000000E+00 0. -1.
        -14    1    5    5    0    0  0.26866647560E+02  0.30269672641E+02  0.51075458252E+02  0.65167263779E+02  0.00000000000E+00 0.  1.
          5    1    4    4  501    0 -0.17733798150E+02 -0.12196705401E+02 -0.30641862340E+01  0.22138402308E+02  0.41800000000E+01 0.  1.
         -5    1    4    4    0  501  0.24482718002E+02  0.49959807936E+02 -0.34941934547E+03  0.35384564047E+03  0.41800000000E+01 0.  1.
</event>
<event>
11    1  0.1002087E-008  0.1288970E+03  0.7561462E-02  0.1120632E+00
         22   -1    0    0    0    0  0.00000000000E+00  0.00000000000E+00  0.17808129532E+03  0.17808129532E+03  0.00000000000E+00 0. -1.
         22   -1    0    0    0    0 -0.00000000000E+00 -0.00000000000E+00 -0.14461208179E+04  0.14461208179E+04  0.00000000000E+00 0. -1.
        -24    2    1    2    0    0 -0.30114459028E+02  0.23649106549E+01 -0.12432618050E+04  0.12465627583E+04  0.85477022233E+02 0.  0.
         25    2    1    2    0    0  0.44984873546E+02  0.31253701250E+02 -0.16371123354E+03  0.21319570959E+03  0.12510239769E+03 0.  0.
         24    2    1    2    0    0 -0.14870414518E+02 -0.33618611905E+02  0.13893351591E+03  0.16444364533E+03  0.79924028644E+02 0.  0.
        -13    1    5    5    0    0  0.28985761512E+02 -0.33043999907E+02  0.74456653270E+02  0.86463133857E+02  0.00000000000E+00 0.  1.
         14    1    5    5    0    0 -0.43856176030E+02 -0.57461199832E+00  0.64476862636E+02  0.77980511477E+02  0.00000000000E+00 0. -1.
         13    1    3    3    0    0 -0.20991961372E+02  0.58092552997E+01 -0.12295194721E+04  0.12297123819E+04  0.00000000000E+00 0. -1.
        -14    1    3    3    0    0 -0.91224976560E+01 -0.34443446448E+01 -0.13742332818E+02  0.16850376399E+02  0.00000000000E+00 0.  1.
          5    1    4    4  501    0 -0.37781691657E+02  0.12761441490E+02 -0.97817304889E+02  0.10571664083E+03  0.41800000000E+01 0.  1.
         -5    1    4    4    0  501  0.82766565204E+02  0.18492259760E+02 -0.65893928656E+02  0.10747906875E+03  0.41800000000E+01 0.  1.
</event>
<event>
11    1  0.1002087E-008  0.1990729E+03  0.7561462E-02  0.1055181E+00
         22   -1    0    0    0    0  0.00000000000E+00  0.00000000000E+00  0.55105891706E+03  0.55105891706E+03  0.00000000000E+00 0. -1.
         22   -1    0    0    0    0 -0.00000000000E+00 -0.00000000000E+00 -0.12854072969E+04  0.12854072969E+04  0.00000000000E+00 0. -1.
         24    2    1    2    0    0  0.66999027051E+02 -0.13593618771E+03 -0.11588569536E+04  0.11714642845E+04  0.80072556992E+02 0.  0.
         25    2    1    2    0    0 -0.14373127367E+03  0.21270814559E+03  0.81552708105E+02  0.29698549458E+03  0.12508439375E+03 0.  0.
        -24    2    1    2    0    0  0.76732246622E+02 -0.76771957882E+02  0.34295586565E+03  0.36801643481E+03  0.77689119702E+02 0.  0.
        -13    1    3    3    0    0 -0.11937738058E+02 -0.62453983060E+01 -0.21985958976E+03  0.22027199958E+03  0.00000000000E+00 0.  1.
         14    1    3    3    0    0  0.78936765109E+02 -0.12969078940E+03 -0.93899736381E+03  0.95119228496E+03  0.00000000000E+00 0. -1.
         11    1    5    5    0    0  0.87555763491E+02 -0.82998461928E+02  0.30222966505E+03  0.32541900196E+03  0.00000000000E+00 0. -1.
        -12    1    5    5    0    0 -0.10823516869E+02  0.62265040455E+01  0.40726200602E+02  0.42597432851E+02  0.00000000000E+00 0.  1.
          5    1    4    4  501    0 -0.61815425237E+02  0.17317134498E+03  0.91437352475E+02  0.20539650277E+03  0.41800000000E+01 0.  1.
         -5    1    4    4    0  501 -0.81915848436E+02  0.39536800607E+02 -0.98846443694E+01  0.91588991814E+02  0.41800000000E+01 0.  1.
</event>
<event>
11    1  0.1002087E-008  0.1607522E+03  0.7561462E-02  0.1086372E+00
         22   -1    0    0    0    0  0.00000000000E+00  0.00000000000E+00  0.27112001154E+03  0.27112001154E+03  0.00000000000E+00 0.  1.
         22   -1    0    0    0    0 -0.00000000000E+00 -0.00000000000E+00 -0.53207835688E+03  0.53207835688E+03  0.00000000000E+00 0. -1.
         24    2    1    2    0    0 -0.33121604376E+02 -0.33534366320E+01 -0.37050867554E+03  0.38066031887E+03  0.80729879833E+02 0.  0.
         25    2    1    2    0    0 -0.68352361114E+02 -0.23653958890E+02 -0.99199348638E+02  0.17527042926E+03  0.12509059742E+03 0.  0.
        -24    2    1    2    0    0  0.10147396549E+03  0.27007395522E+02  0.20874967884E+03  0.24726762029E+03  0.80860883882E+02 0.  0.
        -11    1    3    3    0    0 -0.31861916431E+02 -0.33971508750E+02 -0.12775446539E+03  0.13597958874E+03  0.00000000000E+00 0.  1.
         12    1    3    3    0    0 -0.12596879453E+01  0.30618072118E+02 -0.24275421015E+03  0.24468073013E+03  0.00000000000E+00 0. -1.
         13    1    5    5    0    0 -0.33842688113E+01  0.27460377268E+02  0.44467105910E+02  0.52372216901E+02  0.00000000000E+00 0. -1.
        -14    1    5    5    0    0  0.10485823430E+03 -0.45298174566E+00  0.16428257293E+03  0.19489540339E+03  0.00000000000E+00 0.  1.
          5    1    4    4  501    0 -0.11728620057E+02  0.17643322161E+02  0.24732688347E+02  0.32833300446E+02  0.41800000000E+01 0.  1.
         -5    1    4    4    0  501 -0.56623741057E+02 -0.41297281051E+02 -0.12393203699E+03  0.14243712881E+03  0.41800000000E+01 0.  1.
</event>
<event>
11    1  0.1002087E-008  0.1311533E+03  0.7561462E-02  0.1117860E+00
         22   -1    0    0    0    0  0.00000000000E+00  0.00000000000E+00  0.18926161280E+03  0.18926161280E+03  0.00000000000E+00 0.  1.
         22   -1    0    0    0    0 -0.00000000000E+00 -0.00000000000E+00 -0.16120738502E+04  0.16120738502E+04  0.00000000000E+00 0.  1.
        -24    2    1    2    0    0  0.45117063068E+01  0.15124737564E+02 -0.14413957615E+04  0.14437385312E+04  0.80685141346E+02 0.  0.
         25    2    1    2    0    0  0.35050088397E+02 -0.10269285461E+02 -0.13047969832E+03  0.18440712481E+03  0.12508824519E+03 0.  0.
         24    2    1    2    0    0 -0.39561794704E+02 -0.48554521026E+01  0.14906322245E+03  0.17318980697E+03  0.78652107001E+02 0.  0.
        -13    1    5    5    0    0 -0.32264252370E+02 -0.18661168252E+02  0.15267754122E+03  0.15716123178E+03  0.00000000000E+00 0.  1.
         14    1    5    5    0    0 -0.72975423339E+01  0.13805716149E+02 -0.36143187683E+01  0.16028575192E+02  0.00000000000E+00 0. -1.
         13    1    3    3    0    0 -0.26375319233E+02 -0.21616767370E+02 -0.63632981082E+03  0.63724294444E+03  0.00000000000E+00 0. -1.
        -14    1    3    3    0    0  0.30887025540E+02  0.36741504934E+02 -0.80506595065E+03  0.80649558674E+03  0.00000000000E+00 0.  1.
          5    1    4    4  501    0  0.72431348811E+02  0.21958917461E+02 -0.53169995708E+02  0.92590578302E+02  0.41800000000E+01 0. -1.
         -5    1    4    4    0  501 -0.37381260414E+02 -0.32228202922E+02 -0.77309702615E+02  0.91816546506E+02  0.41800000000E+01 0. -1.
</event>
<event>
11    1  0.1002087E-008  0.1570229E+03  0.7561462E-02  0.1089911E+00
         22   -1    0    0    0    0  0.00000000000E+00  0.00000000000E+00  0.25801175192E+02  0.25801175192E+02  0.00000000000E+00 0. -1.
         22   -1    0    0    0    0 -0.00000000000E+00 -0.00000000000E+00 -0.17611910655E+04  0.17611910655E+04  0.00000000000E+00 0.  1.
         24    2    1    2    0    0 -0.13564332977E+02 -0.99777695521E+02 -0.10569493648E+04  0.10646811261E+04  0.79147715069E+02 0.  0.
         25    2    1    2    0    0  0.95371226615E+01  0.79426406380E+02 -0.54600405743E+03  0.56583784382E+03  0.12511004768E+03 0.  0.
        -24    2    1    2    0    0  0.40272103158E+01  0.20351289141E+02 -0.13243646808E+03  0.15647327080E+03  0.80709807373E+02 0.  0.
        -11    1    3    3    0    0 -0.26691022266E+02 -0.10792791483E+03 -0.97202384441E+03  0.97836148716E+03  0.00000000000E+00 0.  1.
         12    1    3    3    0    0  0.13126689289E+02  0.81502193092E+01 -0.84925520392E+02  0.86319638902E+02  0.00000000000E+00 0. -1.
         11    1    5    5    0    0  0.41804589261E+02  0.76003939486E+01 -0.56363957449E+02  0.70585305629E+02  0.00000000000E+00 0. -1.
        -12    1    5    5    0    0 -0.37777378946E+02  0.12750895192E+02 -0.76072510631E+02  0.85887965175E+02  0.00000000000E+00 0.  1.
          5    1    4    4  501    0  0.39358483237E+02  0.98990591938E+02 -0.46763100419E+03  0.47962949865E+03  0.41800000000E+01 0.  1.
         -5    1    4    4    0  501 -0.29821360576E+02 -0.19564185558E+02 -0.78373053240E+02  0.86208345172E+02  0.41800000000E+01 0.  1.
</event>
<event>
11    1  0.1002087E-008  0.1996854E+03  0.7561462E-02  0.1054746E+00
         22   -1    0    0    0    0  0.00000000000E+00  0.00000000000E+00  0.11297074618E+04  0.11297074618E+04  0.00000000000E+00 0.  1.
         22   -1    0    0    0    0 -0.00000000000E+00 -0.00000000000E+00 -0.70276608508E+03  0.70276608508E+03  0.00000000000E+00 0. -1.
        -24    2    1    2    0    0 -0.99787910599E+01 -0.36370496166E+02 -0.62814950579E+03  0.63457242603E+03  0.81780028125E+02 0.  0.
         25    2    1    2    0    0  0.13857166047E+03  0.11839928152E+03  0.12909668820E+03  0.25598161158E+03  0.12506052779E+03 0.  0.
         24    2    1    2    0    0 -0.12859286941E+03 -0.82028785351E+02  0.92599419429E+03  0.94191950925E+03  0.80512522983E+02 0.  0.
        -11    1    5    5    0    0 -0.82200478306E+02 -0.42899214678E+02  0.75094880033E+03  0.75665141378E+03  0.00000000000E+00 0.  1.
         12    1    5    5    0    0 -0.46392391105E+02 -0.39129570672E+02  0.17504539396E+03  0.18526809547E+03  0.00000000000E+00 0. -1.
         13    1    3    3    0    0  0.21857745619E+02 -0.50323800046E+02 -0.35360659001E+03  0.35783776547E+03  0.00000000000E+00 0. -1.
        -14    1    3    3    0    0 -0.31836536679E+02  0.13953303880E+02 -0.27454291578E+03  0.27673466057E+03  0.00000000000E+00 0.  1.
          5    1    4    4  501    0  0.11150865953E+03  0.59309142685E+02  0.18615255926E+02  0.12773314256E+03  0.41800000000E+01 0. -1.
         -5    1    4    4    0  501  0.27063000942E+02  0.59090138831E+02  0.11048143227E+03  0.12824846901E+03  0.41800000000E+01 0. -1.
</event>
<event>
11    1  0.1002087E-008  0.1303619E+03  0.7561462E-02  0.1118825E+00
         22   -1    0    0    0    0  0.00000000000E+00  0.00000000000E+00  0.16699372545E+03  0.16699372545E+03  0.00000000000E+00 0.  1.
         22   -1    0    0    0    0 -0.00000000000E+00 -0.00000000000E+00 -0.47142187845E+03  0.47142187845E+03  0.00000000000E+00 0. -1.
         24    2    1    2    0    0  0.22048793867E+02  0.26467502449E+02 -0.25890229337E+03  0.27288520999E+03  0.79052275893E+02 0.  0.
         25    2    1    2    0    0 -0.48641595826E+02 -0.97317993899E+00 -0.16817879816E+03  0.21516199396E+03  0.12507447211E+03 0.  0.
        -24    2    1    2    0    0  0.26592801959E+02 -0.25494322510E+02  0.12265293852E+03  0.15036839995E+03  0.78802124212E+02 0.  0.
        -13    1    3    3    0    0 -0.25773371207E+02  0.26135988394E+02 -0.86340417986E+02  0.93819104295E+02  0.00000000000E+00 0.  1.
         14    1    3    3    0    0  0.47822165074E+02  0.33151405516E+00 -0.17256187538E+03  0.17906610569E+03  0.00000000000E+00 0. -1.
         11    1    5    5    0    0  0.25238387341E+02 -0.34468291054E+02  0.19747998161E+02  0.47064027825E+02  0.00000000000E+00 0. -1.
        -12    1    5    5    0    0  0.13544146182E+01  0.89739685438E+01  0.10290494036E+03  0.10330437213E+03  0.00000000000E+00 0.  1.
          5    1    4    4  501    0  0.36613534706E+02  0.19375084168E+02 -0.29399752173E+02  0.50968251275E+02  0.41800000000E+01 0.  1.
         -5    1    4    4    0  501 -0.85255130532E+02 -0.20348264107E+02 -0.13877904598E+03  0.16419374269E+03  0.41800000000E+01 0.  1.
</event>
<event>
11    1  0.1002087E-008  0.1398251E+03  0.7561462E-02  0.1107754E+00
         22   -1    0    0    0    0  0.00000000000E+00  0.00000000000E+00  0.40825920526E+03  0.40825920526E+03  0.00000000000E+00 0.  1.
         22   -1    0    0    0    0 -0.00000000000E+00 -0.00000000000E+00 -0.10803768095E+03  0.10803768095E+03  0.00000000000E+00 0.  1.
        -24    2    1    2    0    0  0.20782903633E+02 -0.46033562411E+01 -0.31965796803E+02  0.90600554392E+02  0.82058078937E+02 0.  0.
         25    2    1    2    0    0 -0.63483849171E+02  0.44318934743E+02  0.11300434940E+03  0.18550156678E+03  0.12508589534E+03 0.  0.
         24    2    1    2    0    0  0.42700945538E+02 -0.39715578502E+02  0.21918297171E+03  0.24019476504E+03  0.79067389857E+02 0.  0.
        -13    1    5    5    0    0  0.50022359936E+02 -0.29158622427E+02  0.21983386487E+03  0.22733101394E+03  0.00000000000E+00 0.  1.
         14    1    5    5    0    0 -0.73214143978E+01 -0.10556956075E+02 -0.65089316215E+00  0.12863751097E+02  0.00000000000E+00 0. -1.
         13    1    3    3    0    0 -0.12779172334E+02  0.13832248675E+02  0.19067008917E+02  0.26799051812E+02  0.00000000000E+00 0. -1.
        -14    1    3    3    0    0  0.33562075967E+02 -0.18435604916E+02 -0.51032805720E+02  0.63801502580E+02  0.00000000000E+00 0.  1.
          5    1    4    4  501    0 -0.95222196392E+02  0.54900993539E+01  0.61921709921E+02  0.11379445697E+03  0.41800000000E+01 0. -1.
         -5    1    4    4    0  501  0.31738347221E+02  0.38828835389E+02  0.51082639481E+02  0.71707109818E+02  0.41800000000E+01 0. -1.
</event>
<event>
11    1  0.1002087E-008  0.1409733E+03  0.7561462E-02  0.1106476E+00
         22   -1    0    0    0    0  0.00000000000E+00  0.00000000000E+00  0.22811623428E+04  0.22811623428E+04  0.00000000000E+00 0. -1.
         22   -1    0    0    0    0 -0.00000000000E+00 -0.00000000000E+00 -0.91223842113E+02  0.91223842113E+02  0.00000000000E+00 0. -1.
         24    2    1    2    0    0  0.31992523279E+02 -0.54755687845E+02 -0.45616786972E+02  0.11495199306E+03  0.84328895155E+02 0.  0.
         25    2    1    2    0    0 -0.41391565846E+02  0.83977248645E+02  0.60906941414E+03  0.62879127737E+03  0.12508988468E+03 0.  0.
        -24    2    1    2    0    0  0.93990425672E+01 -0.29221560800E+02  0.16264858735E+04  0.16286429144E+04  0.77969253563E+02 0.  0.
        -11    1    3    3    0    0 -0.40742770432E+01 -0.31060716398E+02  0.19451252132E+02  0.36874368417E+02  0.00000000000E+00 0.  1.
         12    1    3    3    0    0  0.36066800322E+02 -0.23694971447E+02 -0.65068039104E+02  0.78077624645E+02  0.00000000000E+00 0. -1.
         13    1    5    5    0    0  0.96322092515E+01 -0.49353793199E+02  0.64735731731E+03  0.64930737916E+03  0.00000000000E+00 0. -1.
        -14    1    5    5    0    0 -0.23316668429E+00  0.20132232398E+02  0.97912855618E+03  0.97933553528E+03  0.00000000000E+00 0.  1.
          5    1    4    4  501    0 -0.68454810463E+02  0.14555282620E+02  0.41475554861E+03  0.42063945943E+03  0.41800000000E+01 0. -1.
         -5    1    4    4    0  501  0.27063244617E+02  0.69421966025E+02  0.19431386553E+03  0.20815181794E+03  0.41800000000E+01 0. -1.
</event>
<event>
11    1  0.1002087E-008  0.1409061E+03  0.7561462E-02  0.1106551E+00
         22   -1    0    0    0    0  0.00000000000E+00  0.00000000000E+00  0.79159882813E+03  0.79159882813E+03  0.00000000000E+00 0.  1.
         22   -1    0    0    0    0 -0.00000000000E+00 -0.00000000000E+00 -0.66929638053E+03  0.66929638053E+03  0.00000000000E+00 0. -1.
         24    2    1    2    0    0 -0.31327198317E+02 -0.90980352359E+01 -0.57206820633E+03  0.57854794581E+03  0.79947015633E+02 0.  0.
         25    2    1    2    0    0  0.93878015766E+02  0.20523134823E+02 -0.21398124043E+02  0.15918401079E+03  0.12508952263E+03 0.  0.
        -24    2    1    2    0    0 -0.62550817449E+02 -0.11425099587E+02  0.71576877797E+03  0.72316325205E+03  0.81221967096E+02 0.  0.
        -11    1    3    3    0    0  0.10306204612E+02 -0.80628829561E+01 -0.14919431841E+02  0.19844832616E+02  0.00000000000E+00 0.  1.
         12    1    3    3    0    0 -0.41633402929E+02 -0.10351522798E+01 -0.55714877449E+03  0.55870311320E+03  0.00000000000E+00 0. -1.
         11    1    5    5    0    0  0.19673105198E+02 -0.67288624878E+01  0.14563546136E+03  0.14711218938E+03  0.00000000000E+00 0. -1.
        -12    1    5    5    0    0 -0.82223922647E+02 -0.46962370995E+01  0.57013331661E+03  0.57605106267E+03  0.00000000000E+00 0.  1.
          5    1    4    4  501    0  0.79134844185E+02  0.41644015742E+02  0.35722457436E+02  0.96385237338E+02  0.41800000000E+01 0.  1.
         -5    1    4    4    0  501  0.14743171581E+02 -0.21120880919E+02 -0.57120581479E+02  0.62798773456E+02  0.41800000000E+01 0.  1.
</event>
<event>
11    1  0.1002087E-008  0.1298327E+03  0.7561462E-02  0.1119475E+00
         22   -1    0    0    0    0  0.00000000000E+00  0.00000000000E+00  0.45892265168E+03  0.45892265168E+03  0.00000000000E+00 0. -1.
         22   -1    0    0    0    0 -0.00000000000E+00 -0.00000000000E+00 -0.20440354683E+03  0.20440354683E+03  0.00000000000E+00 0. -1.
        -24    2    1    2    0    0  0.18594457401E+02  0.29155705685E+02 -0.15228837407E+03  0.17495857960E+03  0.78885655722E+02 0.  0.
         25    2    1    2    0    0 -0.35699472490E+01 -0.41131624639E+02  0.88348505536E+02  0.15860762698E+03  0.12508543415E+03 0.  0.
         24    2    1    2    0    0 -0.15024510152E+02  0.11975918954E+02  0.31845897339E+03  0.32975999193E+03  0.83404891959E+02 0.  0.
        -13    1    5    5    0    0  0.13147133282E+02 -0.28513121551E+02  0.74189005432E+02  0.80559628482E+02  0.00000000000E+00 0.  1.
         14    1    5    5    0    0 -0.28171643435E+02  0.40489040506E+02  0.24426996796E+03  0.24920036344E+03  0.00000000000E+00 0. -1.
         11    1    3    3    0    0 -0.13242375222E+02  0.24735021020E+02 -0.13611509789E+03  0.13897662264E+03  0.00000000000E+00 0. -1.
        -12    1    3    3    0    0  0.31836832623E+02  0.44206846654E+01 -0.16173276181E+02  0.35981956962E+02  0.00000000000E+00 0.  1.
          5    1    4    4  501    0  0.50080876600E+02 -0.31782764585E+02  0.85199624997E+02  0.10389748229E+03  0.41800000000E+01 0. -1.
         -5    1    4    4    0  501 -0.53650823848E+02 -0.93488600538E+01  0.31488805395E+01  0.54710144695E+02  0.41800000000E+01 0. -1.
</event>
<event>
11    1  0.1002087E-008  0.1651443E+03  0.7561462E-02  0.1082336E+00
         22   -1    0    0    0    0  0.00000000000E+00  0.00000000000E+00  0.44910607383E+03  0.44910607383E+03  0.00000000000E+00 0. -1.
         22   -1    0    0    0    0 -0.00000000000E+00 -0.00000000000E+00 -0.71564848499E+03  0.71564848499E+03  0.00000000000E+00 0. -1.
         24    2    1    2    0    0  0.38048846849E+02  0.53532041745E+02 -0.60369235324E+03  0.61240512466E+03  0.79260236694E+02 0.  0.
         25    2    1    2    0    0 -0.13901573986E+03 -0.69715877517E+02  0.99849463297E+01  0.19983140380E+03  0.12508881358E+03 0.  0.
        -24    2    1    2    0    0  0.10096689301E+03  0.16183835772E+02  0.32716499575E+03  0.35251803036E+03  0.82315231032E+02 0.  0.
        -11    1    3    3    0    0 -0.13665362011E+02 -0.12069088311E+02 -0.76956288598E+02  0.79086505590E+02  0.00000000000E+00 0.  1.
         12    1    3    3    0    0  0.51714208860E+02  0.65601130056E+02 -0.52673606464E+03  0.53331861907E+03  0.00000000000E+00 0. -1.
         11    1    5    5    0    0  0.94534025276E+02  0.24479930089E+01  0.32332699668E+03  0.33687241114E+03  0.00000000000E+00 0. -1.
        -12    1    5    5    0    0  0.64328677376E+01  0.13735842763E+02  0.38379990610E+01  0.15645619213E+02  0.00000000000E+00 0.  1.
          5    1    4    4  501    0 -0.79577378101E+02  0.28510305800E+02  0.67001817097E+01  0.84898536367E+02  0.41800000000E+01 0.  1.
         -5    1    4    4    0  501 -0.59438361761E+02 -0.98226183317E+02  0.32847646201E+01  0.11493286743E+03  0.41800000000E+01 0.  1.
</event>
<event>
11    1  0.1002087E-008  0.1358545E+03  0.7561462E-02  0.1112278E+00
         22   -1    0    0    0    0  0.00000000000E+00  0.00000000000E+00  0.16809434599E+04  0.16809434599E+04  0.00000000000E+00 0. -1.
         22   -1    0    0    0    0 -0.00000000000E+00 -0.00000000000E+00 -0.41398116130E+03  0.41398116130E+03  0.00000000000E+00 0. -1.
        -24    2    1    2    0    0 -0.10186249882E+02  0.51014231631E+02 -0.34383791853E+03  0.35720439033E+03  0.81634862245E+02 0.  0.
         25    2    1    2    0    0  0.60055886668E+02 -0.53783954300E+02  0.27251053157E+02  0.15129354594E+03  0.12509074259E+03 0.  0.
         24    2    1    2    0    0 -0.49869636787E+02  0.27697226693E+01  0.15835491640E+04  0.15864266849E+04  0.81406510072E+02 0.  0.
        -13    1    5    5    0    0 -0.35902701559E+01  0.12492791754E+01  0.21847736138E+01  0.43845152519E+01  0.00000000000E+00 0.  1.
         14    1    5    5    0    0 -0.46279366631E+02  0.15204434940E+01  0.15813643904E+04  0.15820421697E+04  0.00000000000E+00 0. -1.
         13    1    3    3    0    0  0.55297329466E+01  0.21440846128E+02 -0.30548965608E+03  0.30629106713E+03  0.00000000000E+00 0. -1.
        -14    1    3    3    0    0 -0.15715982828E+02  0.29573385503E+02 -0.38348262449E+02  0.50913323200E+02  0.00000000000E+00 0.  1.
          5    1    4    4  501    0  0.28162529236E+02  0.38405074882E+02  0.24254336208E+02  0.53608050278E+02  0.41800000000E+01 0. -1.
         -5    1    4    4    0  501  0.31893357432E+02 -0.92189029182E+02  0.29967169493E+01  0.97685495660E+02  0.41800000000E+01 0. -1.
</event>
<event>
11    1  0.1002087E-008  0.1399200E+03  0.7561462E-02  0.1107648E+00
         22   -1    0    0    0    0  0.00000000000E+00  0.00000000000E+00  0.28540668032E+03  0.28540668032E+03  0.00000000000E+00 0. -1.
         22   -1    0    0    0    0 -0.00000000000E+00 -0.00000000000E+00 -0.65334373535E+03  0.65334373535E+03  0.00000000000E+00 0.  1.
         24    2    1    2    0    0  0.42129363609E+02 -0.22421312532E+02 -0.56771022694E+03  0.57517342273E+03  0.79069373990E+02 0.  0.
         25    2    1    2    0    0  0.73312591807E+01  0.64566349614E+02  0.19477629732E+01  0.14097448804E+03  0.12508977430E+03 0.  0.
        -24    2    1    2    0    0 -0.49460622789E+02 -0.42145037082E+02  0.19782540894E+03  0.22260250490E+03  0.78704672092E+02 0.  0.
        -13    1    3    3    0    0 -0.65930309238E+00  0.53077520594E+01 -0.39640487014E+03  0.39644095145E+03  0.00000000000E+00 0.  1.
         14    1    3    3    0    0  0.42788666701E+02 -0.27729064591E+02 -0.17130535680E+03  0.17873247128E+03  0.00000000000E+00 0. -1.
         11    1    5    5    0    0 -0.27032851572E+02 -0.14936841658E+02  0.18085076069E+03  0.18346902175E+03  0.00000000000E+00 0. -1.
        -12    1    5    5    0    0 -0.22427771218E+02 -0.27208195424E+02  0.16974648256E+02  0.39133483150E+02  0.00000000000E+00 0.  1.
          5    1    4    4  501    0 -0.16691703208E+02  0.48979655114E+02  0.58031853884E+02  0.77863907148E+02  0.41800000000E+01 0.  1.
         -5    1    4    4    0  501  0.24022962389E+02  0.15586694499E+02 -0.56084090911E+02  0.63110580893E+02  0.41800000000E+01 0.  1.
</event>
<event>
11    1  0.1002087E-008  0.1310384E+03  0.7561462E-02  0.1118000E+00
         22   -1    0    0    0    0  0.00000000000E+00  0.00000000000E+00  0.31518784769E+03  0.31518784769E+03  0.00000000000E+00 0. -1.
         22   -1    0    0    0    0 -0.00000000000E+00 -0.00000000000E+00 -0.35657064961E+03  0.35657064961E+03  0.00000000000E+00 0. -1.
        -24    2    1    2    0    0  0.40431213599E+01 -0.33506712386E+01 -0.28821663724E+03  0.29941535744E+03  0.80951543894E+02 0.  0.
         25    2    1    2    0    0  0.17768486724E+02 -0.29851302141E+02  0.23823775593E+02  0.13199214996E+03  0.12509011155E+03 0.  0.
         24    2    1    2    0    0 -0.21811608084E+02  0.33201973380E+02  0.22301005973E+03  0.24035098990E+03  0.80355424963E+02 0.  0.
        -13    1    5    5    0    0 -0.19561195731E+02  0.41312275270E+02  0.52405999465E+02  0.69539436626E+02  0.00000000000E+00 0.  1.
         14    1    5    5    0    0 -0.22504123529E+01 -0.81103018898E+01  0.17060406026E+03  0.17081155327E+03  0.00000000000E+00 0. -1.
         13    1    3    3    0    0 -0.76507341163E+01 -0.38461585647E+02 -0.19901468770E+03  0.20284149778E+03  0.00000000000E+00 0. -1.
        -14    1    3    3    0    0  0.11693855476E+02  0.35110914408E+02 -0.89201949544E+02  0.96573859656E+02  0.00000000000E+00 0.  1.
          5    1    4    4  501    0 -0.11970837843E+02 -0.70222669973E+02 -0.89887125073E+01  0.71922136296E+02  0.41800000000E+01 0.  1.
         -5    1    4    4    0  501  0.29739324567E+02  0.40371367832E+02  0.32812488100E+02  0.60070013665E+02  0.41800000000E+01 0.  1.
</event>
<event>
11    1  0.1002087E-008  0.2296850E+03  0.7561462E-02  0.1035315E+00
         22   -1    0    0    0    0  0.00000000000E+00  0.00000000000E+00  0.24361285489E+03  0.24361285489E+03  0.00000000000E+00 0.  1.
         22   -1    0    0    0    0 -0.00000000000E+00 -0.00000000000E+00 -0.10776019938E+04  0.10776019938E+04  0.00000000000E+00 0.  1.
         24    2    1    2    0    0 -0.15917391617E+03 -0.59624217009E+02 -0.60537086904E+03  0.63389927321E+03  0.80392889257E+02 0.  0.
         25    2    1    2    0    0  0.30530933099E+03  0.24453612694E+02 -0.34732292002E+03  0.47967987448E+03  0.12509118452E+03 0.  0.
        -24    2    1    2    0    0 -0.14613541482E+03  0.35170604315E+02  0.11870465013E+03  0.20763570103E+03  0.80182663397E+02 0.  0.
        -13    1    3    3    0    0 -0.13939389838E+03 -0.56872471733E+02 -0.58941303257E+03  0.60833614056E+03  0.00000000000E+00 0.  1.
         14    1    3    3    0    0 -0.19780017790E+02 -0.27517452763E+01 -0.15957836472E+02  0.25563132647E+02  0.00000000000E+00 0. -1.
         11    1    5    5    0    0 -0.69989282882E+02  0.43831464380E+02  0.24385732649E+02  0.86106683508E+02  0.00000000000E+00 0. -1.
        -12    1    5    5    0    0 -0.76146131934E+02 -0.86608600646E+01  0.94318917480E+02  0.12152901752E+03  0.00000000000E+00 0.  1.
          5    1    4    4  501    0 -0.33995460975E+01  0.18855267680E+02 -0.37146329876E+02  0.42004764685E+02  0.41800000000E+01 0.  1.
         -5    1    4    4    0  501  0.30870887709E+03  0.55983450143E+01 -0.31017659014E+03  0.43767510979E+03  0.41800000000E+01 0.  1.
</event>
<event>
11    1  0.1002087E-008  0.1526865E+03  0.7561462E-02  0.1094165E+00
         22   -1    0    0    0    0  0.00000000000E+00  0.00000000000E+00  0.14423489165E+03  0.14423489165E+03  0.00000000000E+00 0.  1.
         22   -1    0    0    0    0 -0.00000000000E+00 -0.00000000000E+00 -0.17487344884E+04  0.17487344884E+04  0.00000000000E+00 0.  1.
         24    2    1    2    0    0  0.46752585982E+02  0.75181402345E+02 -0.16194187266E+04  0.16233775494E+04  0.70707909121E+02 0.  0.
         25    2    1    2    0    0 -0.19450231505E+00 -0.73074307081E+02 -0.52755334476E+02  0.15417688868E+03  0.12508994964E+03 0.  0.
        -24    2    1    2    0    0 -0.46558083667E+02 -0.21070952648E+01  0.67674464275E+02  0.11541494197E+03  0.81047397919E+02 0.  0.
        -13    1    3    3    0    0  0.52974089529E+02  0.85015944914E+02 -0.15160947445E+04  0.15194002894E+04  0.00000000000E+00 0.  1.
         14    1    3    3    0    0 -0.62215035473E+01 -0.98345425688E+01 -0.10332398207E+03  0.10397726004E+03  0.00000000000E+00 0. -1.
         13    1    5    5    0    0 -0.27207772272E+02 -0.38703862165E+02  0.17680102116E+02  0.50505819757E+02  0.00000000000E+00 0. -1.
        -14    1    5    5    0    0 -0.19350311395E+02  0.36596766900E+02  0.49994362159E+02  0.64909122211E+02  0.00000000000E+00 0.  1.
          5    1    4    4  501    0 -0.17605969357E+02 -0.99497573770E+02 -0.11156376560E+02  0.10174317904E+03  0.41800000000E+01 0. -1.
         -5    1    4    4    0  501  0.17411467042E+02  0.26423266690E+02 -0.41598957916E+02  0.52433709642E+02  0.41800000000E+01 0. -1.
</event>
<event>
11    1  0.1002087E-008  0.1308000E+03  0.7561462E-02  0.1118290E+00
         22   -1    0    0    0    0  0.00000000000E+00  0.00000000000E+00  0.30126620860E+03  0.30126620860E+03  0.00000000000E+00 0.  1.
         22   -1    0    0    0    0 -0.00000000000E+00 -0.00000000000E+00 -0.61962783893E+03  0.61962783893E+03  0.00000000000E+00 0.  1.
        -24    2    1    2    0    0 -0.18028885093E+02 -0.25932521247E+02 -0.29225765279E+03  0.30488176048E+03  0.80875310834E+02 0.  0.
         25    2    1    2    0    0  0.35131854475E+02 -0.86131210975E+01 -0.30039294875E+03  0.32740310268E+03  0.12509370460E+03 0.  0.
         24    2    1    2    0    0 -0.17102969382E+02  0.34545642344E+02  0.27428897120E+03  0.28860918438E+03  0.81085810200E+02 0.  0.
        -11    1    5    5    0    0 -0.22421337442E+02  0.27651930852E+02  0.27716328808E+03  0.27944021527E+03  0.00000000000E+00 0.  1.
         12    1    5    5    0    0  0.53183680595E+01  0.68937114920E+01 -0.28743168747E+01  0.91689691050E+01  0.00000000000E+00 0. -1.
         13    1    3    3    0    0 -0.68609673771E+01  0.88229873470E+00  0.34644208927E+01  0.77365067394E+01  0.00000000000E+00 0. -1.
        -14    1    3    3    0    0 -0.11167917716E+02 -0.26814819981E+02 -0.29572207368E+03  0.29714525374E+03  0.00000000000E+00 0.  1.
          5    1    4    4  501    0  0.30450072758E+02 -0.29796676338E+02 -0.30221739883E+03  0.30523413539E+03  0.41800000000E+01 0. -1.
         -5    1    4    4    0  501  0.46817817171E+01  0.21183555240E+02  0.18244500763E+01  0.22168967291E+02  0.41800000000E+01 0. -1.
</event>
<event>
11    1  0.1002087E-008  0.1422358E+03  0.7561462E-02  0.1105087E+00
         22   -1    0    0    0    0  0.00000000000E+00  0.00000000000E+00  0.50051239681E+03  0.50051239681E+03  0.00000000000E+00 0.  1.
         22   -1    0    0    0    0 -0.00000000000E+00 -0.00000000000E+00 -0.46998285734E+03  0.46998285734E+03  0.00000000000E+00 0.  1.
        -24    2    1    2    0    0  0.63337345158E+02  0.28162218939E+02 -0.41557833008E+03  0.42892427905E+03  0.80411186191E+02 0.  0.
         25    2    1    2    0    0 -0.30368135280E+02 -0.35651362646E+02  0.61549816706E+02  0.14706981407E+03  0.12509159435E+03 0.  0.
         24    2    1    2    0    0 -0.32969209878E+02  0.74891437072E+01  0.38455805284E+03  0.39450116102E+03  0.81260162288E+02 0.  0.
        -11    1    5    5    0    0 -0.27110982866E+01  0.41205616280E+02  0.21885792648E+03  0.22271965528E+03  0.00000000000E+00 0.  1.
         12    1    5    5    0    0 -0.30258111592E+02 -0.33716472573E+02  0.16570012636E+03  0.17178150574E+03  0.00000000000E+00 0. -1.
         11    1    3    3    0    0 -0.17913682126E+02  0.39518935961E+01 -0.41746413774E+02  0.45599128646E+02  0.00000000000E+00 0. -1.
        -12    1    3    3    0    0  0.81251027284E+02  0.24210325342E+02 -0.37383191630E+03  0.38332515041E+03  0.00000000000E+00 0.  1.
          5    1    4    4  501    0 -0.81496620631E+01 -0.78795929930E+02  0.17145357447E+02  0.81158186570E+02  0.41800000000E+01 0. -1.
         -5    1    4    4    0  501 -0.22218473217E+02  0.43144567285E+02  0.44404459259E+02  0.65911627505E+02  0.41800000000E+01 0. -1.
</event>
<event>
11    1  0.1002087E-008  0.1474477E+03  0.7561462E-02  0.1099516E+00
         22   -1    0    0    0    0  0.00000000000E+00  0.00000000000E+00  0.64522104948E+03  0.64522104948E+03  0.00000000000E+00 0.  1.
         22   -1    0    0    0    0 -0.00000000000E+00 -0.00000000000E+00 -0.10297373246E+04  0.10297373246E+04  0.00000000000E+00 0.  1.
         24    2    1    2    0    0  0.32235603094E+02  0.22628515912E+02 -0.94868759344E+03  0.95299533689E+03  0.81490970946E+02 0.  0.
         25    2    1    2    0    0  0.55129250309E+01 -0.90597796202E+02  0.81959536229E+01  0.15475133149E+03  0.12506977222E+03 0.  0.
        -24    2    1    2    0    0 -0.37748528125E+02  0.67969280289E+02  0.55597536470E+03  0.56721170571E+03  0.81090927389E+02 0.  0.
        -13    1    3    3    0    0  0.86486251155E+01 -0.77858789019E+01 -0.77529598537E+03  0.77538331396E+03  0.00000000000E+00 0.  1.
         14    1    3    3    0    0  0.23586977978E+02  0.30414394814E+02 -0.17339160807E+03  0.17761202293E+03  0.00000000000E+00 0. -1.
         13    1    5    5    0    0  0.23607643207E+02  0.30938408472E+02  0.24604663783E+03  0.24910530689E+03  0.00000000000E+00 0. -1.
        -14    1    5    5    0    0 -0.61356171332E+02  0.37030871817E+02  0.30992872687E+03  0.31810639881E+03  0.00000000000E+00 0.  1.
          5    1    4    4  501    0 -0.46026669311E+02  0.41705803714E+01  0.58213423050E+01  0.46767600481E+02  0.41800000000E+01 0.  1.
         -5    1    4    4    0  501  0.51539594342E+02 -0.94768376573E+02  0.23746113179E+01  0.10798373101E+03  0.41800000000E+01 0.  1.
</event>
<event>
11    1  0.1002087E-008  0.1406097E+03  0.7561462E-02  0.1106880E+00
         22   -1    0    0    0    0  0.00000000000E+00  0.00000000000E+00  0.32762791194E+03  0.32762791194E+03  0.00000000000E+00 0.  1.
         22   -1    0    0    0    0 -0.00000000000E+00 -0.00000000000E+00 -0.43596961774E+03  0.43596961774E+03  0.00000000000E+00 0.  1.
        -24    2    1    2    0    0  0.12130101901E+02 -0.25697572385E+01 -0.36196009436E+03  0.37102303808E+03  0.80555830659E+02 0.  0.
         25    2    1    2    0    0  0.77431140878E+01 -0.59517974268E+02  0.24484894672E+02  0.14088682819E+03  0.12508894121E+03 0.  0.
         24    2    1    2    0    0 -0.19873215989E+02  0.62087731507E+02  0.22913349388E+03  0.25168766342E+03  0.81207701503E+02 0.  0.
        -13    1    5    5    0    0 -0.24375802426E+02  0.57910513602E+02  0.23496353128E+03  0.24321938319E+03  0.00000000000E+00 0.  1.
         14    1    5    5    0    0  0.45025864370E+01  0.41772179047E+01 -0.58300373958E+01  0.84682802317E+01  0.00000000000E+00 0. -1.
         11    1    3    3    0    0  0.25442625336E+02 -0.25256464117E+02 -0.77964602831E+02  0.85811977359E+02  0.00000000000E+00 0. -1.
        -12    1    3    3    0    0 -0.13312523435E+02  0.22686706879E+02 -0.28399549152E+03  0.28521106072E+03  0.00000000000E+00 0.  1.
          5    1    4    4  501    0 -0.48841413649E+02 -0.25653413152E+02  0.45410332152E+02  0.71576196879E+02  0.41800000000E+01 0. -1.
         -5    1    4    4    0  501  0.56584527737E+02 -0.33864561116E+02 -0.20925437480E+02  0.69310631309E+02  0.41800000000E+01 0. -1.
</event>
<event>
11    1  0.1002087E-008  0.1651338E+03  0.7561462E-02  0.1082346E+00
         22   -1    0    0    0    0  0.00000000000E+00  0.00000000000E+00  0.15746796556E+04  0.15746796556E+04  0.00000000000E+00 0.  1.
         22   -1    0    0    0    0 -0.00000000000E+00 -0.00000000000E+00 -0.13329998331E+04  0.13329998331E+04  0.00000000000E+00 0.  1.
        -24    2    1    2    0    0 -0.29726685866E+02 -0.83663023037E+02 -0.12806539806E+04  0.12863249318E+04  0.81694766897E+02 0.  0.
         25    2    1    2    0    0  0.45180036173E+02  0.18425575732E+03  0.23396165801E+03  0.32616038757E+03  0.12510444130E+03 0.  0.
         24    2    1    2    0    0 -0.15453350307E+02 -0.10059273428E+03  0.12883721451E+04  0.12951941693E+04  0.85249326810E+02 0.  0.
        -11    1    5    5    0    0 -0.70607565615E+01 -0.10252535987E+03  0.77903477252E+03  0.78578399099E+03  0.00000000000E+00 0.  1.
         12    1    5    5    0    0 -0.83925937456E+01  0.19326255865E+01  0.50933737257E+03  0.50941017831E+03  0.00000000000E+00 0. -1.
         11    1    3    3    0    0  0.19569335600E+02  0.35178246387E+01 -0.26501544978E+03  0.26576027282E+03  0.00000000000E+00 0. -1.
        -12    1    3    3    0    0 -0.49296021466E+02 -0.87180847676E+02 -0.10156385308E+04  0.10205646590E+04  0.00000000000E+00 0.  1.
          5    1    4    4  501    0  0.33827646168E+01 -0.10285031329E+02  0.62181764189E+02  0.63255586027E+02  0.41800000000E+01 0. -1.
         -5    1    4    4    0  501  0.41797271556E+02  0.19454078865E+03  0.17177989382E+03  0.26290480155E+03  0.41800000000E+01 0. -1.
</event>
<event>
11    1  0.1002087E-008  0.2011792E+03  0.7561462E-02  0.1053693E+00
         22   -1    0    0    0    0  0.00000000000E+00  0.00000000000E+00  0.14914398000E+04  0.14914398000E+04  0.00000000000E+00 0.  1.
         22   -1    0    0    0    0 -0.00000000000E+00 -0.00000000000E+00 -0.66475028101E+03  0.66475028101E+03  0.00000000000E+00 0. -1.
         24    2    1    2    0    0  0.14522242378E+03  0.83678920126E+02 -0.47478504908E+03  0.51021235417E+03  0.82486904891E+02 0.  0.
         25    2    1    2    0    0 -0.11970197222E+03 -0.53005639701E+02 -0.12284927798E+03  0.21881153714E+03  0.12509349980E+03 0.  0.
        -24    2    1    2    0    0 -0.25520451567E+02 -0.30673280425E+02  0.14243238460E+04  0.14271661897E+04  0.80701741302E+02 0.  0.
        -11    1    3    3    0    0 -0.92899416290E+01  0.10829649962E+02 -0.21467274306E+02  0.25776504804E+02  0.00000000000E+00 0.  1.
         12    1    3    3    0    0  0.15451236541E+03  0.72849270164E+02 -0.45331777477E+03  0.48443584937E+03  0.00000000000E+00 0. -1.
         13    1    5    5    0    0 -0.14866719864E+02 -0.31505800821E+02  0.21570267286E+03  0.21849777556E+03  0.00000000000E+00 0. -1.
        -14    1    5    5    0    0 -0.10653731703E+02  0.83252039641E+00  0.12086211732E+04  0.12086684141E+04  0.00000000000E+00 0.  1.
          5    1    4    4  501    0 -0.75107013619E+02 -0.34397774974E+02 -0.14386808389E+03  0.16595110237E+03  0.41800000000E+01 0. -1.
         -5    1    4    4    0  501 -0.44594958596E+02 -0.18607864727E+02  0.21018805908E+02  0.52860434766E+02  0.41800000000E+01 0. -1.
</event>
<event>
11    1  0.1002087E-008  0.1452879E+03  0.7561462E-02  0.1101793E+00
         22   -1    0    0    0    0  0.00000000000E+00  0.00000000000E+00  0.66128812238E+03  0.66128812238E+03  0.00000000000E+00 0. -1.
         22   -1    0    0    0    0 -0.00000000000E+00 -0.00000000000E+00 -0.26402467440E+03  0.26402467440E+03  0.00000000000E+00 0. -1.
         24    2    1    2    0    0  0.76024813549E+01  0.39931817521E+02 -0.16106957278E+03  0.18380888427E+03  0.78676240951E+02 0.  0.
         25    2    1    2    0    0 -0.37796674740E+02 -0.10492821354E+03 -0.51367847994E+01  0.16766690262E+03  0.12508910847E+03 0.  0.
        -24    2    1    2    0    0  0.30194193385E+02  0.64996396022E+02  0.56346980556E+03  0.57383700988E+03  0.81574942976E+02 0.  0.
        -11    1    3    3    0    0  0.42593663071E+02  0.13793320813E+02 -0.76966092569E+02  0.89040750436E+02  0.00000000000E+00 0.  1.
         12    1    3    3    0    0 -0.34991181716E+02  0.26138496708E+02 -0.84103480209E+02  0.94768133839E+02  0.00000000000E+00 0. -1.
         11    1    5    5    0    0 -0.13675536457E+02 -0.12020135150E+02  0.14090949912E+03  0.14208093077E+03  0.00000000000E+00 0. -1.
        -12    1    5    5    0    0  0.43869729842E+02  0.77016531171E+02  0.42256030644E+03  0.43175607911E+03  0.00000000000E+00 0.  1.
          5    1    4    4  501    0 -0.83454943750E+02 -0.59085392750E+02 -0.88750124565E+01  0.10272316934E+03  0.41800000000E+01 0.  1.
         -5    1    4    4    0  501  0.45658269010E+02 -0.45842820792E+02  0.37382276571E+01  0.64943733287E+02  0.41800000000E+01 0.  1.
</event>
<event>
11    1  0.1002087E-008  0.1773932E+03  0.7561462E-02  0.1071771E+00
         22   -1    0    0    0    0  0.00000000000E+00  0.00000000000E+00  0.86916980104E+03  0.86916980104E+03  0.00000000000E+00 0. -1.
         22   -1    0    0    0    0 -0.00000000000E+00 -0.00000000000E+00 -0.38157661494E+03  0.38157661494E+03  0.00000000000E+00 0.  1.
         24    2    1    2    0    0  0.40857146329E+02  0.37463887271E+02 -0.30084666863E+03  0.31576091375E+03  0.78252075819E+02 0.  0.
         25    2    1    2    0    0 -0.11508185821E+03 -0.13095995708E+03  0.11317908948E+03  0.24259299245E+03  0.12509000456E+03 0.  0.
        -24    2    1    2    0    0  0.74224711884E+02  0.93496069813E+02  0.67526076525E+03  0.69239250979E+03  0.95809517292E+02 0.  0.
        -11    1    3    3    0    0  0.39026757824E+02  0.15335597165E+02 -0.28598420667E+03  0.28904192573E+03  0.00000000000E+00 0.  1.
         12    1    3    3    0    0  0.18303885044E+01  0.22128290106E+02 -0.14862461960E+02  0.26718988016E+02  0.00000000000E+00 0. -1.
         11    1    5    5    0    0  0.74474805475E+02  0.57169875653E+02  0.61426382781E+03  0.62139757120E+03  0.00000000000E+00 0. -1.
        -12    1    5    5    0    0 -0.25009359050E+00  0.36326194160E+02  0.60996937436E+02  0.70994938591E+02  0.00000000000E+00 0.  1.
          5    1    4    4  501    0 -0.69267605821E+01 -0.36704041694E+02  0.89575158545E+02  0.97140867389E+02  0.41800000000E+01 0. -1.
         -5    1    4    4    0  501 -0.10815509763E+03 -0.94255915390E+02  0.23603930940E+02  0.14545212506E+03  0.41800000000E+01 0. -1.
</event>
<event>
11    1  0.1002087E-008  0.1418341E+03  0.7561462E-02  0.1105527E+00
         22   -1    0    0    0    0  0.00000000000E+00  0.00000000000E+00  0.93651943683E+02  0.93651943683E+02  0.00000000000E+00 0.  1.
         22   -1    0    0    0    0 -0.00000000000E+00 -0.00000000000E+00 -0.56667015374E+03  0.56667015374E+03  0.00000000000E+00 0.  1.
         24    2    1    2    0    0 -0.33859635313E+02 -0.36739897563E+02 -0.34681435316E+03  0.35981262857E+03  0.81784088559E+02 0.  0.
         25    2    1    2    0    0 -0.40934318197E+02  0.33845692270E+02 -0.13302658433E+03  0.19017104700E+03  0.12509118948E+03 0.  0.
        -24    2    1    2    0    0  0.74793953509E+02  0.28942052929E+01  0.68227274292E+01  0.11033842186E+03  0.80780603019E+02 0.  0.
        -13    1    3    3    0    0 -0.21897357319E+02 -0.35277196867E+02 -0.34515982337E+03  0.34764821091E+03  0.00000000000E+00 0.  1.
         14    1    3    3    0    0 -0.11962277994E+02 -0.14627006952E+01 -0.16545297855E+01  0.12164417657E+02  0.00000000000E+00 0. -1.
         11    1    5    5    0    0  0.75547360761E+02  0.15547693916E+02 -0.20851369736E+02  0.79899400022E+02  0.00000000000E+00 0. -1.
        -12    1    5    5    0    0 -0.75340725131E+00 -0.12653488624E+02  0.27674097165E+02  0.30439021843E+02  0.00000000000E+00 0.  1.
          5    1    4    4  501    0 -0.33764434313E+00 -0.38911432949E+02 -0.85811199438E+02  0.94314622233E+02  0.41800000000E+01 0. -1.
         -5    1    4    4    0  501 -0.40596673853E+02  0.72757125219E+02 -0.47215384893E+02  0.95856424765E+02  0.41800000000E+01 0. -1.
</event>
<event>
11    1  0.1002087E-008  0.2814399E+03  0.7561462E-02  0.1008367E+00
         22   -1    0    0    0    0  0.00000000000E+00  0.00000000000E+00  0.60012705493E+03  0.60012705493E+03  0.00000000000E+00 0. -1.
         22   -1    0    0    0    0 -0.00000000000E+00 -0.00000000000E+00 -0.67844708500E+03  0.67844708500E+03  0.00000000000E+00 0. -1.
        -24    2    1    2    0    0  0.13502894559E+02 -0.30530373605E+02 -0.47220950173E+03  0.48002884349E+03  0.79570378815E+02 0.  0.
         25    2    1    2    0    0  0.97358885496E+02 -0.20277855016E+03 -0.64296334687E+02  0.26528656915E+03  0.12508018281E+03 0.  0.
         24    2    1    2    0    0 -0.11086178006E+03  0.23330892376E+03  0.45818580635E+03  0.53325872728E+03  0.87790938623E+02 0.  0.
        -11    1    5    5    0    0 -0.58547112554E+02  0.82442177621E+02  0.25854176036E+03  0.27761181331E+03  0.00000000000E+00 0.  1.
         12    1    5    5    0    0 -0.52314667502E+02  0.15086674614E+03  0.19964404598E+03  0.25564691397E+03  0.00000000000E+00 0. -1.
         13    1    3    3    0    0 -0.79252686962E+01  0.91623488354E+01 -0.34223958633E+03  0.34245392825E+03  0.00000000000E+00 0. -1.
        -14    1    3    3    0    0  0.21428163256E+02 -0.39692722440E+02 -0.12996991539E+03  0.13757491524E+03  0.00000000000E+00 0.  1.
          5    1    4    4  501    0 -0.19930687507E+02 -0.12775188201E+02 -0.31403870999E+02  0.39548871688E+02  0.41800000000E+01 0.  1.
         -5    1    4    4    0  501  0.11728957300E+03 -0.19000336196E+03 -0.32892463688E+02  0.22573769747E+03  0.41800000000E+01 0.  1.
</event>
<event>
11    1  0.1002087E-008  0.1325702E+03  0.7561462E-02  0.1116151E+00
         22   -1    0    0    0    0  0.00000000000E+00  0.00000000000E+00  0.53263162728E+02  0.53263162728E+02  0.00000000000E+00 0. -1.
         22   -1    0    0    0    0 -0.00000000000E+00 -0.00000000000E+00 -0.73462751291E+03  0.73462751291E+03  0.00000000000E+00 0.  1.
        -24    2    1    2    0    0  0.27460489183E+02  0.29620760541E+02 -0.33329605054E+03  0.34531927217E+03  0.80794025184E+02 0.  0.
         25    2    1    2    0    0 -0.93582286101E+01 -0.65973010827E+02 -0.30473359725E+03  0.33608032821E+03  0.12508959635E+03 0.  0.
         24    2    1    2    0    0 -0.18102260573E+02  0.36352250286E+02 -0.43334702381E+02  0.10649107525E+03  0.88392730122E+02 0.  0.
        -11    1    5    5    0    0 -0.46079233047E+02  0.35737852057E+02 -0.51007827918E+02  0.77474436408E+02  0.00000000000E+00 0.  1.
         12    1    5    5    0    0  0.27976972475E+02  0.61439822915E+00  0.76731255378E+01  0.29016638840E+02  0.00000000000E+00 0. -1.
         13    1    3    3    0    0  0.26678825740E+02  0.54514942383E+01 -0.27965583032E+02  0.39032708932E+02  0.00000000000E+00 0. -1.
        -14    1    3    3    0    0  0.78166344331E+00  0.24169266303E+02 -0.30533046751E+03  0.30628656324E+03  0.00000000000E+00 0.  1.
          5    1    4    4  501    0 -0.14478629188E+02 -0.56771442911E+02 -0.31521803858E+03  0.32064390167E+03  0.41800000000E+01 0.  1.
         -5    1    4    4    0  501  0.51204005782E+01 -0.92015679162E+01  0.10484441331E+02  0.15436426536E+02  0.41800000000E+01 0.  1.
</event>
<event>
11    1  0.1002087E-008  0.1710309E+03  0.7561462E-02  0.1077138E+00
         22   -1    0    0    0    0  0.00000000000E+00  0.00000000000E+00  0.36161381427E+04  0.36161381427E+04  0.00000000000E+00 0.  1.
         22   -1    0    0    0    0 -0.00000000000E+00 -0.00000000000E+00 -0.13205691418E+03  0.13205691418E+03  0.00000000000E+00 0.  1.
        -24    2    1    2    0    0 -0.27401638464E+02 -0.81111122153E+02 -0.64998157781E+02  0.13417300915E+03  0.80298019539E+02 0.  0.
         25    2    1    2    0    0  0.16615341006E+02  0.19354749902E+03  0.40033062411E+03  0.46222205172E+03  0.12509161668E+03 0.  0.
         24    2    1    2    0    0  0.10786297458E+02 -0.11243637687E+03  0.31487487621E+04  0.31517999960E+04  0.80412463861E+02 0.  0.
        -13    1    5    5    0    0  0.41479932482E+02 -0.83226442699E+02  0.18177735987E+04  0.18201505657E+04  0.00000000000E+00 0.  1.
         14    1    5    5    0    0 -0.30693635024E+02 -0.29209934167E+02  0.13309751635E+04  0.13316494303E+04  0.00000000000E+00 0. -1.
         13    1    3    3    0    0 -0.26417355380E+02  0.19712580838E+01  0.31961884021E+01  0.26682918581E+02  0.00000000000E+00 0. -1.
        -14    1    3    3    0    0 -0.98428308372E+00 -0.83082380237E+02 -0.68194346183E+02  0.10749009057E+03  0.00000000000E+00 0.  1.
          5    1    4    4  501    0 -0.53081778596E+02  0.59700213723E+02  0.14488961566E+03  0.16550608407E+03  0.41800000000E+01 0. -1.
         -5    1    4    4    0  501  0.69697119602E+02  0.13384728530E+03  0.25544100845E+03  0.29671596765E+03  0.41800000000E+01 0. -1.
</event>
<event>
11    1  0.1002087E-008  0.3398400E+03  0.7561462E-02  0.9846109E-01
         22   -1    0    0    0    0  0.00000000000E+00  0.00000000000E+00  0.26670140869E+04  0.26670140869E+04  0.00000000000E+00 0.  1.
         22   -1    0    0    0    0 -0.00000000000E+00 -0.00000000000E+00 -0.66986215884E+02  0.66986215884E+02  0.00000000000E+00 0.  1.
        -24    2    1    2    0    0  0.18028140761E+01  0.29193162048E+02  0.15148948124E+03  0.17406193279E+03  0.80579170210E+02 0.  0.
         25    2    1    2    0    0  0.19876842479E+03 -0.26594650923E+03  0.73032194685E+03  0.81194464654E+03  0.12509008968E+03 0.  0.
         24    2    1    2    0    0 -0.20057123886E+03  0.23675334718E+03  0.17182164429E+04  0.17479937234E+04  0.83266699297E+02 0.  0.
        -13    1    5    5    0    0 -0.12682549595E+03  0.13311870784E+03  0.79063743760E+03  0.81173447292E+03  0.00000000000E+00 0.  1.
         14    1    5    5    0    0 -0.73745742917E+02  0.10363463934E+03  0.92757900531E+03  0.93625925050E+03  0.00000000000E+00 0. -1.
         11    1    3    3    0    0 -0.35735625430E+02  0.81128201352E+00  0.43768716178E+02  0.56510119618E+02  0.00000000000E+00 0. -1.
        -12    1    3    3    0    0  0.37538439506E+02  0.28381880035E+02  0.10772076506E+03  0.11755181318E+03  0.00000000000E+00 0.  1.
          5    1    4    4  501    0 -0.14432117539E+02 -0.37028435038E+02  0.58437566725E+02  0.70794156699E+02  0.41800000000E+01 0.  1.
         -5    1    4    4    0  501  0.21320054233E+03 -0.22891807420E+03  0.67188438012E+03  0.74115048984E+03  0.41800000000E+01 0.  1.
</event>
<event>
11    1  0.1002087E-008  0.1305537E+03  0.7561462E-02  0.1118591E+00
         22   -1    0    0    0    0  0.00000000000E+00  0.00000000000E+00  0.33049776228E+04  0.33049776228E+04  0.00000000000E+00 0.  1.
         22   -1    0    0    0    0 -0.00000000000E+00 -0.00000000000E+00 -0.76333018535E+02  0.76333018535E+02  0.00000000000E+00 0. -1.
        -24    2    1    2    0    0 -0.42308613996E+02 -0.17180977790E+02 -0.40521560267E+02  0.10045762414E+03  0.79778020692E+02 0.  0.
         25    2    1    2    0    0  0.30417456041E+02 -0.22356714128E+02  0.85394326850E+03  0.86388132989E+03  0.12508717767E+03 0.  0.
         24    2    1    2    0    0  0.11891157955E+02  0.39537691918E+02  0.24152228960E+04  0.24169716873E+04  0.82133251465E+02 0.  0.
        -13    1    5    5    0    0 -0.35407508563E+02  0.20285165675E+02  0.11137293214E+04  0.11144766400E+04  0.00000000000E+00 0.  1.
         14    1    5    5    0    0  0.47298666517E+02  0.19252526243E+02  0.13014935746E+04  0.13024950473E+04  0.00000000000E+00 0. -1.
         11    1    3    3    0    0 -0.61747019847E+02  0.58453323475E+00 -0.40996129234E+02  0.74119624603E+02  0.00000000000E+00 0. -1.
        -12    1    3    3    0    0  0.19438405851E+02 -0.17765511025E+02  0.47456896749E+00  0.26337999538E+02  0.00000000000E+00 0.  1.
          5    1    4    4  501    0 -0.25602759997E+02 -0.11358280298E+02  0.46732686644E+02  0.54643647863E+02  0.41800000000E+01 0.  1.
         -5    1    4    4    0  501  0.56020216038E+02 -0.10998433830E+02  0.80721058186E+03  0.80923768203E+03  0.41800000000E+01 0.  1.
</event>
<event>
11    1  0.1002087E-008  0.1345373E+03  0.7561462E-02  0.1113816E+00
         22   -1    0    0    0    0  0.00000000000E+00  0.00000000000E+00  0.21967437566E+03  0.21967437566E+03  0.00000000000E+00 0. -1.
         22   -1    0    0    0    0 -0.00000000000E+00 -0.00000000000E+00 -0.10199429946E+04  0.10199429946E+04  0.00000000000E+00 0.  1.
        -24    2    1    2    0    0 -0.23601241571E+02 -0.23542169537E+02 -0.81361201940E+03  0.81814919093E+03  0.79324196557E+02 0.  0.
         25    2    1    2    0    0 -0.19245607628E+02  0.49216648943E+02 -0.16861027829E+03  0.21649413424E+03  0.12509041639E+03 0.  0.
         24    2    1    2    0    0  0.42846849198E+02 -0.25674479406E+02  0.18195367875E+03  0.20497404508E+03  0.80076129804E+02 0.  0.
        -13    1    5    5    0    0  0.47701813725E+00 -0.25367363971E+02  0.90234759721E+01  0.26928680246E+02  0.00000000000E+00 0.  1.
         14    1    5    5    0    0  0.42369831061E+02 -0.30711543507E+00  0.17293020278E+03  0.17804536483E+03  0.00000000000E+00 0. -1.
         11    1    3    3    0    0 -0.77573331187E+01 -0.12577931783E+01 -0.55408928620E+01  0.96155995394E+01  0.00000000000E+00 0. -1.
        -12    1    3    3    0    0 -0.15843908452E+02 -0.22284376358E+02 -0.80807112654E+03  0.80853359140E+03  0.00000000000E+00 0.  1.
          5    1    4    4  501    0  0.40981574934E+02 -0.17708187046E+02 -0.45130243463E+02  0.63618241469E+02  0.41800000000E+01 0.  1.
         -5    1    4    4    0  501 -0.60227182562E+02  0.66924835989E+02 -0.12348003482E+03  0.15287589277E+03  0.41800000000E+01 0.  1.
</event>
<event>
11    1  0.1002087E-008  0.1406241E+03  0.7561462E-02  0.1106864E+00
         22   -1    0    0    0    0  0.00000000000E+00  0.00000000000E+00  0.45521602047E+03  0.45521602047E+03  0.00000000000E+00 0.  1.
         22   -1    0    0    0    0 -0.00000000000E+00 -0.00000000000E+00 -0.48671650120E+03  0.48671650120E+03  0.00000000000E+00 0. -1.
        -24    2    1    2    0    0  0.67629080674E+02  0.13038660545E+02 -0.34542116346E+03  0.36134387234E+03  0.80684042342E+02 0.  0.
         25    2    1    2    0    0 -0.21487305654E+02 -0.71028828787E+02 -0.84869440813E+02  0.16839653099E+03  0.12509105020E+03 0.  0.
         24    2    1    2    0    0 -0.46141775020E+02  0.57990168242E+02  0.39879012354E+03  0.41219211835E+03  0.73327053576E+02 0.  0.
        -13    1    5    5    0    0 -0.63101969809E+02  0.38838801479E+02  0.34156007966E+03  0.34950479126E+03  0.00000000000E+00 0.  1.
         14    1    5    5    0    0  0.16960194789E+02  0.19151366763E+02  0.57230043874E+02  0.62687327092E+02  0.00000000000E+00 0. -1.
         13    1    3    3    0    0  0.22637168635E+02 -0.20450073721E+02 -0.24000099969E+03  0.24193207057E+03  0.00000000000E+00 0. -1.
        -14    1    3    3    0    0  0.44991912039E+02  0.33488734266E+02 -0.10542016377E+03  0.11941180176E+03  0.00000000000E+00 0.  1.
          5    1    4    4  501    0 -0.92975445680E+01  0.29908413228E+02  0.57755353147E+01  0.32121437156E+02  0.41800000000E+01 0.  1.
         -5    1    4    4    0  501 -0.12189761086E+02 -0.10093724202E+03 -0.90644976128E+02  0.13627509383E+03  0.41800000000E+01 0.  1.
</event>
<event>
11    1  0.1151015E-008  0.2232101E+03  0.7561462E-02  0.1039225E+00
         22   -1    0    0    0    0  0.00000000000E+00  0.00000000000E+00  0.85862376371E+03  0.85862376371E+03  0.00000000000E+00 0.  1.
         22   -1    0    0    0    0 -0.00000000000E+00 -0.00000000000E+00 -0.11691399021E+04  0.11691399021E+04  0.00000000000E+00 0.  1.
         24    2    1    2    0    0 -0.11660834106E+02  0.88000948556E+02 -0.61360214130E+03  0.62511346905E+03  0.79869389511E+02 0.  0.
         25    2    1    2    0    0 -0.11246039723E+03  0.51229722597E+02 -0.52299256140E+03  0.55175972987E+03  0.12508299166E+03 0.  0.
        -24    2    1    2    0    0  0.12412123134E+03 -0.13923067115E+03  0.82607856426E+03  0.85089046694E+03  0.82568350751E+02 0.  0.
        -11    1    3    3    0    0  0.11847680948E+02  0.89225911128E+01 -0.31429571159E+03  0.31464547430E+03  0.00000000000E+00 0.  1.
         12    1    3    3    0    0 -0.23508515054E+02  0.79078357443E+02 -0.29930642971E+03  0.31046799475E+03  0.00000000000E+00 0. -1.
         13    1    5    5    0    0  0.11699395802E+02 -0.71895749210E+02  0.28270636511E+03  0.29193965727E+03  0.00000000000E+00 0. -1.
        -14    1    5    5    0    0  0.11242183553E+03 -0.67334921943E+02  0.54337219915E+03  0.55895080966E+03  0.00000000000E+00 0.  1.
          5    1    4    4  501    0 -0.19841519188E+02  0.53251019439E+02 -0.74568719987E+02  0.93847340695E+02  0.41800000000E+01 0. -1.
         -5    1    4    4    0  501 -0.92618878043E+02 -0.20212968417E+01 -0.44842384141E+03  0.45791238918E+03  0.41800000000E+01 0. -1.
</event>
<event>
11    1  0.1002087E-008  0.1476921E+03  0.7561462E-02  0.1099261E+00
         22   -1    0    0    0    0  0.00000000000E+00  0.00000000000E+00  0.52431056624E+03  0.52431056624E+03  0.00000000000E+00 0. -1.
         22   -1    0    0    0    0 -0.00000000000E+00 -0.00000000000E+00 -0.11644884585E+04  0.11644884585E+04  0.00000000000E+00 0.  1.
        -24    2    1    2    0    0 -0.67511786379E+02  0.38318800469E+02 -0.10978325188E+04  0.11036463059E+04  0.82296765046E+02 0.  0.
         25    2    1    2    0    0  0.83342839087E+02 -0.10050437458E+03  0.86420513299E+02  0.20040880293E+03  0.12509206624E+03 0.  0.
         24    2    1    2    0    0 -0.15831052707E+02  0.62185574109E+02  0.37123411325E+03  0.38474391586E+03  0.78073337913E+02 0.  0.
        -13    1    5    5    0    0 -0.16272539476E+02 -0.16021552478E+02  0.81110152910E+02  0.84263530604E+02  0.00000000000E+00 0.  1.
         14    1    5    5    0    0  0.44148676833E+00  0.78207126587E+02  0.29012396034E+03  0.30048038525E+03  0.00000000000E+00 0. -1.
         11    1    3    3    0    0  0.70806613628E+01  0.31676493436E+02 -0.19207345135E+03  0.19479668045E+03  0.00000000000E+00 0. -1.
        -12    1    3    3    0    0 -0.74592447742E+02  0.66423070331E+01 -0.90575906742E+03  0.90884962547E+03  0.00000000000E+00 0.  1.
          5    1    4    4  501    0  0.91668326224E+01  0.29328015722E+02  0.11163484496E+02  0.32958445239E+02  0.41800000000E+01 0. -1.
         -5    1    4    4    0  501  0.74176006464E+02 -0.12983239030E+03  0.75257028803E+02  0.16745035769E+03  0.41800000000E+01 0. -1.
</event>
<event>
11    1  0.1002087E-008  0.1487053E+03  0.7561462E-02  0.1098209E+00
         22   -1    0    0    0    0  0.00000000000E+00  0.00000000000E+00  0.10547032634E+04  0.10547032634E+04  0.00000000000E+00 0.  1.
         22   -1    0    0    0    0 -0.00000000000E+00 -0.00000000000E+00 -0.29835124639E+03  0.29835124639E+03  0.00000000000E+00 0. -1.
         24    2    1    2    0    0  0.12347847805E+02  0.29947920662E+02 -0.26347975919E+03  0.27711439373E+03  0.79507587142E+02 0.  0.
         25    2    1    2    0    0 -0.32885715209E+02 -0.10296189216E+03  0.25972885082E+03  0.30787769146E+03  0.12508787091E+03 0.  0.
        -24    2    1    2    0    0  0.20537867404E+02  0.73013971494E+02  0.76010292537E+03  0.76806242459E+03  0.80066140705E+02 0.  0.
        -11    1    3    3    0    0 -0.10572140383E+02  0.41428064593E+01  0.29020024609E-01  0.11354903778E+02  0.00000000000E+00 0.  1.
         12    1    3    3    0    0  0.22919988188E+02  0.25805114202E+02 -0.26350877921E+03  0.26575948995E+03  0.00000000000E+00 0. -1.
         13    1    5    5    0    0  0.36962269613E+02  0.17762062132E+02  0.49852513214E+03  0.50020896393E+03  0.00000000000E+00 0. -1.
        -14    1    5    5    0    0 -0.16424402210E+02  0.55251909362E+02  0.26157779323E+03  0.26785346066E+03  0.00000000000E+00 0.  1.
          5    1    4    4  501    0 -0.59359886767E+02 -0.77922195197E+01  0.59203334334E+02  0.84301969362E+02  0.41800000000E+01 0.  1.
         -5    1    4    4    0  501  0.26474171558E+02 -0.95169672636E+02  0.20052551648E+03  0.22357572209E+03  0.41800000000E+01 0.  1.
</event>
<event>
11    1  0.1002087E-008  0.1582657E+03  0.7561462E-02  0.1088720E+00
         22   -1    0    0    0    0  0.00000000000E+00  0.00000000000E+00  0.62061044720E+03  0.62061044720E+03  0.00000000000E+00 0.  1.
         22   -1    0    0    0    0 -0.00000000000E+00 -0.00000000000E+00 -0.99234072279E+02  0.99234072279E+02  0.00000000000E+00 0.  1.
        -24    2    1    2    0    0  0.41225215000E+02  0.14133912597E+02  0.51102530033E+01  0.88109819597E+02  0.76406411946E+02 0.  0.
         25    2    1    2    0    0 -0.11278563896E+03 -0.69596484186E+02  0.12138491090E+03  0.21896878498E+03  0.12509500884E+03 0.  0.
         24    2    1    2    0    0  0.71560423957E+02  0.55462571589E+02  0.39488121102E+03  0.41276591490E+03  0.79041372463E+02 0.  0.
        -11    1    5    5    0    0  0.80549116409E+02  0.38813294665E+02  0.37420601533E+03  0.38473987824E+03  0.00000000000E+00 0.  1.
         12    1    5    5    0    0 -0.89886924522E+01  0.16649276925E+02  0.20675195693E+02  0.28026036663E+02  0.00000000000E+00 0. -1.
         11    1    3    3    0    0 -0.12949071885E+01  0.38546321910E+02  0.62255079736E+01  0.39067283844E+02  0.00000000000E+00 0. -1.
        -12    1    3    3    0    0  0.42520122189E+02 -0.24412409313E+02 -0.11152549702E+01  0.49042535753E+02  0.00000000000E+00 0.  1.
          5    1    4    4  501    0 -0.12588848998E+03 -0.85425199390E+02  0.12590034035E+03  0.19751897302E+03  0.41800000000E+01 0.  1.
         -5    1    4    4    0  501  0.13102851026E+02  0.15828715204E+02 -0.45154294598E+01  0.21449811962E+02  0.41800000000E+01 0.  1.
</event>
<event>
11    1  0.1002087E-008  0.1428754E+03  0.7561462E-02  0.1104389E+00
         22   -1    0    0    0    0  0.00000000000E+00  0.00000000000E+00  0.68630412365E+03  0.68630412365E+03  0.00000000000E+00 0.  1.
         22   -1    0    0    0    0 -0.00000000000E+00 -0.00000000000E+00 -0.67568522189E+03  0.67568522189E+03  0.00000000000E+00 0. -1.
         24    2    1    2    0    0 -0.15497052514E+02  0.27489205278E+02 -0.56584832042E+03  0.57252994118E+03  0.81304346644E+02 0.  0.
         25    2    1    2    0    0 -0.40148109218E+01 -0.92739111936E+02 -0.42373932393E+02  0.16142080650E+03  0.12507783591E+03 0.  0.
        -24    2    1    2    0    0  0.19511863435E+02  0.65249906658E+02  0.61884115457E+03  0.62803859786E+03  0.82642862236E+02 0.  0.
        -13    1    3    3    0    0  0.13548724348E+02 -0.18599853981E+02 -0.69715179048E+02  0.73414771601E+02  0.00000000000E+00 0.  1.
         14    1    3    3    0    0 -0.29045776861E+02  0.46089059259E+02 -0.49613314137E+03  0.49911516958E+03  0.00000000000E+00 0. -1.
         11    1    5    5    0    0 -0.23099015507E+02  0.26355384769E+02  0.99275088432E+02  0.10527921925E+03  0.00000000000E+00 0. -1.
        -12    1    5    5    0    0  0.42610878943E+02  0.38894521889E+02  0.51956606614E+03  0.52275937861E+03  0.00000000000E+00 0.  1.
          5    1    4    4  501    0  0.41891279192E+02 -0.43047886147E+02  0.25600430174E+02  0.65428237017E+02  0.41800000000E+01 0. -1.
         -5    1    4    4    0  501 -0.45906090114E+02 -0.49691225789E+02 -0.67974362568E+02  0.95992569485E+02  0.41800000000E+01 0. -1.
</event>
<event>
11    1  0.1002087E-008  0.1971999E+03  0.7561462E-02  0.1056522E+00
         22   -1    0    0    0    0  0.00000000000E+00  0.00000000000E+00  0.32034141504E+03  0.32034141504E+03  0.00000000000E+00 0. -1.
         22   -1    0    0    0    0 -0.00000000000E+00 -0.00000000000E+00 -0.15537480852E+04  0.15537480852E+04  0.00000000000E+00 0.  1.
        -24    2    1    2    0    0  0.43503852351E+02  0.34387472136E+01 -0.12760977331E+04  0.12787197317E+04  0.69241009912E+02 0.  0.
         25    2    1    2    0    0 -0.24669795426E+02  0.14864132311E+03 -0.21145822844E+03  0.28820502902E+03  0.12507883368E+03 0.  0.
         24    2    1    2    0    0 -0.18834056926E+02 -0.15208007032E+03  0.25414929141E+03  0.30716473957E+03  0.79216446656E+02 0.  0.
        -13    1    5    5    0    0 -0.25250377061E+02 -0.83717788055E+02  0.74622938624E+02  0.11495578518E+03  0.00000000000E+00 0.  1.
         14    1    5    5    0    0  0.64163201349E+01 -0.68362282269E+02  0.17952635279E+03  0.19220895439E+03  0.00000000000E+00 0. -1.
         13    1    3    3    0    0 -0.13857161098E+02  0.17929821151E+02 -0.34026594333E+03  0.34101966453E+03  0.00000000000E+00 0. -1.
        -14    1    3    3    0    0  0.57361013450E+02 -0.14491073937E+02 -0.93583178981E+03  0.93770006714E+03  0.00000000000E+00 0.  1.
          5    1    4    4  501    0 -0.13645494899E+02  0.10989005661E+03 -0.49691683943E+02  0.12144447261E+03  0.41800000000E+01 0. -1.
         -5    1    4    4    0  501 -0.11024300526E+02  0.38751266496E+02 -0.16176654449E+03  0.16676055641E+03  0.41800000000E+01 0. -1.
</event>
<event>
11    1  0.1002087E-008  0.1911689E+03  0.7561462E-02  0.1060950E+00
         22   -1    0    0    0    0  0.00000000000E+00  0.00000000000E+00  0.51817650096E+03  0.51817650096E+03  0.00000000000E+00 0.  1.
         22   -1    0    0    0    0 -0.00000000000E+00 -0.00000000000E+00 -0.54187506899E+03  0.54187506899E+03  0.00000000000E+00 0. -1.
         24    2    1    2    0    0  0.26591425232E+02  0.14052197880E+03 -0.36988873807E+03  0.40460043871E+03  0.80189189023E+02 0.  0.
         25    2    1    2    0    0  0.31414826528E+02 -0.15679307024E+03 -0.79480960810E+02  0.21802851113E+03  0.12509296676E+03 0.  0.
        -24    2    1    2    0    0 -0.58006251760E+02  0.16271091437E+02  0.42567113084E+03  0.43742262011E+03  0.80704171457E+02 0.  0.
        -11    1    3    3    0    0 -0.24594487755E+02  0.33612321196E+02 -0.62067800604E+02  0.74746831611E+02  0.00000000000E+00 0.  1.
         12    1    3    3    0    0  0.51185912987E+02  0.10690965761E+03 -0.30782093746E+03  0.32985360710E+03  0.00000000000E+00 0. -1.
         11    1    5    5    0    0 -0.18334927508E+02  0.22949237539E+02  0.39830802158E+02  0.49490704893E+02  0.00000000000E+00 0. -1.
        -12    1    5    5    0    0 -0.39671324252E+02 -0.66781461019E+01  0.38584032868E+03  0.38793191521E+03  0.00000000000E+00 0.  1.
          5    1    4    4  501    0  0.21644954508E+02 -0.16389963884E+03 -0.31468026371E+02  0.16834281912E+03  0.41800000000E+01 0. -1.
         -5    1    4    4    0  501  0.97698720203E+01  0.71065685986E+01 -0.48012934440E+02  0.49685692005E+02  0.41800000000E+01 0. -1.
</event>
<event>
11    1  0.1002087E-008  0.1522842E+03  0.7561462E-02  0.1094567E+00
         22   -1    0    0    0    0  0.00000000000E+00  0.00000000000E+00  0.12631374423E+03  0.12631374423E+03  0.00000000000E+00 0.  1.
         22   -1    0    0    0    0 -0.00000000000E+00 -0.00000000000E+00 -0.37999907728E+04  0.37999907728E+04  0.00000000000E+00 0. -1.
         24    2    1    2    0    0  0.18914807118E+02  0.84418192104E+02 -0.35768173845E+04  0.35787717125E+04  0.80623614198E+02 0.  0.
         25    2    1    2    0    0  0.72334975994E+01 -0.10173392836E+03 -0.17163962862E+03  0.23560635164E+03  0.12509226655E+03 0.  0.
        -24    2    1    2    0    0 -0.26148304718E+02  0.17315736257E+02  0.74779984526E+02  0.11192645290E+03  0.77148663061E+02 0.  0.
        -13    1    3    3    0    0 -0.70533914967E+01  0.43148867009E+02 -0.61465226992E+03  0.61620531317E+03  0.00000000000E+00 0.  1.
         14    1    3    3    0    0  0.25968198615E+02  0.41269325096E+02 -0.29621651145E+04  0.29625663993E+04  0.00000000000E+00 0. -1.
         13    1    5    5    0    0 -0.61789315366E+01 -0.25095742362E+02  0.55530686566E+02  0.61250572488E+02  0.00000000000E+00 0. -1.
        -14    1    5    5    0    0 -0.19969373181E+02  0.42411478619E+02  0.19249297960E+02  0.50675880415E+02  0.00000000000E+00 0.  1.
          5    1    4    4  501    0 -0.24928524170E+02 -0.12080508893E+03 -0.12472087566E+03  0.17546529587E+03  0.41800000000E+01 0.  1.
         -5    1    4    4    0  501  0.32162021769E+02  0.19071160565E+02 -0.46918752961E+02  0.60141055769E+02  0.41800000000E+01 0.  1.
</event>
<event>
11    1  0.1257785E-008  0.1910751E+03  0.7561462E-02  0.1061021E+00
         22   -1    0    0    0    0  0.00000000000E+00  0.00000000000E+00  0.30750011572E+03  0.30750011572E+03  0.00000000000E+00 0.  1.
         22   -1    0    0    0    0 -0.00000000000E+00 -0.00000000000E+00 -0.15898012156E+04  0.15898012156E+04  0.00000000000E+00 0. -1.
        -24    2    1    2    0    0 -0.11273180708E+03 -0.28524025925E+01 -0.10456322881E+04  0.10549503389E+04  0.82805428982E+02 0.  0.
         25    2    1    2    0    0  0.20787518200E+02  0.11814469191E+03 -0.50039814850E+03  0.52956447139E+03  0.12509969306E+03 0.  0.
         24    2    1    2    0    0  0.91944288883E+02 -0.11529228932E+03  0.26372933673E+03  0.31278652103E+03  0.80846647731E+02 0.  0.
        -13    1    5    5    0    0  0.96746661635E+02 -0.10975135618E+03  0.19559853022E+03  0.24426228064E+03  0.00000000000E+00 0.  1.
         14    1    5    5    0    0 -0.48023727519E+01 -0.55409331346E+01  0.68130806515E+02  0.68524240386E+02  0.00000000000E+00 0. -1.
         11    1    3    3    0    0 -0.35613545936E+02  0.18827134753E+02 -0.65233870112E+03  0.65358133896E+03  0.00000000000E+00 0. -1.
        -12    1    3    3    0    0 -0.77118261147E+02 -0.21679537346E+02 -0.39329358696E+03  0.40136899990E+03  0.00000000000E+00 0.  1.
          5    1    4    4  501    0 -0.13320923707E+02  0.87118830362E+02 -0.45917235985E+03  0.46757231105E+03  0.41800000000E+01 0. -1.
         -5    1    4    4    0  501  0.34108441907E+02  0.31025861548E+02 -0.41225788645E+02  0.61992160340E+02  0.41800000000E+01 0. -1.
</event>
<event>
11    1  0.1002087E-008  0.1572416E+03  0.7561462E-02  0.1089701E+00
         22   -1    0    0    0    0  0.00000000000E+00  0.00000000000E+00  0.13870805497E+03  0.13870805497E+03  0.00000000000E+00 0. -1.
         22   -1    0    0    0    0 -0.00000000000E+00 -0.00000000000E+00 -0.28556240959E+04  0.28556240959E+04  0.00000000000E+00 0.  1.
        -24    2    1    2    0    0  0.25227770264E+02 -0.39826485894E+02 -0.25896128624E+04  0.25913452143E+04  0.82174529829E+02 0.  0.
         25    2    1    2    0    0  0.33823590089E+02 -0.44509583519E+02 -0.20075281224E+03  0.24305244426E+03  0.12509061022E+03 0.  0.
         24    2    1    2    0    0 -0.59051360352E+02  0.84336069413E+02  0.73449633664E+02  0.15993449232E+03  0.97900752731E+02 0.  0.
        -11    1    5    5    0    0  0.26927364964E+02  0.26558577529E+02  0.12971628942E+02  0.39983798991E+02  0.00000000000E+00 0.  1.
         12    1    5    5    0    0 -0.85978725317E+02  0.57777491884E+02  0.60478004721E+02  0.11995069333E+03  0.00000000000E+00 0. -1.
         13    1    3    3    0    0  0.27306714062E+02  0.69108281292E+01 -0.31649436828E+03  0.31774534037E+03  0.00000000000E+00 0. -1.
        -14    1    3    3    0    0 -0.20789437980E+01 -0.46737314023E+02 -0.22731184941E+04  0.22735998740E+04  0.00000000000E+00 0.  1.
          5    1    4    4  501    0  0.65632432629E+02 -0.54996426823E+02 -0.78552340776E+02  0.11627624786E+03  0.41800000000E+01 0. -1.
         -5    1    4    4    0  501 -0.31808842540E+02  0.10486843304E+02 -0.12220047146E+03  0.12677619639E+03  0.41800000000E+01 0. -1.
</event>
<event>
11    1  0.1002087E-008  0.1299808E+03  0.7561462E-02  0.1119293E+00
         22   -1    0    0    0    0  0.00000000000E+00  0.00000000000E+00  0.72744677553E+02  0.72744677553E+02  0.00000000000E+00 0.  1.
         22   -1    0    0    0    0 -0.00000000000E+00 -0.00000000000E+00 -0.13128950879E+04  0.13128950879E+04  0.00000000000E+00 0. -1.
        -24    2    1    2    0    0  0.84202289923E+01  0.18643227991E+01 -0.90744684698E+03  0.91109123031E+03  0.80951058570E+02 0.  0.
         25    2    1    2    0    0 -0.18107033802E+02  0.32054314012E+02 -0.35912163877E+03  0.38206137543E+03  0.12508876625E+03 0.  0.
         24    2    1    2    0    0  0.96868048095E+01 -0.33918636811E+02  0.26418075425E+02  0.92487159699E+02  0.81312064846E+02 0.  0.
        -11    1    5    5    0    0  0.35394163910E+02 -0.53679205086E+00  0.34675574510E+02  0.49552300171E+02  0.00000000000E+00 0.  1.
         12    1    5    5    0    0 -0.25707359101E+02 -0.33381844760E+02 -0.82574990855E+01  0.42934859528E+02  0.00000000000E+00 0. -1.
         13    1    3    3    0    0  0.43740598629E+02 -0.70302998177E+01 -0.43861175610E+03  0.44084343896E+03  0.00000000000E+00 0. -1.
        -14    1    3    3    0    0 -0.35320369636E+02  0.88946226168E+01 -0.46883509088E+03  0.47024779134E+03  0.00000000000E+00 0.  1.
          5    1    4    4  501    0 -0.23724542570E+02  0.73383421157E+02 -0.14931647870E+03  0.16810967739E+03  0.41800000000E+01 0.  1.
         -5    1    4    4    0  501  0.56175087681E+01 -0.41329107145E+02 -0.20980516007E+03  0.21395169804E+03  0.41800000000E+01 0.  1.
</event>
<event>
11    1  0.1002087E-008  0.2474462E+03  0.7561462E-02  0.1025269E+00
         22   -1    0    0    0    0  0.00000000000E+00  0.00000000000E+00  0.35996179267E+03  0.35996179267E+03  0.00000000000E+00 0.  1.
         22   -1    0    0    0    0 -0.00000000000E+00 -0.00000000000E+00 -0.11562283799E+04  0.11562283799E+04  0.00000000000E+00 0. -1.
         24    2    1    2    0    0  0.17700322508E+03 -0.11822549224E+03 -0.10141766192E+04  0.10394434437E+04  0.81123665119E+02 0.  0.
         25    2    1    2    0    0 -0.16554632752E+03  0.14857412956E+03  0.14366232998E+02  0.25560461768E+03  0.12508986131E+03 0.  0.
        -24    2    1    2    0    0 -0.11456897565E+02 -0.30348637317E+02  0.20354379896E+03  0.22114211118E+03  0.80133981268E+02 0.  0.
        -13    1    3    3    0    0  0.24617599379E+02 -0.11078942710E+02 -0.44600702211E+02  0.52134363029E+02  0.00000000000E+00 0.  1.
         14    1    3    3    0    0  0.15238562570E+03 -0.10714654953E+03 -0.96957591696E+03  0.98730908066E+03  0.00000000000E+00 0. -1.
         11    1    5    5    0    0 -0.41169677557E+02  0.28126835618E+01  0.11158773432E+03  0.11897342556E+03  0.00000000000E+00 0. -1.
        -12    1    5    5    0    0  0.29712779992E+02 -0.33161320879E+02  0.91956064637E+02  0.10216868562E+03  0.00000000000E+00 0.  1.
          5    1    4    4  501    0  0.14368946672E+02  0.55028486623E+01 -0.17302453746E+02  0.23528605515E+02  0.41800000000E+01 0. -1.
         -5    1    4    4    0  501 -0.17991527419E+03  0.14307128090E+03  0.31668686744E+02  0.23207601217E+03  0.41800000000E+01 0. -1.
</event>
<event>
11    1  0.1002087E-008  0.1570140E+03  0.7561462E-02  0.1089920E+00
         22   -1    0    0    0    0  0.00000000000E+00  0.00000000000E+00  0.88676569925E+03  0.88676569925E+03  0.00000000000E+00 0.  1.
         22   -1    0    0    0    0 -0.00000000000E+00 -0.00000000000E+00 -0.29312376150E+03  0.29312376150E+03  0.00000000000E+00 0.  1.
         24    2    1    2    0    0 -0.81432860330E+01 -0.36723127299E+02 -0.23672849683E+03  0.25257739231E+03  0.79624473071E+02 0.  0.
         25    2    1    2    0    0  0.89105273016E+02 -0.15323016392E+02  0.94869984785E+02  0.18116968407E+03  0.12509035096E+03 0.  0.
        -24    2    1    2    0    0 -0.80961986983E+02  0.52046143691E+02  0.73550044979E+03  0.74614238436E+03  0.80646771173E+02 0.  0.
        -13    1    3    3    0    0  0.88337669688E+00 -0.28444438831E+02 -0.23850876136E+03  0.24020053227E+03  0.00000000000E+00 0.  1.
         14    1    3    3    0    0 -0.90266627299E+01 -0.82786884677E+01  0.17802645356E+01  0.12376860046E+02  0.00000000000E+00 0. -1.
         11    1    5    5    0    0 -0.55106140583E+02 -0.11939504352E+02  0.35023582642E+03  0.35474550399E+03  0.00000000000E+00 0. -1.
        -12    1    5    5    0    0 -0.25855846401E+02  0.63985648043E+02  0.38526462337E+03  0.39139688037E+03  0.00000000000E+00 0.  1.
          5    1    4    4  501    0  0.72684497867E+02  0.28691570231E+02  0.34848209436E+01  0.78331722881E+02  0.41800000000E+01 0.  1.
         -5    1    4    4    0  501  0.16420775149E+02 -0.44014586623E+02  0.91385163842E+02  0.10283796119E+03  0.41800000000E+01 0.  1.
</event>
<event>
11    1  0.1002087E-008  0.2240470E+03  0.7561462E-02  0.1038712E+00
         22   -1    0    0    0    0  0.00000000000E+00  0.00000000000E+00  0.14211508655E+04  0.14211508655E+04  0.00000000000E+00 0.  1.
         22   -1    0    0    0    0 -0.00000000000E+00 -0.00000000000E+00 -0.32196854938E+03  0.32196854938E+03  0.00000000000E+00 0. -1.
         24    2    1    2    0    0  0.18025272892E+03  0.42730190788E+02 -0.25203463716E+03  0.32291620864E+03  0.80227825527E+02 0.  0.
         25    2    1    2    0    0 -0.17173186901E+03 -0.11295254342E+03  0.42981350073E+03  0.49258032246E+03  0.12508243987E+03 0.  0.
        -24    2    1    2    0    0 -0.85208599082E+01  0.70222352632E+02  0.92140345260E+03  0.92762288382E+03  0.80598438352E+02 0.  0.
        -13    1    3    3    0    0  0.12415818918E+03  0.94823292007E+01 -0.10808633306E+03  0.16488731273E+03  0.00000000000E+00 0.  1.
         14    1    3    3    0    0  0.56094539747E+02  0.33247861587E+02 -0.14394830410E+03  0.15802889591E+03  0.00000000000E+00 0. -1.
         13    1    5    5    0    0 -0.10518150924E+02 -0.16477734922E+02  0.12629896292E+03  0.12780287666E+03  0.00000000000E+00 0. -1.
        -14    1    5    5    0    0  0.19972910159E+01  0.86700087554E+02  0.79510448968E+03  0.79982000716E+03  0.00000000000E+00 0.  1.
          5    1    4    4  501    0 -0.13165741458E+03 -0.13916322672E+03  0.32526227735E+03  0.37750907267E+03  0.41800000000E+01 0. -1.
         -5    1    4    4    0  501 -0.40074454435E+02  0.26210683297E+02  0.10455122338E+03  0.11507124978E+03  0.41800000000E+01 0. -1.
</event>
<event>
11    1  0.1002087E-008  0.1448337E+03  0.7561462E-02  0.1102278E+00
         22   -1    0    0    0    0  0.00000000000E+00  0.00000000000E+00  0.82147893814E+03  0.82147893814E+03  0.00000000000E+00 0.  1.
         22   -1    0    0    0    0 -0.00000000000E+00 -0.00000000000E+00 -0.25302075731E+04  0.25302075731E+04  0.00000000000E+00 0. -1.
        -24    2    1    2    0    0 -0.55731100779E+02  0.26418097234E+02 -0.24995495539E+04  0.25015998810E+04  0.80312644599E+02 0.  0.
         25    2    1    2    0    0  0.10316160214E+03 -0.66936219269E+02  0.29125044612E+03  0.33999494143E+03  0.12508782605E+03 0.  0.
         24    2    1    2    0    0 -0.47430501365E+02  0.40518122035E+02  0.49957047284E+03  0.51009168874E+03  0.82045736733E+02 0.  0.
        -13    1    5    5    0    0 -0.25732555244E+02 -0.36101523760E+01  0.37885035951E+03  0.37974042779E+03  0.00000000000E+00 0.  1.
         14    1    5    5    0    0 -0.21697946121E+02  0.44128274411E+02  0.12072011333E+03  0.13035126095E+03  0.00000000000E+00 0. -1.
         11    1    3    3    0    0 -0.71328722795E+02  0.37390599221E+02 -0.18168753885E+04  0.18186594021E+04  0.00000000000E+00 0. -1.
        -12    1    3    3    0    0  0.15597622016E+02 -0.10972501987E+02 -0.68267416539E+03  0.68294047888E+03  0.00000000000E+00 0.  1.
          5    1    4    4  501    0 -0.23265323159E+01 -0.46703898540E+02  0.25719507286E+02  0.53531601382E+02  0.41800000000E+01 0.  1.
         -5    1    4    4    0  501  0.10548813446E+03 -0.20232320728E+02  0.26553093884E+03  0.28646334005E+03  0.41800000000E+01 0.  1.
</event>
<event>
11    1  0.1002087E-008  0.1529644E+03  0.7561462E-02  0.1093888E+00
         22   -1    0    0    0    0  0.00000000000E+00  0.00000000000E+00  0.76059046642E+03  0.76059046642E+03  0.00000000000E+00 0.  1.
         22   -1    0    0    0    0 -0.00000000000E+00 -0.00000000000E+00 -0.14309758868E+04  0.14309758868E+04  0.00000000000E+00 0. -1.
        -24    2    1    2    0    0  0.64227093502E+02 -0.59332652394E+02 -0.13011805883E+04  0.13066368524E+04  0.81138508870E+02 0.  0.
         25    2    1    2    0    0 -0.44656441815E+02  0.98317996487E+02 -0.69126776267E+02  0.17913039525E+03  0.12509420880E+03 0.  0.
         24    2    1    2    0    0 -0.19570651687E+02 -0.38985344093E+02  0.69992194418E+03  0.70579910553E+03  0.79741971102E+02 0.  0.
        -11    1    5    5    0    0 -0.39333181292E+02 -0.36533966391E+02  0.64750956546E+03  0.64973107300E+03  0.00000000000E+00 0.  1.
         12    1    5    5    0    0  0.19762529605E+02 -0.24513777020E+01  0.52412378720E+02  0.56068032533E+02  0.00000000000E+00 0. -1.
         13    1    3    3    0    0  0.64182832302E+02 -0.64836038858E+02 -0.12955679220E+04  0.12987761117E+04  0.00000000000E+00 0. -1.
        -14    1    3    3    0    0  0.44261200121E-01  0.55033864635E+01 -0.56126663182E+01  0.78607407297E+01  0.00000000000E+00 0.  1.
          5    1    4    4  501    0  0.29407491162E+02  0.47384984223E+01  0.14453670640E+02  0.33371168675E+02  0.41800000000E+01 0. -1.
         -5    1    4    4    0  501 -0.74063932977E+02  0.93579498065E+02 -0.83580446906E+02  0.14575922657E+03  0.41800000000E+01 0. -1.
</event>
<event>
11    1  0.1002087E-008  0.1842392E+03  0.7561462E-02  0.1066264E+00
         22   -1    0    0    0    0  0.00000000000E+00  0.00000000000E+00  0.10582593028E+04  0.10582593028E+04  0.00000000000E+00 0.  1.
         22   -1    0    0    0    0 -0.00000000000E+00 -0.00000000000E+00 -0.18209938829E+03  0.18209938829E+03  0.00000000000E+00 0.  1.
         24    2    1    2    0    0 -0.26205482927E+02 -0.27089006260E+02 -0.10118148891E+03  0.13476533369E+03  0.80644031836E+02 0.  0.
         25    2    1    2    0    0 -0.96885824903E+02  0.86106252883E+02  0.84779078002E+02  0.19908601532E+03  0.12508636847E+03 0.  0.
        -24    2    1    2    0    0  0.12309130783E+03 -0.59017246623E+02  0.89256232544E+03  0.90650734211E+03  0.80333996845E+02 0.  0.
        -11    1    3    3    0    0 -0.46982983657E+02 -0.42268350972E+02 -0.74565125374E+02  0.97744422702E+02  0.00000000000E+00 0.  1.
         12    1    3    3    0    0  0.20777500730E+02  0.15179344712E+02 -0.26616363534E+02  0.37020910986E+02  0.00000000000E+00 0. -1.
         13    1    5    5    0    0  0.72777393549E+01 -0.99467147350E+01  0.12689737955E+02  0.17689886192E+02  0.00000000000E+00 0. -1.
        -14    1    5    5    0    0  0.11581356848E+03 -0.49070531888E+02  0.87987258748E+03  0.88881745592E+03  0.00000000000E+00 0.  1.
          5    1    4    4  501    0 -0.54455297068E+02  0.29486219711E+02 -0.26227981002E+02  0.67380975944E+02  0.41800000000E+01 0.  1.
         -5    1    4    4    0  501 -0.42430527835E+02  0.56620033172E+02  0.11100705900E+03  0.13170503938E+03  0.41800000000E+01 0.  1.
</event>
<event>
11    1  0.1002087E-008  0.1506756E+03  0.7561462E-02  0.1096190E+00
         22   -1    0    0    0    0  0.00000000000E+00  0.00000000000E+00  0.16107945495E+04  0.16107945495E+04  0.00000000000E+00 0. -1.
         22   -1    0    0    0    0 -0.00000000000E+00 -0.00000000000E+00 -0.16546413180E+04  0.16546413180E+04  0.00000000000E+00 0. -1.
         24    2    1    2    0    0  0.27338542470E+02 -0.18944147290E+02 -0.15791185554E+04  0.15815941999E+04  0.81966607295E+02 0.  0.
         25    2    1    2    0    0 -0.10128482886E+03  0.56637805661E+02  0.28956772731E+02  0.17307287901E+03  0.12509703904E+03 0.  0.
        -24    2    1    2    0    0  0.73946286387E+02 -0.37693658370E+02  0.15063150140E+04  0.15107687886E+04  0.80923085857E+02 0.  0.
        -13    1    3    3    0    0  0.41726001535E+01 -0.39700086611E+02 -0.38367168380E+03  0.38574274901E+03  0.00000000000E+00 0.  1.
         14    1    3    3    0    0  0.23165942317E+02  0.20755939321E+02 -0.11954468716E+04  0.11958514509E+04  0.00000000000E+00 0. -1.
         13    1    5    5    0    0  0.91616430201E+02 -0.29528904193E+02  0.12842190320E+04  0.12878214351E+04  0.00000000000E+00 0. -1.
        -14    1    5    5    0    0 -0.17670143814E+02 -0.81647541772E+01  0.22209598205E+03  0.22294735351E+03  0.00000000000E+00 0.  1.
          5    1    4    4  501    0 -0.98577238984E+02 -0.69641668756E+01 -0.81894435060E+01  0.99249740810E+02  0.41800000000E+01 0. -1.
         -5    1    4    4    0  501 -0.27075898737E+01  0.63601972536E+02  0.37146216237E+02  0.73823138203E+02  0.41800000000E+01 0. -1.
</event>
<event>
11    1  0.1032418E-008  0.1837427E+03  0.7561462E-02  0.1066655E+00
         22   -1    0    0    0    0  0.00000000000E+00  0.00000000000E+00  0.10291110124E+04  0.10291110124E+04  0.00000000000E+00 0.  1.
         22   -1    0    0    0    0 -0.00000000000E+00 -0.00000000000E+00 -0.21822839063E+04  0.21822839063E+04  0.00000000000E+00 0. -1.
         24    2    1    2    0    0  0.61406048963E+02 -0.13448860410E+03 -0.14483351206E+04  0.14580703162E+04  0.80228037208E+02 0.  0.
         25    2    1    2    0    0  0.38216920239E+02  0.12289480982E+03 -0.71394935478E+03  0.73616251383E+03  0.12509155968E+03 0.  0.
        -24    2    1    2    0    0 -0.99622969201E+02  0.11593794283E+02  0.10091115815E+04  0.10171620886E+04  0.79078306869E+02 0.  0.
        -11    1    3    3    0    0  0.56478410771E+02 -0.67934440762E+02 -0.52992475386E+03  0.53723844230E+03  0.00000000000E+00 0.  1.
         12    1    3    3    0    0  0.49276381914E+01 -0.66554163340E+02 -0.91841036678E+03  0.92083187395E+03  0.00000000000E+00 0. -1.
         11    1    5    5    0    0 -0.29702629077E+02  0.87934385036E+01  0.67943596587E+03  0.68014175174E+03  0.00000000000E+00 0. -1.
        -12    1    5    5    0    0 -0.69920340125E+02  0.28003557797E+01  0.32967561562E+03  0.33702033691E+03  0.00000000000E+00 0.  1.
          5    1    4    4  501    0 -0.14343717465E+02  0.19318790811E+01 -0.63226656879E+01  0.16337774907E+02  0.41800000000E+01 0. -1.
         -5    1    4    4    0  501  0.52560637704E+02  0.12096293074E+03 -0.70762668909E+03  0.71982473892E+03  0.41800000000E+01 0. -1.
</event>
<event>
11    1  0.1002087E-008  0.1629358E+03  0.7561462E-02  0.1084348E+00
         22   -1    0    0    0    0  0.00000000000E+00  0.00000000000E+00  0.29516309504E+03  0.29516309504E+03  0.00000000000E+00 0.  1.
         22   -1    0    0    0    0 -0.00000000000E+00 -0.00000000000E+00 -0.20718179759E+03  0.20718179759E+03  0.00000000000E+00 0. -1.
        -24    2    1    2    0    0 -0.94961838055E+02  0.36316348881E+02 -0.81740052545E+02  0.15245002339E+03  0.78885648619E+02 0.  0.
         25    2    1    2    0    0  0.99185651567E+02 -0.51516915211E+02  0.91450480238E+01  0.16799630773E+03  0.12508933399E+03 0.  0.
         24    2    1    2    0    0 -0.42238135111E+01  0.15200566330E+02  0.16057630197E+03  0.18189856151E+03  0.83984761161E+02 0.  0.
        -13    1    5    5    0    0 -0.28864699536E+02  0.28898482402E+02  0.14290090750E+03  0.14862355980E+03  0.00000000000E+00 0.  1.
         14    1    5    5    0    0  0.24640886025E+02 -0.13697916073E+02  0.17675394472E+02  0.33275001707E+02  0.00000000000E+00 0. -1.
         11    1    3    3    0    0 -0.19699745099E+02  0.30122219008E+02 -0.66199226547E+02  0.75350949764E+02  0.00000000000E+00 0. -1.
        -12    1    3    3    0    0 -0.75262092956E+02  0.61941298733E+01 -0.15540825998E+02  0.77099073624E+02  0.00000000000E+00 0.  1.
          5    1    4    4  501    0  0.10849253557E+03 -0.27552736788E+02  0.47470612389E+02  0.12165818928E+03  0.41800000000E+01 0.  1.
         -5    1    4    4    0  501 -0.93068840020E+01 -0.23964178422E+02 -0.38325564366E+02  0.46338118447E+02  0.41800000000E+01 0.  1.
</event>
<event>
11    1  0.1002087E-008  0.2146607E+03  0.7561462E-02  0.1044615E+00
         22   -1    0    0    0    0  0.00000000000E+00  0.00000000000E+00  0.48075275389E+03  0.48075275389E+03  0.00000000000E+00 0. -1.
         22   -1    0    0    0    0 -0.00000000000E+00 -0.00000000000E+00 -0.27074237428E+03  0.27074237428E+03  0.00000000000E+00 0. -1.
         24    2    1    2    0    0  0.45792895580E+02 -0.85509756245E+02 -0.13360426784E+03  0.18361018203E+03  0.80334867020E+02 0.  0.
         25    2    1    2    0    0  0.60942548959E+02  0.20809930033E+03  0.11659746749E+03  0.27615313425E+03  0.12508505529E+03 0.  0.
        -24    2    1    2    0    0 -0.10673544454E+03 -0.12258954409E+03  0.22701717996E+03  0.29173181190E+03  0.84557664565E+02 0.  0.
        -13    1    3    3    0    0  0.58871566171E+02 -0.56678273008E+02 -0.54023999148E+02  0.97963668870E+02  0.00000000000E+00 0.  1.
         14    1    3    3    0    0 -0.13078670591E+02 -0.28831483236E+02 -0.79580268697E+02  0.85646513157E+02  0.00000000000E+00 0. -1.
         11    1    5    5    0    0 -0.64773630151E+02 -0.12536194903E+03  0.17164892864E+03  0.22220395165E+03  0.00000000000E+00 0. -1.
        -12    1    5    5    0    0 -0.41961814388E+02  0.27724049446E+01  0.55368251324E+02  0.69527860247E+02  0.00000000000E+00 0.  1.
          5    1    4    4  501    0  0.66924698967E+02  0.36812503120E+02  0.18773961674E+02  0.78765536592E+02  0.41800000000E+01 0. -1.
         -5    1    4    4    0  501 -0.59821500073E+01  0.17128679721E+03  0.97823505815E+02  0.19738759765E+03  0.41800000000E+01 0. -1.
</event>
<event>
11    1  0.1002087E-008  0.1647913E+03  0.7561462E-02  0.1082656E+00
         22   -1    0    0    0    0  0.00000000000E+00  0.00000000000E+00  0.38079964245E+03  0.38079964245E+03  0.00000000000E+00 0.  1.
         22   -1    0    0    0    0 -0.00000000000E+00 -0.00000000000E+00 -0.26102510141E+03  0.26102510141E+03  0.00000000000E+00 0. -1.
         24    2    1    2    0    0 -0.72805915411E+02  0.47335506359E+02 -0.90746703445E+02  0.14858397961E+03  0.79378103598E+02 0.  0.
         25    2    1    2    0    0  0.16788136880E+03 -0.71848155578E+02 -0.28468072778E+02  0.22316894742E+03  0.12509051314E+03 0.  0.
        -24    2    1    2    0    0 -0.95075453386E+02  0.24512649219E+02  0.23898931727E+03  0.27007181683E+03  0.78630023970E+02 0.  0.
        -11    1    3    3    0    0  0.15530254116E+02 -0.30884445603E+01 -0.14418122541E+02  0.21415170798E+02  0.00000000000E+00 0.  1.
         12    1    3    3    0    0 -0.88336169527E+02  0.50423950919E+02 -0.76328580904E+02  0.12716880882E+03  0.00000000000E+00 0. -1.
         13    1    5    5    0    0  0.13736285533E+02  0.27494587587E+01  0.18215725215E+02  0.22979506279E+02  0.00000000000E+00 0. -1.
        -14    1    5    5    0    0 -0.10881173892E+03  0.21763190460E+02  0.22077359205E+03  0.24709231055E+03  0.00000000000E+00 0.  1.
          5    1    4    4  501    0  0.65301415937E+01 -0.52324223526E+02 -0.29536839846E+02  0.60583532621E+02  0.41800000000E+01 0. -1.
         -5    1    4    4    0  501  0.16135122720E+03 -0.19523932052E+02  0.10687670676E+01  0.16258541480E+03  0.41800000000E+01 0. -1.
</event>
<event>
11    1  0.1002087E-008  0.1568531E+03  0.7561462E-02  0.1090075E+00
         22   -1    0    0    0    0  0.00000000000E+00  0.00000000000E+00  0.19059374630E+04  0.19059374630E+04  0.00000000000E+00 0. -1.
         22   -1    0    0    0    0 -0.00000000000E+00 -0.00000000000E+00 -0.10016919208E+04  0.10016919208E+04  0.00000000000E+00 0. -1.
         24    2    1    2    0    0 -0.36339392566E+01  0.92397852808E+02 -0.90474890939E+03  0.91296483693E+03  0.79897657675E+02 0.  0.
         25    2    1    2    0    0 -0.24098293755E+02 -0.15234178310E+03  0.16654533699E+02  0.19928358392E+03  0.12509127343E+03 0.  0.
        -24    2    1    2    0    0  0.27732233011E+02  0.59943930289E+02  0.17923399180E+04  0.17953809629E+04  0.80920139915E+02 0.  0.
        -11    1    3    3    0    0 -0.30908774183E+02  0.44076539080E+02 -0.24290281510E+03  0.24879684725E+03  0.00000000000E+00 0.  1.
         12    1    3    3    0    0  0.27274834926E+02  0.48321313728E+02 -0.66184609429E+03  0.66416798968E+03  0.00000000000E+00 0. -1.
         13    1    5    5    0    0  0.51628901856E+02  0.26390495359E+02  0.13109971189E+04  0.13122787232E+04  0.00000000000E+00 0. -1.
        -14    1    5    5    0    0 -0.23896668845E+02  0.33553434930E+02  0.48134279907E+03  0.48310223969E+03  0.00000000000E+00 0.  1.
          5    1    4    4  501    0  0.61208776223E+01 -0.11810826131E+03 -0.41338117368E+02  0.12535285749E+03  0.41800000000E+01 0.  1.
         -5    1    4    4    0  501 -0.30219171377E+02 -0.34233521786E+02  0.57992651067E+02  0.73930726430E+02  0.41800000000E+01 0.  1.
</event>
<event>
11    1  0.1002087E-008  0.1420106E+03  0.7561462E-02  0.1105334E+00
         22   -1    0    0    0    0  0.00000000000E+00  0.00000000000E+00  0.71597069020E+03  0.71597069020E+03  0.00000000000E+00 0.  1.
         22   -1    0    0    0    0 -0.00000000000E+00 -0.00000000000E+00 -0.29346778858E+03  0.29346778858E+03  0.00000000000E+00 0.  1.
         24    2    1    2    0    0 -0.19762106809E+01  0.67708979636E+02 -0.25590228587E+03  0.27713969716E+03  0.82048890905E+02 0.  0.
         25    2    1    2    0    0  0.11840576770E+01 -0.57722062412E+02  0.17395407491E+03  0.22190230248E+03  0.12508946073E+03 0.  0.
        -24    2    1    2    0    0  0.79215300392E+00 -0.99869172238E+01  0.50445111258E+03  0.51039647913E+03  0.77027754112E+02 0.  0.
        -13    1    3    3    0    0 -0.33184783945E+02  0.26740952922E+02 -0.18289826203E+03  0.18779798376E+03  0.00000000000E+00 0.  1.
         14    1    3    3    0    0  0.31208573265E+02  0.40968026714E+02 -0.73004023837E+02  0.89341713407E+02  0.00000000000E+00 0. -1.
         11    1    5    5    0    0  0.35076076269E+02 -0.55751186463E+01  0.14496702305E+03  0.14925431601E+03  0.00000000000E+00 0. -1.
        -12    1    5    5    0    0 -0.34283923265E+02 -0.44117985776E+01  0.35948408953E+03  0.36114216313E+03  0.00000000000E+00 0.  1.
          5    1    4    4  501    0 -0.58353344173E+02 -0.14094855757E+02  0.53234077031E+02  0.80343743330E+02  0.41800000000E+01 0.  1.
         -5    1    4    4    0  501  0.59537401850E+02 -0.43627206655E+02  0.12071999788E+03  0.14155855915E+03  0.41800000000E+01 0.  1.
</event>
<event>
11    1  0.1002087E-008  0.1747418E+03  0.7561462E-02  0.1073977E+00
         22   -1    0    0    0    0  0.00000000000E+00  0.00000000000E+00  0.23162850072E+03  0.23162850072E+03  0.00000000000E+00 0.  1.
         22   -1    0    0    0    0 -0.00000000000E+00 -0.00000000000E+00 -0.59260957564E+03  0.59260957564E+03  0.00000000000E+00 0. -1.
        -24    2    1    2    0    0 -0.72035134516E+02  0.87839125601E+02 -0.41688910326E+03  0.44011020075E+03  0.83640252245E+02 0.  0.
         25    2    1    2    0    0  0.14154165886E+03 -0.13181324692E+03 -0.40866684181E+02  0.23393659243E+03  0.12508984830E+03 0.  0.
         24    2    1    2    0    0 -0.69506524343E+02  0.43974121317E+02  0.96774712510E+02  0.15019128318E+03  0.80169796619E+02 0.  0.
        -11    1    5    5    0    0 -0.83224550607E+02  0.17716271759E+02  0.74995078230E+02  0.11342157585E+03  0.00000000000E+00 0.  1.
         12    1    5    5    0    0  0.13718026264E+02  0.26257849558E+02  0.21779634280E+02  0.36769707333E+02  0.00000000000E+00 0. -1.
         11    1    3    3    0    0 -0.46761196066E+02  0.30335646503E+02 -0.31877989221E+03  0.32361625513E+03  0.00000000000E+00 0. -1.
        -12    1    3    3    0    0 -0.25273938450E+02  0.57503479098E+02 -0.98109211043E+02  0.11649394561E+03  0.00000000000E+00 0.  1.
          5    1    4    4  501    0  0.82318998048E+02 -0.14729228888E+03 -0.25664587334E+02  0.17072662137E+03  0.41800000000E+01 0. -1.
         -5    1    4    4    0  501  0.59222660810E+02  0.15479041957E+02 -0.15202096847E+02  0.63209971064E+02  0.41800000000E+01 0. -1.
</event>
<event>
11    1  0.1002087E-008  0.1353678E+03  0.7561462E-02  0.1112844E+00
         22   -1    0    0    0    0  0.00000000000E+00  0.00000000000E+00  0.90379045236E+03  0.90379045236E+03  0.00000000000E+00 0.  1.
         22   -1    0    0    0    0 -0.00000000000E+00 -0.00000000000E+00 -0.29369223313E+03  0.29369223313E+03  0.00000000000E+00 0. -1.
         24    2    1    2    0    0 -0.22007402857E+02  0.54712737022E+02 -0.22454463577E+03  0.24556269626E+03  0.80018341449E+02 0.  0.
         25    2    1    2    0    0  0.70132880057E+02 -0.64186811932E+02  0.60259194497E+02  0.16827846404E+03  0.12509157944E+03 0.  0.
        -24    2    1    2    0    0 -0.48125477201E+02  0.94740749100E+01  0.77438366051E+03  0.78364152519E+03  0.10962739933E+03 0.  0.
        -11    1    3    3    0    0 -0.23334411710E+02  0.48674483520E+01 -0.10961433252E+02  0.26236231479E+02  0.00000000000E+00 0.  1.
         12    1    3    3    0    0  0.13270088530E+01  0.49845288670E+02 -0.21358320252E+03  0.21932646478E+03  0.00000000000E+00 0. -1.
         11    1    5    5    0    0 -0.79410280100E+02 -0.12333749186E+02  0.46180129945E+03  0.46874145766E+03  0.00000000000E+00 0. -1.
        -12    1    5    5    0    0  0.31284802900E+02  0.21807824096E+02  0.31258236106E+03  0.31490006753E+03  0.00000000000E+00 0.  1.
          5    1    4    4  501    0  0.66331621059E+02 -0.98110914173E+02  0.62193943216E+02  0.13383271052E+03  0.41800000000E+01 0. -1.
         -5    1    4    4    0  501  0.38012589979E+01  0.33924102241E+02 -0.19347487182E+01  0.34445753518E+02  0.41800000000E+01 0. -1.
</event>
<event>
11    1  0.1002087E-008  0.1680893E+03  0.7561462E-02  0.1079707E+00
         22   -1    0    0    0    0  0.00000000000E+00  0.00000000000E+00  0.25134990387E+03  0.25134990387E+03  0.00000000000E+00 0.  1.
         22   -1    0    0    0    0 -0.00000000000E+00 -0.00000000000E+00 -0.80909298756E+03  0.80909298756E+03  0.00000000000E+00 0. -1.
         24    2    1    2    0    0 -0.10571454414E+03  0.18204497990E+02 -0.61018263949E+03  0.62414242105E+03  0.75656722314E+02 0.  0.
         25    2    1    2    0    0  0.16697907057E+03  0.42464137627E+02 -0.10632336341E+03  0.23798872656E+03  0.12509501737E+03 0.  0.
        -24    2    1    2    0    0 -0.61264526422E+02 -0.60668635617E+02  0.15876291921E+03  0.19831174382E+03  0.81779323046E+02 0.  0.
        -13    1    3    3    0    0 -0.60138672237E+01 -0.22278569016E+02 -0.13200206188E+03  0.13400390135E+03  0.00000000000E+00 0.  1.
         14    1    3    3    0    0 -0.99700676920E+02  0.40483067006E+02 -0.47818057761E+03  0.49013851970E+03  0.00000000000E+00 0. -1.
         11    1    5    5    0    0 -0.59803068962E+02 -0.78475175204E+02  0.11805892327E+03  0.15385925239E+03  0.00000000000E+00 0. -1.
        -12    1    5    5    0    0 -0.14614574595E+01  0.17806539587E+02  0.40703995935E+02  0.44452491437E+02  0.00000000000E+00 0.  1.
          5    1    4    4  501    0  0.13473777861E+03  0.58978394443E+01 -0.16808929138E+02  0.13597450494E+03  0.41800000000E+01 0.  1.
         -5    1    4    4    0  501  0.32241291958E+02  0.36566298183E+02 -0.89514434272E+02  0.10201422162E+03  0.41800000000E+01 0.  1.
</event>
<event>
11    1  0.1002087E-008  0.1655312E+03  0.7561462E-02  0.1081987E+00
         22   -1    0    0    0    0  0.00000000000E+00  0.00000000000E+00  0.18307627315E+04  0.18307627315E+04  0.00000000000E+00 0. -1.
         22   -1    0    0    0    0 -0.00000000000E+00 -0.00000000000E+00 -0.65836309270E+02  0.65836309270E+02  0.00000000000E+00 0.  1.
         24    2    1    2    0    0 -0.10163837399E+03  0.29017740052E+02  0.34362896135E+02  0.13704209353E+03  0.80170683317E+02 0.  0.
         25    2    1    2    0    0  0.14393854999E+03  0.24150894446E+02  0.78178121390E+03  0.80506540902E+03  0.12508746744E+03 0.  0.
        -24    2    1    2    0    0 -0.42300176005E+02 -0.53168634498E+02  0.94878231218E+03  0.95449153821E+03  0.79057017568E+02 0.  0.
        -11    1    3    3    0    0 -0.11531413601E+03  0.29012361422E+02  0.29349571741E+02  0.12247638320E+03  0.00000000000E+00 0.  1.
         12    1    3    3    0    0  0.13675762027E+02  0.53786302633E-02  0.50133243940E+01  0.14565710331E+02  0.00000000000E+00 0. -1.
         13    1    5    5    0    0 -0.34475786913E+02 -0.32684592581E+02  0.89700964294E+03  0.89826675437E+03  0.00000000000E+00 0. -1.
        -14    1    5    5    0    0 -0.78243890926E+01 -0.20484041917E+02  0.51772669234E+02  0.56224783837E+02  0.00000000000E+00 0.  1.
          5    1    4    4  501    0  0.72088233471E+02 -0.30200268481E+02  0.56313963447E+03  0.56855297900E+03  0.41800000000E+01 0.  1.
         -5    1    4    4    0  501  0.71850316520E+02  0.54351162927E+02  0.21864157943E+03  0.23651243002E+03  0.41800000000E+01 0.  1.
</event>
<event>
11    1  0.1002087E-008  0.1333132E+03  0.7561462E-02  0.1115264E+00
         22   -1    0    0    0    0  0.00000000000E+00  0.00000000000E+00  0.20857170001E+04  0.20857170001E+04  0.00000000000E+00 0.  1.
         22   -1    0    0    0    0 -0.00000000000E+00 -0.00000000000E+00 -0.45244220451E+02  0.45244220451E+02  0.00000000000E+00 0.  1.
         24    2    1    2    0    0 -0.27736645575E+02  0.39460327644E+02  0.23170965192E+02  0.95009146488E+02  0.78507358399E+02 0.  0.
         25    2    1    2    0    0  0.28978577165E+02 -0.12938288969E+02  0.50319046862E+03  0.51947655837E+03  0.12509232482E+03 0.  0.
        -24    2    1    2    0    0 -0.12419315901E+01 -0.26522038675E+02  0.15141113458E+04  0.15164755157E+04  0.80373261627E+02 0.  0.
        -13    1    3    3    0    0 -0.35843651710E+02  0.30981867125E+02 -0.19143255042E+02  0.51098998739E+02  0.00000000000E+00 0.  1.
         14    1    3    3    0    0  0.81070061354E+01  0.84784605184E+01  0.42314220235E+02  0.43910147749E+02  0.00000000000E+00 0. -1.
         13    1    5    5    0    0 -0.68739616447E+00  0.25452700220E+02  0.83081490338E+03  0.83120497842E+03  0.00000000000E+00 0. -1.
        -14    1    5    5    0    0 -0.55453542567E+00 -0.51974738894E+02  0.68329644242E+03  0.68527053724E+03  0.00000000000E+00 0.  1.
          5    1    4    4  501    0  0.40155729011E+02  0.22616011880E+02  0.45980774442E+03  0.46213050191E+03  0.41800000000E+01 0.  1.
         -5    1    4    4    0  501 -0.11177151846E+02 -0.35554300849E+02  0.43382724194E+02  0.57346056453E+02  0.41800000000E+01 0.  1.
</event>
<event>
11    1  0.1002087E-008  0.1388809E+03  0.7561462E-02  0.1108814E+00
         22   -1    0    0    0    0  0.00000000000E+00  0.00000000000E+00  0.17830732686E+04  0.17830732686E+04  0.00000000000E+00 0. -1.
         22   -1    0    0    0    0 -0.00000000000E+00 -0.00000000000E+00 -0.63884134311E+03  0.63884134311E+03  0.00000000000E+00 0. -1.
        -24    2    1    2    0    0 -0.58388751534E+02 -0.17574222229E+02 -0.61079112399E+03  0.61928304883E+03  0.82021935078E+02 0.  0.
         25    2    1    2    0    0  0.37802301984E+02 -0.19031915875E+02  0.17226416704E+03  0.21705751353E+03  0.12509113909E+03 0.  0.
         24    2    1    2    0    0  0.20586449551E+02  0.36606138103E+02  0.15827588824E+04  0.15855740493E+04  0.84590630590E+02 0.  0.
        -11    1    5    5    0    0  0.41061706042E+02  0.25460874337E+02  0.45199821124E+03  0.45457309950E+03  0.00000000000E+00 0.  1.
         12    1    5    5    0    0 -0.20475256492E+02  0.11145263766E+02  0.11307606712E+04  0.11310009498E+04  0.00000000000E+00 0. -1.
         13    1    3    3    0    0 -0.27489066817E+01 -0.12938302818E+02 -0.42685268779E+03  0.42705757602E+03  0.00000000000E+00 0. -1.
        -14    1    3    3    0    0 -0.55639844853E+02 -0.46359194103E+01 -0.18393843620E+03  0.19222547281E+03  0.00000000000E+00 0.  1.
          5    1    4    4  501    0  0.52038054440E+02  0.33914866311E+02  0.14021193922E+03  0.15341133454E+03  0.41800000000E+01 0.  1.
         -5    1    4    4    0  501 -0.14235752456E+02 -0.52946782186E+02  0.32052227822E+02  0.63646178991E+02  0.41800000000E+01 0.  1.
</event>
<event>
11    1  0.1002087E-008  0.1496038E+03  0.7561462E-02  0.1097284E+00
         22   -1    0    0    0    0  0.00000000000E+00  0.00000000000E+00  0.40978914043E+03  0.40978914043E+03  0.00000000000E+00 0.  1.
         22   -1    0    0    0    0 -0.00000000000E+00 -0.00000000000E+00 -0.45890539365E+03  0.45890539365E+03  0.00000000000E+00 0.  1.
        -24    2    1    2    0    0 -0.23812828213E+02 -0.12686576042E+02 -0.28729777348E+03  0.29957711332E+03  0.80488733225E+02 0.  0.
         25    2    1    2    0    0  0.36138736021E+02 -0.68899020300E+02 -0.12213584194E+03  0.19136228543E+03  0.12509707095E+03 0.  0.
         24    2    1    2    0    0 -0.12325907809E+02  0.81585596342E+02  0.36031736221E+03  0.37775513533E+03  0.77860151742E+02 0.  0.
        -11    1    5    5    0    0  0.30917166110E+02  0.21714716318E+02  0.15566627745E+03  0.16018548624E+03  0.00000000000E+00 0.  1.
         12    1    5    5    0    0 -0.43243073919E+02  0.59870880024E+02  0.20465108475E+03  0.21756964910E+03  0.00000000000E+00 0. -1.
         13    1    3    3    0    0 -0.26166041679E+02 -0.20311083901E+02 -0.39072614263E+02  0.51223735238E+02  0.00000000000E+00 0. -1.
        -14    1    3    3    0    0  0.23532134665E+01  0.76245078589E+01 -0.24822515922E+03  0.24835337808E+03  0.00000000000E+00 0.  1.
          5    1    4    4  501    0  0.73728505281E+02 -0.64109505702E+01 -0.57200223173E+02  0.93628685291E+02  0.41800000000E+01 0. -1.
         -5    1    4    4    0  501 -0.37589769260E+02 -0.62488069729E+02 -0.64935618767E+02  0.97733600139E+02  0.41800000000E+01 0. -1.
</event>
<event>
11    1  0.1002087E-008  0.1252296E+03  0.7561462E-02  0.1125273E+00
         22   -1    0    0    0    0  0.00000000000E+00  0.00000000000E+00  0.10829516548E+04  0.10829516548E+04  0.00000000000E+00 0. -1.
         22   -1    0    0    0    0 -0.00000000000E+00 -0.00000000000E+00 -0.15855020091E+03  0.15855020091E+03  0.00000000000E+00 0.  1.
         24    2    1    2    0    0  0.10654467197E+02 -0.10256835760E+02 -0.13493774226E+03  0.15490835061E+03  0.74630305190E+02 0.  0.
         25    2    1    2    0    0 -0.74570945353E+01  0.14279689715E+02  0.33936512309E+03  0.36204373936E+03  0.12508982629E+03 0.  0.
        -24    2    1    2    0    0 -0.31973726615E+01 -0.40228539544E+01  0.71997407307E+03  0.72454976575E+03  0.81137479752E+02 0.  0.
        -13    1    3    3    0    0 -0.18599289241E+02  0.10513966733E+01 -0.11761085986E+03  0.11907708996E+03  0.00000000000E+00 0.  1.
         14    1    3    3    0    0  0.29253756438E+02 -0.11308232434E+02 -0.17326882395E+02  0.35831260654E+02  0.00000000000E+00 0. -1.
         13    1    5    5    0    0 -0.38087559967E+02 -0.16451781271E+02  0.47269781259E+03  0.47451506336E+03  0.00000000000E+00 0. -1.
        -14    1    5    5    0    0  0.34890187306E+02  0.12428927317E+02  0.24727626048E+03  0.25003470239E+03  0.00000000000E+00 0.  1.
          5    1    4    4  501    0 -0.38941347741E+02  0.30082481051E+02  0.31537619012E+03  0.31921935706E+03  0.41800000000E+01 0.  1.
         -5    1    4    4    0  501  0.31484253206E+02 -0.15802791336E+02  0.23988932971E+02  0.42824382296E+02  0.41800000000E+01 0.  1.
</event>
<event>
11    1  0.1002087E-008  0.1364846E+03  0.7561462E-02  0.1111549E+00
         22   -1    0    0    0    0  0.00000000000E+00  0.00000000000E+00  0.21054727094E+04  0.21054727094E+04  0.00000000000E+00 0. -1.
         22   -1    0    0    0    0 -0.00000000000E+00 -0.00000000000E+00 -0.25983920532E+03  0.25983920532E+03  0.00000000000E+00 0. -1.
         24    2    1    2    0    0 -0.28800679926E+02 -0.11300179783E+02 -0.21913850207E+03  0.22840312238E+03  0.56472382589E+02 0.  0.
         25    2    1    2    0    0  0.17741364579E+02 -0.42598860121E+02  0.92797487166E+02  0.16249053382E+03  0.12514943491E+03 0.  0.
        -24    2    1    2    0    0  0.11059315348E+02  0.53899039904E+02  0.19719745190E+04  0.19744182586E+04  0.81342123458E+02 0.  0.
        -13    1    3    3    0    0  0.12494830702E+02  0.11386728433E+02 -0.47662949438E+02  0.50572078539E+02  0.00000000000E+00 0.  1.
         14    1    3    3    0    0 -0.41295510628E+02 -0.22686908215E+02 -0.17147555263E+03  0.17783104384E+03  0.00000000000E+00 0. -1.
         13    1    5    5    0    0 -0.23842979882E+02  0.57691167546E+02  0.13691092045E+04  0.13705315656E+04  0.00000000000E+00 0. -1.
        -14    1    5    5    0    0  0.34902295230E+02 -0.37921276422E+01  0.60286531455E+03  0.60388669295E+03  0.00000000000E+00 0.  1.
          5    1    4    4  501    0  0.77124757433E+01  0.13696798418E+01 -0.30169022465E+02  0.31448380268E+02  0.41800000000E+01 0.  1.
         -5    1    4    4    0  501  0.10028888835E+02 -0.43968539963E+02  0.12296650963E+03  0.13104215356E+03  0.41800000000E+01 0.  1.
</event>
<event>
11    1  0.1002087E-008  0.2391285E+03  0.7561462E-02  0.1029855E+00
         22   -1    0    0    0    0  0.00000000000E+00  0.00000000000E+00  0.84000929836E+03  0.84000929836E+03  0.00000000000E+00 0. -1.
         22   -1    0    0    0    0 -0.00000000000E+00 -0.00000000000E+00 -0.10045755059E+04  0.10045755059E+04  0.00000000000E+00 0.  1.
        -24    2    1    2    0    0  0.94086084351E+01 -0.29786357169E+02 -0.83141150387E+03  0.83591798476E+03  0.80858144295E+02 0.  0.
         25    2    1    2    0    0 -0.19428944003E+03 -0.56860348133E+02 -0.62470802436E+02  0.24603397443E+03  0.12509448317E+03 0.  0.
         24    2    1    2    0    0  0.18488083159E+03  0.86646705302E+02  0.72931609880E+03  0.76263284503E+03  0.89545021729E+02 0.  0.
        -13    1    5    5    0    0  0.14368541402E+02 -0.43866143246E+01  0.17382721723E+03  0.17447520975E+03  0.00000000000E+00 0.  1.
         14    1    5    5    0    0  0.17051229019E+03  0.91033319627E+02  0.55548888157E+03  0.58815763528E+03  0.00000000000E+00 0. -1.
         11    1    3    3    0    0  0.76490897045E+01 -0.15377785328E+02 -0.31526831727E+02  0.35901615195E+02  0.00000000000E+00 0. -1.
        -12    1    3    3    0    0  0.17595187306E+01 -0.14408571841E+02 -0.79988467214E+03  0.80001636957E+03  0.00000000000E+00 0.  1.
          5    1    4    4  501    0  0.16138086641E+02 -0.29019056568E+01  0.64200292841E+01  0.18098289225E+02  0.41800000000E+01 0. -1.
         -5    1    4    4    0  501 -0.21042752667E+03 -0.53958442476E+02 -0.68890831720E+02  0.22793568520E+03  0.41800000000E+01 0. -1.
</event>
<event>
11    1  0.1002087E-008  0.1403202E+03  0.7561462E-02  0.1107201E+00
         22   -1    0    0    0    0  0.00000000000E+00  0.00000000000E+00  0.97720206101E+03  0.97720206101E+03  0.00000000000E+00 0.  1.
         22   -1    0    0    0    0 -0.00000000000E+00 -0.00000000000E+00 -0.12965700824E+04  0.12965700824E+04  0.00000000000E+00 0.  1.
        -24    2    1    2    0    0  0.46639442113E+02 -0.42787350237E+02 -0.12721530873E+04  0.12763371966E+04  0.81591464564E+02 0.  0.
         25    2    1    2    0    0 -0.94614926831E+02  0.81943262590E+02  0.43050707296E+03  0.46545712158E+03  0.12508920615E+03 0.  0.
         24    2    1    2    0    0  0.47975484718E+02 -0.39155912354E+02  0.52227799292E+03  0.53197782521E+03  0.79945431537E+02 0.  0.
        -11    1    5    5    0    0  0.48639818637E+02 -0.39249139527E+02  0.52523759214E+03  0.52894314922E+03  0.00000000000E+00 0.  1.
         12    1    5    5    0    0 -0.66433391849E+00  0.93227173763E-01 -0.29595992178E+01  0.30346759944E+01  0.00000000000E+00 0. -1.
         13    1    3    3    0    0  0.29696479137E+02  0.34100436763E+01 -0.14193424290E+03  0.14504771138E+03  0.00000000000E+00 0. -1.
        -14    1    3    3    0    0  0.16942962976E+02 -0.46197393913E+02 -0.11302188444E+04  0.11312894853E+04  0.00000000000E+00 0.  1.
          5    1    4    4  501    0  0.30723946245E+02  0.11344209833E+02  0.83457158212E+02  0.89750886494E+02  0.41800000000E+01 0.  1.
         -5    1    4    4    0  501 -0.12533887308E+03  0.70599052758E+02  0.34704991475E+03  0.37570623509E+03  0.41800000000E+01 0.  1.
</event>
<event>
11    1  0.1002087E-008  0.1652426E+03  0.7561462E-02  0.1082248E+00
         22   -1    0    0    0    0  0.00000000000E+00  0.00000000000E+00  0.13563302401E+04  0.13563302401E+04  0.00000000000E+00 0. -1.
         22   -1    0    0    0    0 -0.00000000000E+00 -0.00000000000E+00 -0.18279688381E+03  0.18279688381E+03  0.00000000000E+00 0. -1.
        -24    2    1    2    0    0 -0.10161499444E+03  0.34310721267E+02 -0.14274158619E+03  0.19552832725E+03  0.79707801633E+02 0.  0.
         25    2    1    2    0    0  0.11900650258E+03 -0.50890768511E+02  0.75932937748E+03  0.78037189035E+03  0.12508703280E+03 0.  0.
         24    2    1    2    0    0 -0.17391508149E+02  0.16580047243E+02  0.55694556498E+03  0.56322690628E+03  0.80366803408E+02 0.  0.
        -11    1    5    5    0    0  0.16002301661E+02  0.37556983882E+02  0.20103209897E+03  0.20513533463E+03  0.00000000000E+00 0.  1.
         12    1    5    5    0    0 -0.33393809809E+02 -0.20976936639E+02  0.35591346600E+03  0.35809157165E+03  0.00000000000E+00 0. -1.
         13    1    3    3    0    0 -0.53489694135E+02  0.13146197583E+02 -0.13035591410E+03  0.14151549114E+03  0.00000000000E+00 0. -1.
        -14    1    3    3    0    0 -0.48125300301E+02  0.21164523684E+02 -0.12385672081E+02  0.54012836111E+02  0.00000000000E+00 0.  1.
          5    1    4    4  501    0  0.13930955378E+03 -0.21126520186E+02  0.65249364326E+03  0.66754693357E+03  0.41800000000E+01 0. -1.
         -5    1    4    4    0  501 -0.20303051196E+02 -0.29764248324E+02  0.10683573422E+03  0.11282495678E+03  0.41800000000E+01 0. -1.
</event>
<event>
11    1  0.1002087E-008  0.2470043E+03  0.7561462E-02  0.1025507E+00
         22   -1    0    0    0    0  0.00000000000E+00  0.00000000000E+00  0.99582648215E+03  0.99582648215E+03  0.00000000000E+00 0.  1.
         22   -1    0    0    0    0 -0.00000000000E+00 -0.00000000000E+00 -0.66292532651E+03  0.66292532651E+03  0.00000000000E+00 0.  1.
        -24    2    1    2    0    0  0.17596034938E+03  0.11987455618E+03 -0.60112684726E+03  0.64256123247E+03  0.78736885912E+02 0.  0.
         25    2    1    2    0    0 -0.16626254819E+03 -0.13679402306E+03  0.37127632910E+03  0.44704500608E+03  0.12508910918E+03 0.  0.
         24    2    1    2    0    0 -0.96978011944E+01  0.16919466877E+02  0.56275167380E+03  0.56914557011E+03  0.82806508863E+02 0.  0.
        -11    1    5    5    0    0  0.31810436523E+02 -0.55148682542E+00  0.36244345635E+03  0.36383714360E+03  0.00000000000E+00 0.  1.
         12    1    5    5    0    0 -0.41508237718E+02  0.17470953703E+02  0.20030821745E+03  0.20530842652E+03  0.00000000000E+00 0. -1.
         13    1    3    3    0    0  0.30565729366E+01 -0.38297682709E+01  0.49568350834E-01  0.49002265404E+01  0.00000000000E+00 0. -1.
        -14    1    3    3    0    0  0.17290377644E+03  0.12370432446E+03 -0.60117641561E+03  0.63766100593E+03  0.00000000000E+00 0.  1.
          5    1    4    4  501    0 -0.17756102472E+03 -0.11467806854E+03  0.27131316047E+03  0.34395825379E+03  0.41800000000E+01 0.  1.
         -5    1    4    4    0  501  0.11298476530E+02 -0.22115954519E+02  0.99963168627E+02  0.10308675229E+03  0.41800000000E+01 0.  1.
</event>
<event>
11    1  0.1002087E-008  0.2058048E+03  0.7561462E-02  0.1050493E+00
         22   -1    0    0    0    0  0.00000000000E+00  0.00000000000E+00  0.10334287985E+04  0.10334287985E+04  0.00000000000E+00 0. -1.
         22   -1    0    0    0    0 -0.00000000000E+00 -0.00000000000E+00 -0.76335773322E+03  0.76335773322E+03  0.00000000000E+00 0.  1.
         24    2    1    2    0    0  0.17633552985E+02  0.72805294451E+02 -0.67626437787E+03  0.68508892158E+03  0.80011053006E+02 0.  0.
         25    2    1    2    0    0 -0.55537301754E+02 -0.22177153514E+03  0.16399331382E+03  0.30790879083E+03  0.12508801225E+03 0.  0.
        -24    2    1    2    0    0  0.37903748768E+02  0.14896624069E+03  0.78234212938E+03  0.80378881935E+03  0.10192950342E+03 0.  0.
        -13    1    3    3    0    0  0.30098452211E+02  0.83659173087E+02 -0.48267059968E+03  0.49079087386E+03  0.00000000000E+00 0.  1.
         14    1    3    3    0    0 -0.12464899226E+02 -0.10853878636E+02 -0.19359377819E+03  0.19429804772E+03  0.00000000000E+00 0. -1.
         11    1    5    5    0    0  0.10258714311E+02  0.31258498414E+02  0.43041474439E+03  0.43167022961E+03  0.00000000000E+00 0. -1.
        -12    1    5    5    0    0  0.27645034458E+02  0.11770774228E+03  0.35192738499E+03  0.37211858974E+03  0.00000000000E+00 0.  1.
          5    1    4    4  501    0 -0.66863763672E+02 -0.60464369696E+02  0.97955970294E+02  0.13318989230E+03  0.41800000000E+01 0.  1.
         -5    1    4    4    0  501  0.11326461918E+02 -0.16130716545E+03  0.66037343522E+02  0.17471889853E+03  0.41800000000E+01 0.  1.
</event>
<event>
11    1  0.1002087E-008  0.1592736E+03  0.7561462E-02  0.1087762E+00
         22   -1    0    0    0    0  0.00000000000E+00  0.00000000000E+00  0.76976173416E+03  0.76976173416E+03  0.00000000000E+00 0.  1.
         22   -1    0    0    0    0 -0.00000000000E+00 -0.00000000000E+00 -0.65241069278E+03  0.65241069278E+03  0.00000000000E+00 0. -1.
        -24    2    1    2    0    0 -0.98128184279E+02  0.13891771247E+02 -0.58399266998E+03  0.59784761954E+03  0.80945758013E+02 0.  0.
         25    2    1    2    0    0  0.73661810618E+02 -0.97626204204E+02  0.81573339479E+02  0.19302448290E+03  0.12508918096E+03 0.  0.
         24    2    1    2    0    0  0.24466373661E+02  0.83734432957E+02  0.61977037188E+03  0.63130032451E+03  0.82551360780E+02 0.  0.
        -13    1    5    5    0    0  0.42659624387E+02  0.28793758221E+02  0.42524119113E+03  0.42834448134E+03  0.00000000000E+00 0.  1.
         14    1    5    5    0    0 -0.18193250726E+02  0.54940674737E+02  0.19452918075E+03  0.20295584317E+03  0.00000000000E+00 0. -1.
         11    1    3    3    0    0 -0.76741757877E+02  0.44594977515E+02 -0.36191940677E+03  0.37264415522E+03  0.00000000000E+00 0. -1.
        -12    1    3    3    0    0 -0.21386426402E+02 -0.30703206269E+02 -0.22207326321E+03  0.22520346432E+03  0.00000000000E+00 0.  1.
          5    1    4    4  501    0 -0.37724043180E+01 -0.53101858650E+02 -0.20611201421E+02  0.57239256201E+02  0.41800000000E+01 0.  1.
         -5    1    4    4    0  501  0.77434214936E+02 -0.44524345554E+02  0.10218454090E+03  0.13578522670E+03  0.41800000000E+01 0.  1.
</event>
<event>
11    1  0.1002087E-008  0.1724435E+03  0.7561462E-02  0.1075925E+00
         22   -1    0    0    0    0  0.00000000000E+00  0.00000000000E+00  0.45149371006E+02  0.45149371006E+02  0.00000000000E+00 0. -1.
         22   -1    0    0    0    0 -0.00000000000E+00 -0.00000000000E+00 -0.33287372297E+04  0.33287372297E+04  0.00000000000E+00 0.  1.
        -24    2    1    2    0    0 -0.11393143680E+03 -0.29431196437E+02 -0.24153754583E+04  0.24201750007E+04  0.96756714939E+02 0.  0.
         25    2    1    2    0    0  0.11030174075E+03  0.60124198944E+02 -0.83725466340E+03  0.85581855851E+03  0.12509452581E+03 0.  0.
         24    2    1    2    0    0  0.36296960509E+01 -0.30693002506E+02 -0.30957736988E+02  0.97893041484E+02  0.87575287583E+02 0.  0.
        -13    1    5    5    0    0  0.25196490677E+02  0.77234592284E+01 -0.44572981020E+02  0.51780938596E+02  0.00000000000E+00 0.  1.
         14    1    5    5    0    0 -0.21566794626E+02 -0.38416461735E+02  0.13615244032E+02  0.46112102888E+02  0.00000000000E+00 0. -1.
         11    1    3    3    0    0 -0.28845551963E+02 -0.87074233067E+01 -0.14432543801E+03  0.14743716338E+03  0.00000000000E+00 0. -1.
        -12    1    3    3    0    0 -0.85085884842E+02 -0.20723773131E+02 -0.22710500203E+04  0.22727378373E+04  0.00000000000E+00 0.  1.
          5    1    4    4  501    0  0.59537143338E+02  0.83763952523E+02 -0.33497146336E+03  0.35040608563E+03  0.41800000000E+01 0. -1.
         -5    1    4    4    0  501  0.50764597415E+02 -0.23639753580E+02 -0.50228320004E+03  0.50541247288E+03  0.41800000000E+01 0. -1.
</event>
<event>
11    1  0.1002087E-008  0.1411648E+03  0.7561462E-02  0.1106265E+00
         22   -1    0    0    0    0  0.00000000000E+00  0.00000000000E+00  0.13468514312E+04  0.13468514312E+04  0.00000000000E+00 0.  1.
         22   -1    0    0    0    0 -0.00000000000E+00 -0.00000000000E+00 -0.19440761439E+04  0.19440761439E+04  0.00000000000E+00 0. -1.
         24    2    1    2    0    0 -0.50832844376E+02  0.51002532496E+02 -0.19139732041E+04  0.19170184326E+04  0.80504709686E+02 0.  0.
         25    2    1    2    0    0  0.95902374865E+02 -0.38907501776E+01  0.21597378343E+03  0.26740248949E+03  0.12508802026E+03 0.  0.
        -24    2    1    2    0    0 -0.45069530488E+02 -0.47111782319E+02  0.11007747079E+04  0.11065066530E+04  0.91658239955E+02 0.  0.
        -13    1    3    3    0    0  0.13210331422E+02  0.25282242916E+02 -0.10146816442E+04  0.10150825305E+04  0.00000000000E+00 0.  1.
         14    1    3    3    0    0 -0.64043175798E+02  0.25720289580E+02 -0.89929155993E+03  0.90193590206E+03  0.00000000000E+00 0. -1.
         13    1    5    5    0    0 -0.60933733474E+02 -0.10915107650E+02  0.41472183118E+03  0.41931641597E+03  0.00000000000E+00 0. -1.
        -14    1    5    5    0    0  0.15864202985E+02 -0.36196674669E+02  0.68605287677E+03  0.68719023707E+03  0.00000000000E+00 0.  1.
          5    1    4    4  501    0  0.39453911055E+02  0.29826177468E+02  0.19034304049E+03  0.19670830543E+03  0.41800000000E+01 0.  1.
         -5    1    4    4    0  501  0.56448463809E+02 -0.33716927645E+02  0.25630742936E+02  0.70694184059E+02  0.41800000000E+01 0.  1.
</event>
<event>
11    1  0.1002087E-008  0.1637151E+03  0.7561462E-02  0.1083634E+00
         22   -1    0    0    0    0  0.00000000000E+00  0.00000000000E+00  0.19850920890E+04  0.19850920890E+04  0.00000000000E+00 0. -1.
         22   -1    0    0    0    0 -0.00000000000E+00 -0.00000000000E+00 -0.52983036884E+03  0.52983036884E+03  0.00000000000E+00 0.  1.
         24    2    1    2    0    0 -0.36962890354E+01 -0.74118014419E+01 -0.47354689641E+03  0.48090434329E+03  0.83389009677E+02 0.  0.
         25    2    1    2    0    0 -0.10208157090E+03  0.80237424177E+01  0.79777697020E+02  0.18027010759E+03  0.12509117950E+03 0.  0.
        -24    2    1    2    0    0  0.10577785993E+03 -0.61194097584E+00  0.18490309195E+04  0.18537480069E+04  0.79227531431E+02 0.  0.
        -13    1    3    3    0    0  0.63919873499E+01  0.18646298754E+02 -0.42037875134E+03  0.42084063081E+03  0.00000000000E+00 0.  1.
         14    1    3    3    0    0 -0.10088276385E+02 -0.26058100195E+02 -0.53168145074E+02  0.60063712479E+02  0.00000000000E+00 0. -1.
         11    1    5    5    0    0  0.93807527579E+02  0.29211427673E+02  0.12497596623E+04  0.12536157199E+04  0.00000000000E+00 0. -1.
        -12    1    5    5    0    0  0.11970332355E+02 -0.29823368649E+02  0.59927125722E+03  0.60013228701E+03  0.00000000000E+00 0.  1.
          5    1    4    4  501    0 -0.75065284907E+02  0.61588831353E+02  0.68958240499E+02  0.11916665842E+03  0.41800000000E+01 0. -1.
         -5    1    4    4    0  501 -0.27016285991E+02 -0.53565088935E+02  0.10819456521E+02  0.61103449172E+02  0.41800000000E+01 0. -1.
</event>
<event>
11    1  0.1002087E-008  0.1629375E+03  0.7561462E-02  0.1084347E+00
         22   -1    0    0    0    0  0.00000000000E+00  0.00000000000E+00  0.28629866682E+04  0.28629866682E+04  0.00000000000E+00 0. -1.
         22   -1    0    0    0    0 -0.00000000000E+00 -0.00000000000E+00 -0.22677674306E+04  0.22677674306E+04  0.00000000000E+00 0.  1.
         24    2    1    2    0    0  0.66250705771E+02  0.53281781846E+02 -0.22537711494E+04  0.22568468498E+04  0.81518128474E+02 0.  0.
         25    2    1    2    0    0 -0.13091614844E+03 -0.11633116916E+03  0.11046597342E+04  0.11254300004E+04  0.12509028173E+03 0.  0.
        -24    2    1    2    0    0  0.64665442668E+02  0.63049387314E+02  0.17443306528E+04  0.17484772487E+04  0.79538785561E+02 0.  0.
        -13    1    3    3    0    0  0.84373851888E+02  0.47040228623E+02 -0.20116890867E+04  0.20140071280E+04  0.00000000000E+00 0.  1.
         14    1    3    3    0    0 -0.18123146118E+02  0.62415532229E+01 -0.24208206264E+03  0.24283972176E+03  0.00000000000E+00 0. -1.
         13    1    5    5    0    0  0.76546186982E+02  0.45667868861E+02  0.16137892938E+04  0.16162489776E+04  0.00000000000E+00 0. -1.
        -14    1    5    5    0    0 -0.11880744314E+02  0.17381518453E+02  0.13054135901E+03  0.13222827111E+03  0.00000000000E+00 0.  1.
          5    1    4    4  501    0 -0.11669475606E+03 -0.13222955102E+03  0.10705216976E+04  0.10849592147E+04  0.41800000000E+01 0.  1.
         -5    1    4    4    0  501 -0.14221392375E+02  0.15898381857E+02  0.34138036569E+02  0.40470785605E+02  0.41800000000E+01 0.  1.
</event>
<event>
11    1  0.1002087E-008  0.1387188E+03  0.7561462E-02  0.1108998E+00
         22   -1    0    0    0    0  0.00000000000E+00  0.00000000000E+00  0.96834902022E+03  0.96834902022E+03  0.00000000000E+00 0. -1.
         22   -1    0    0    0    0 -0.00000000000E+00 -0.00000000000E+00 -0.16454097121E+03  0.16454097121E+03  0.00000000000E+00 0. -1.
         24    2    1    2    0    0 -0.51798287388E+02 -0.46483471579E+02  0.13009825716E+02  0.13075719864E+03  0.10992913046E+03 0.  0.
         25    2    1    2    0    0  0.27276188738E+02  0.47987068857E+02 -0.58863662202E+02  0.14885871364E+03  0.12508891497E+03 0.  0.
        -24    2    1    2    0    0  0.24522098650E+02 -0.15035972771E+01  0.84966188550E+03  0.85327407915E+03  0.74483154820E+02 0.  0.
        -13    1    3    3    0    0  0.21842038210E+01 -0.44070390144E+01  0.51835364738E+02  0.52068203125E+02  0.00000000000E+00 0.  1.
         14    1    3    3    0    0 -0.53982491209E+02 -0.42076432565E+02 -0.38825539022E+02  0.78688995513E+02  0.00000000000E+00 0. -1.
         13    1    5    5    0    0  0.26186473439E+02 -0.52163288823E+01  0.97186230669E+02  0.10078742436E+03  0.00000000000E+00 0. -1.
        -14    1    5    5    0    0 -0.16643747887E+01  0.37127316051E+01  0.75247565483E+03  0.75248665478E+03  0.00000000000E+00 0.  1.
          5    1    4    4  501    0 -0.21348764598E+02  0.17759316687E+02  0.31249085505E+02  0.42013579042E+02  0.41800000000E+01 0.  1.
         -5    1    4    4    0  501  0.48624953336E+02  0.30227752170E+02 -0.90112747707E+02  0.10684513460E+03  0.41800000000E+01 0.  1.
</event>
<event>
11    1  0.1002087E-008  0.1965374E+03  0.7561462E-02  0.1057000E+00
         22   -1    0    0    0    0  0.00000000000E+00  0.00000000000E+00  0.38064816636E+03  0.38064816636E+03  0.00000000000E+00 0.  1.
         22   -1    0    0    0    0 -0.00000000000E+00 -0.00000000000E+00 -0.60341650534E+03  0.60341650534E+03  0.00000000000E+00 0. -1.
        -24    2    1    2    0    0 -0.28698168196E+02 -0.15086313390E+03 -0.50777436649E+03  0.53652428600E+03  0.80251057146E+02 0.  0.
         25    2    1    2    0    0  0.54101801142E+02  0.12714667417E+03  0.44458497946E+02  0.19161897695E+03  0.12509193678E+03 0.  0.
         24    2    1    2    0    0 -0.25403632946E+02  0.23716459728E+02  0.24054752956E+03  0.25592140875E+03  0.80155089985E+02 0.  0.
        -11    1    5    5    0    0 -0.26361165554E+02  0.43952594404E+02  0.22392670444E+03  0.22971702280E+03  0.00000000000E+00 0.  1.
         12    1    5    5    0    0  0.95753260799E+00 -0.20236134676E+02  0.16620825128E+02  0.26204385955E+02  0.00000000000E+00 0. -1.
         11    1    3    3    0    0 -0.45317949571E+02 -0.14817311728E+03 -0.47570523510E+03  0.50030436730E+03  0.00000000000E+00 0. -1.
        -12    1    3    3    0    0  0.16619781375E+02 -0.26900166201E+01 -0.32069131393E+02  0.36219918700E+02  0.00000000000E+00 0.  1.
          5    1    4    4  501    0 -0.74977484365E+01  0.21953734022E+01  0.51318075188E+02  0.52077376441E+02  0.41800000000E+01 0. -1.
         -5    1    4    4    0  501  0.61599549578E+02  0.12495130077E+03 -0.68595772417E+01  0.13954160050E+03  0.41800000000E+01 0. -1.
</event>
<event>
11    1  0.1002087E-008  0.1491349E+03  0.7561462E-02  0.1097766E+00
         22   -1    0    0    0    0  0.00000000000E+00  0.00000000000E+00  0.13593649483E+03  0.13593649483E+03  0.00000000000E+00 0. -1.
         22   -1    0    0    0    0 -0.00000000000E+00 -0.00000000000E+00 -0.78425283613E+03  0.78425283613E+03  0.00000000000E+00 0. -1.
        -24    2    1    2    0    0  0.42891876188E+02  0.82129529547E+01 -0.56891229754E+03  0.57606107041E+03  0.79233761229E+02 0.  0.
         25    2    1    2    0    0 -0.90423565717E+02  0.53976241240E+02 -0.14544861547E+03  0.21884909826E+03  0.12509904961E+03 0.  0.
         24    2    1    2    0    0  0.47531689529E+02 -0.62189194194E+02  0.66044571709E+02  0.12527916228E+03  0.72154179820E+02 0.  0.
        -13    1    5    5    0    0  0.19102532625E+02  0.14114894775E+02  0.23475834096E+02  0.33395385815E+02  0.00000000000E+00 0.  1.
         14    1    5    5    0    0  0.28429156904E+02 -0.76304088970E+02  0.42568737613E+02  0.91883776466E+02  0.00000000000E+00 0. -1.
         13    1    3    3    0    0  0.50408055199E+02  0.18532166561E+02 -0.55326945597E+03  0.55587004249E+03  0.00000000000E+00 0. -1.
        -14    1    3    3    0    0 -0.75161790108E+01 -0.10319213606E+02 -0.15642841563E+02  0.20191027922E+02  0.00000000000E+00 0.  1.
          5    1    4    4  501    0 -0.41002686858E+02  0.11962204164E+02  0.15216112822E+02  0.45533692442E+02  0.41800000000E+01 0.  1.
         -5    1    4    4    0  501 -0.49420878859E+02  0.42014037075E+02 -0.16066472829E+03  0.17331540582E+03  0.41800000000E+01 0.  1.
</event>
<event>
11    1  0.1002087E-008  0.1865958E+03  0.7561462E-02  0.1064429E+00
         22   -1    0    0    0    0  0.00000000000E+00  0.00000000000E+00  0.66350452200E+02  0.66350452200E+02  0.00000000000E+00 0. -1.
         22   -1    0    0    0    0 -0.00000000000E+00 -0.00000000000E+00 -0.23003009069E+04  0.23003009069E+04  0.00000000000E+00 0.  1.
         24    2    1    2    0    0 -0.93112322230E+02 -0.75523087389E+02 -0.89686430109E+03  0.90804581810E+03  0.76210182509E+02 0.  0.
         25    2    1    2    0    0  0.92116247292E+02  0.14353997538E+03 -0.13337403526E+04  0.13504074675E+04  0.12509145772E+03 0.  0.
        -24    2    1    2    0    0  0.99607493817E+00 -0.68016887989E+02 -0.33458010773E+01  0.10819807349E+03  0.84073417348E+02 0.  0.
        -11    1    3    3    0    0 -0.29600321391E+02 -0.72645449602E+02 -0.50611822152E+03  0.51216129737E+03  0.00000000000E+00 0.  1.
         12    1    3    3    0    0 -0.63512000839E+02 -0.28776377879E+01 -0.39074607957E+03  0.39588452073E+03  0.00000000000E+00 0. -1.
         13    1    5    5    0    0  0.21678791271E+01 -0.86647361075E+02  0.68197202925E+01  0.86942357146E+02  0.00000000000E+00 0. -1.
        -14    1    5    5    0    0 -0.11718041889E+01  0.18630473086E+02 -0.10165521370E+02  0.21255716341E+02  0.00000000000E+00 0.  1.
          5    1    4    4  501    0 -0.83996167404E+01  0.49616009438E+02 -0.70370355489E+03  0.70551291095E+03  0.41800000000E+01 0.  1.
         -5    1    4    4    0  501  0.10051586403E+03  0.93923965941E+02 -0.63003679767E+03  0.64489455659E+03  0.41800000000E+01 0.  1.
</event>
<event>
11    1  0.1002087E-008  0.1306362E+03  0.7561462E-02  0.1118490E+00
         22   -1    0    0    0    0  0.00000000000E+00  0.00000000000E+00  0.10173311390E+03  0.10173311390E+03  0.00000000000E+00 0. -1.
         22   -1    0    0    0    0 -0.00000000000E+00 -0.00000000000E+00 -0.12448286592E+04  0.12448286592E+04  0.00000000000E+00 0.  1.
        -24    2    1    2    0    0 -0.30223224819E+00 -0.37943957574E+02 -0.10142394344E+04  0.10181736333E+04  0.80969635922E+02 0.  0.
         25    2    1    2    0    0 -0.41922102475E+01  0.34695401613E+02 -0.18735047357E+03  0.22796777544E+03  0.12509101155E+03 0.  0.
         24    2    1    2    0    0  0.44944424957E+01  0.32485559616E+01  0.58494362742E+02  0.10042036432E+03  0.81436514952E+02 0.  0.
        -11    1    5    5    0    0 -0.20034029677E+02 -0.32538376084E+02  0.26088618939E+02  0.46267961933E+02  0.00000000000E+00 0.  1.
         12    1    5    5    0    0  0.24528472173E+02  0.35786932046E+02  0.32405743803E+02  0.54152402383E+02  0.00000000000E+00 0. -1.
         13    1    3    3    0    0 -0.28143006381E+02  0.11369370934E+02 -0.47500233868E+03  0.47597112639E+03  0.00000000000E+00 0. -1.
        -14    1    3    3    0    0  0.27840774132E+02 -0.49313328508E+02 -0.53923709574E+03  0.54220250691E+03  0.00000000000E+00 0.  1.
          5    1    4    4  501    0 -0.31296931119E+02 -0.35639380335E+02 -0.11010125264E+03  0.11995591507E+03  0.41800000000E+01 0.  1.
         -5    1    4    4    0  501  0.27104720872E+02  0.70334781948E+02 -0.77249220938E+02  0.10801186037E+03  0.41800000000E+01 0.  1.
</event>
<event>
11    1  0.1002087E-008  0.1513453E+03  0.7561462E-02  0.1095512E+00
         22   -1    0    0    0    0  0.00000000000E+00  0.00000000000E+00  0.46156913197E+04  0.46156913197E+04  0.00000000000E+00 0. -1.
         22   -1    0    0    0    0 -0.00000000000E+00 -0.00000000000E+00 -0.10475683787E+04  0.10475683787E+04  0.00000000000E+00 0. -1.
         24    2    1    2    0    0  0.56941788318E+02  0.62255855875E+02 -0.10360747397E+04  0.10427251238E+04  0.81894191805E+02 0.  0.
         25    2    1    2    0    0  0.34629221577E+02 -0.47335560877E+02  0.65487041226E+03  0.66928365456E+03  0.12508203348E+03 0.  0.
        -24    2    1    2    0    0 -0.91571009895E+02 -0.14920294998E+02  0.39493272685E+04  0.39512509201E+04  0.81179399055E+02 0.  0.
        -13    1    3    3    0    0 -0.65049217665E+01  0.37064166538E+01 -0.77247457076E+01  0.10757473116E+02  0.00000000000E+00 0.  1.
         14    1    3    3    0    0  0.63446710085E+02  0.58549439221E+02 -0.10283499940E+04  0.10319676507E+04  0.00000000000E+00 0. -1.
         11    1    5    5    0    0 -0.77303031632E+02  0.20556505666E+02  0.31427061692E+04  0.31437239692E+04  0.00000000000E+00 0. -1.
        -12    1    5    5    0    0 -0.14267978263E+02 -0.35476800664E+02  0.80662109932E+03  0.80752695092E+03  0.00000000000E+00 0.  1.
          5    1    4    4  501    0 -0.45399591383E+02 -0.29834711911E+02  0.21259576908E+03  0.21946677736E+03  0.41800000000E+01 0.  1.
         -5    1    4    4    0  501  0.80028812960E+02 -0.17500848966E+02  0.44227464318E+03  0.44981687720E+03  0.41800000000E+01 0.  1.
</event>
<event>
11    1  0.1002087E-008  0.1577441E+03  0.7561462E-02  0.1089218E+00
         22   -1    0    0    0    0  0.00000000000E+00  0.00000000000E+00  0.64895941310E+03  0.64895941310E+03  0.00000000000E+00 0. -1.
         22   -1    0    0    0    0 -0.00000000000E+00 -0.00000000000E+00 -0.12018302018E+03  0.12018302018E+03  0.00000000000E+00 0. -1.
        -24    2    1    2    0    0  0.19243169697E+02  0.30398517958E+02 -0.20321412283E+02  0.89815966810E+02  0.79746966230E+02 0.  0.
         25    2    1    2    0    0  0.24938491869E+02  0.59687355193E+02  0.28990396008E+02  0.14378201520E+03  0.12509322958E+03 0.  0.
         24    2    1    2    0    0 -0.44181661567E+02 -0.90085873151E+02  0.52010740919E+03  0.53554445127E+03  0.78921850188E+02 0.  0.
        -13    1    5    5    0    0 -0.22921799399E+02 -0.89312011386E+02  0.28654285876E+03  0.30101304651E+03  0.00000000000E+00 0.  1.
         14    1    5    5    0    0 -0.21259862168E+02 -0.77386176502E+00  0.23356455043E+03  0.23453140476E+03  0.00000000000E+00 0. -1.
         13    1    3    3    0    0 -0.22293003316E+02 -0.10276203247E+02  0.70781902247E+01  0.25547585539E+02  0.00000000000E+00 0. -1.
        -14    1    3    3    0    0  0.41536173013E+02  0.40674721205E+02 -0.27399602508E+02  0.64268381272E+02  0.00000000000E+00 0.  1.
          5    1    4    4  501    0  0.35832597919E+02 -0.17305287459E+02  0.49116893196E+02  0.63351319204E+02  0.41800000000E+01 0. -1.
         -5    1    4    4    0  501 -0.10894106050E+02  0.76992642652E+02 -0.20126497187E+02  0.80430695995E+02  0.41800000000E+01 0. -1.
</event>
<event>
11    1  0.1002087E-008  0.1275834E+03  0.7561462E-02  0.1122274E+00
         22   -1    0    0    0    0  0.00000000000E+00  0.00000000000E+00  0.17201427645E+03  0.17201427645E+03  0.00000000000E+00 0.  1.
         22   -1    0    0    0    0 -0.00000000000E+00 -0.00000000000E+00 -0.11978909907E+04  0.11978909907E+04  0.00000000000E+00 0. -1.
         24    2    1    2    0    0  0.41127350564E+02  0.88340562507E+01 -0.10835370399E+04  0.10870738165E+04  0.76860042872E+02 0.  0.
         25    2    1    2    0    0 -0.99852509750E+01 -0.10319531259E+02 -0.54175311179E+02  0.13707097263E+03  0.12508912516E+03 0.  0.
        -24    2    1    2    0    0 -0.31142099589E+02  0.14854750084E+01  0.11183563683E+03  0.14576047801E+03  0.88129848981E+02 0.  0.
        -13    1    3    3    0    0  0.28064831601E+02 -0.15632298540E+01 -0.11473354354E+03  0.11812647660E+03  0.00000000000E+00 0.  1.
         14    1    3    3    0    0  0.13062518963E+02  0.10397286105E+02 -0.96880349638E+03  0.96894733993E+03  0.00000000000E+00 0. -1.
         13    1    5    5    0    0 -0.39987269250E+02 -0.20157083674E+02  0.16698507635E+02  0.47792571406E+02  0.00000000000E+00 0. -1.
        -14    1    5    5    0    0  0.88451696615E+01  0.21642558683E+02  0.95137129196E+02  0.97967906604E+02  0.00000000000E+00 0.  1.
          5    1    4    4  501    0 -0.47303756140E+02  0.21437395085E+02 -0.68298754774E+02  0.85903431577E+02  0.41800000000E+01 0. -1.
         -5    1    4    4    0  501  0.37318505165E+02 -0.31756926344E+02  0.14123443595E+02  0.51167541054E+02  0.41800000000E+01 0. -1.
</event>
<event>
11    1  0.1002087E-008  0.2035099E+03  0.7561462E-02  0.1052069E+00
         22   -1    0    0    0    0  0.00000000000E+00  0.00000000000E+00  0.99699036621E+03  0.99699036621E+03  0.00000000000E+00 0.  1.
         22   -1    0    0    0    0 -0.00000000000E+00 -0.00000000000E+00 -0.23147588216E+03  0.23147588216E+03  0.00000000000E+00 0. -1.
         24    2    1    2    0    0  0.10917216453E+02 -0.53954232046E+02 -0.15460915085E+03  0.18310114084E+03  0.81189860697E+02 0.  0.
         25    2    1    2    0    0 -0.16767742831E+03  0.19880630181E+02  0.15644026164E+03  0.26197510069E+03  0.12508572461E+03 0.  0.
        -24    2    1    2    0    0  0.15676021185E+03  0.34073601865E+02  0.76368337326E+03  0.78339000683E+03  0.68940799535E+02 0.  0.
        -13    1    3    3    0    0 -0.17617554686E+02 -0.63354502848E+02 -0.86476153176E+02  0.10863837412E+03  0.00000000000E+00 0.  1.
         14    1    3    3    0    0  0.28534771139E+02  0.94002708013E+01 -0.68132997674E+02  0.74462766717E+02  0.00000000000E+00 0. -1.
         13    1    5    5    0    0  0.65049547136E+02  0.48495899856E+02  0.38956227840E+03  0.39792218415E+03  0.00000000000E+00 0. -1.
        -14    1    5    5    0    0  0.91710664718E+02 -0.14422297991E+02  0.37412109486E+03  0.38546782268E+03  0.00000000000E+00 0.  1.
          5    1    4    4  501    0 -0.15474808906E+03 -0.51993714806E+01  0.17034959278E+03  0.23024000671E+03  0.41800000000E+01 0.  1.
         -5    1    4    4    0  501 -0.12929339251E+02  0.25080001662E+02 -0.13909331144E+02  0.31735093977E+02  0.41800000000E+01 0.  1.
</event>
<event>
11    1  0.1002087E-008  0.2215988E+03  0.7561462E-02  0.1040220E+00
         22   -1    0    0    0    0  0.00000000000E+00  0.00000000000E+00  0.11636014235E+04  0.11636014235E+04  0.00000000000E+00 0. -1.
         22   -1    0    0    0    0 -0.00000000000E+00 -0.00000000000E+00 -0.40628025566E+03  0.40628025566E+03  0.00000000000E+00 0. -1.
        -24    2    1    2    0    0 -0.84890805244E+02  0.14012913532E+03 -0.16803448888E+03  0.25186974201E+03  0.91433878318E+02 0.  0.
         25    2    1    2    0    0  0.14689933468E+03 -0.16832494512E+03 -0.10902725841E+03  0.27829748927E+03  0.12509935164E+03 0.  0.
         24    2    1    2    0    0 -0.62008529435E+02  0.28195809798E+02  0.10343829152E+04  0.10397144479E+04  0.80112774214E+02 0.  0.
        -11    1    5    5    0    0 -0.13460634057E+02 -0.27828163769E+02  0.32678797556E+03  0.32824682228E+03  0.00000000000E+00 0.  1.
         12    1    5    5    0    0 -0.48547895378E+02  0.56023973567E+02  0.70759493962E+03  0.71146762564E+03  0.00000000000E+00 0. -1.
         11    1    3    3    0    0 -0.75521195486E+02  0.15351711315E+03 -0.14998997618E+03  0.22752570833E+03  0.00000000000E+00 0. -1.
        -12    1    3    3    0    0 -0.93696097579E+01 -0.13387977822E+02 -0.18044512700E+02  0.24344033679E+02  0.00000000000E+00 0.  1.
          5    1    4    4  501    0  0.15098332734E+03 -0.17545527437E+03 -0.12253735234E+03  0.26194158425E+03  0.41800000000E+01 0.  1.
         -5    1    4    4    0  501 -0.40839926651E+01  0.71303292466E+01  0.13510093930E+02  0.16355905027E+02  0.41800000000E+01 0.  1.
</event>
<event>
11    1  0.1002087E-008  0.1874579E+03  0.7561462E-02  0.1063765E+00
         22   -1    0    0    0    0  0.00000000000E+00  0.00000000000E+00  0.13554189767E+04  0.13554189767E+04  0.00000000000E+00 0. -1.
         22   -1    0    0    0    0 -0.00000000000E+00 -0.00000000000E+00 -0.48005890568E+03  0.48005890568E+03  0.00000000000E+00 0.  1.
         24    2    1    2    0    0 -0.13021492889E+03  0.90799227464E+02 -0.30981628329E+03  0.35735446145E+03  0.80719603048E+02 0.  0.
         25    2    1    2    0    0  0.76621104233E+02 -0.69658187218E+02 -0.98962255269E+02  0.19016990316E+03  0.12509199591E+03 0.  0.
        -24    2    1    2    0    0  0.53593824655E+02 -0.21141040246E+02  0.12841386096E+04  0.12879535178E+04  0.80579486885E+02 0.  0.
        -13    1    3    3    0    0 -0.12954602646E+03  0.79762280032E+02 -0.22368594246E+03  0.27051727327E+03  0.00000000000E+00 0.  1.
         14    1    3    3    0    0 -0.66890243075E+00  0.11036947432E+02 -0.86130340830E+02  0.86837188178E+02  0.00000000000E+00 0. -1.
         11    1    5    5    0    0  0.44344057683E+02 -0.29798440509E+02  0.38116380084E+03  0.38488983564E+03  0.00000000000E+00 0. -1.
        -12    1    5    5    0    0  0.92497669722E+01  0.86574002626E+01  0.90297480874E+03  0.90306368213E+03  0.00000000000E+00 0.  1.
          5    1    4    4  501    0  0.95274303784E+02 -0.30952841054E+02 -0.10658654149E+03  0.14633329955E+03  0.41800000000E+01 0.  1.
         -5    1    4    4    0  501 -0.18653199551E+02 -0.38705346164E+02  0.76242862257E+01  0.43836603605E+02  0.41800000000E+01 0.  1.
</event>
<event>
11    1  0.1002087E-008  0.1868263E+04  0.7561462E-02  0.8123233E-01
         22   -1    0    0    0    0  0.00000000000E+00  0.00000000000E+00  0.16943264170E+04  0.16943264170E+04  0.00000000000E+00 0. -1.
         22   -1    0    0    0    0 -0.00000000000E+00 -0.00000000000E+00 -0.20579840340E+04  0.20579840340E+04  0.00000000000E+00 0. -1.
        -24    2    1    2    0    0  0.13535500050E+03  0.18981651736E+03 -0.10403427530E+03  0.26807132522E+03  0.81779083799E+02 0.  0.
         25    2    1    2    0    0 -0.27329272524E+03  0.15913291921E+04 -0.46318529346E+03  0.16844003788E+04  0.12508600625E+03 0.  0.
         24    2    1    2    0    0  0.13793772474E+03 -0.17811457094E+04  0.20356195169E+03  0.17998387469E+04  0.80468581876E+02 0.  0.
        -11    1    5    5    0    0  0.50248580835E+02 -0.72043006731E+03  0.42971796485E+02  0.72345765395E+03  0.00000000000E+00 0.  1.
         12    1    5    5    0    0  0.87689143907E+02 -0.10607156421E+04  0.16059015521E+03  0.10763810930E+04  0.00000000000E+00 0. -1.
         13    1    3    3    0    0  0.79585344572E+02  0.16800344362E+03 -0.90117414189E+02  0.20659170477E+03  0.00000000000E+00 0. -1.
        -14    1    3    3    0    0  0.55769655923E+02  0.21813073739E+02 -0.13916861108E+02  0.61479620451E+02  0.00000000000E+00 0.  1.
          5    1    4    4  501    0 -0.62673244647E+02  0.69339459881E+03 -0.22731818687E+03  0.73240360167E+03  0.41800000000E+01 0.  1.
         -5    1    4    4    0  501 -0.21061948059E+03  0.89793459324E+03 -0.23586710659E+03  0.95199677716E+03  0.41800000000E+01 0.  1.
</event>
<event>
11    1  0.1002087E-008  0.1430725E+03  0.7561462E-02  0.1104175E+00
         22   -1    0    0    0    0  0.00000000000E+00  0.00000000000E+00  0.17993735639E+03  0.17993735639E+03  0.00000000000E+00 0. -1.
         22   -1    0    0    0    0 -0.00000000000E+00 -0.00000000000E+00 -0.32732436394E+03  0.32732436394E+03  0.00000000000E+00 0. -1.
         24    2    1    2    0    0  0.18063779261E+02 -0.42084263114E+02 -0.19658908273E+03  0.21716942840E+03  0.80111845931E+02 0.  0.
         25    2    1    2    0    0 -0.73960544653E+02 -0.25489254976E+01 -0.34290807746E+02  0.14933234992E+03  0.12509049544E+03 0.  0.
        -24    2    1    2    0    0  0.55896765392E+02  0.44633188611E+02  0.83492882930E+02  0.14075994201E+03  0.87896131133E+02 0.  0.
        -13    1    3    3    0    0  0.65666498916E+01  0.22908386902E+02 -0.32476498122E+02  0.40281981227E+02  0.00000000000E+00 0.  1.
         14    1    3    3    0    0  0.11497129370E+02 -0.64992650015E+02 -0.16411258461E+03  0.17688744717E+03  0.00000000000E+00 0. -1.
         13    1    5    5    0    0  0.74824794506E+02  0.28498512492E+02  0.37372719189E+02  0.88360824050E+02  0.00000000000E+00 0. -1.
        -14    1    5    5    0    0 -0.18928029114E+02  0.16134676119E+02  0.46120163741E+02  0.52399117961E+02  0.00000000000E+00 0.  1.
          5    1    4    4  501    0 -0.83973254412E+02 -0.28290628629E+02 -0.63362588997E+02  0.10901448165E+03  0.41800000000E+01 0.  1.
         -5    1    4    4    0  501  0.10012709759E+02  0.25741703131E+02  0.29071781251E+02  0.40317868271E+02  0.41800000000E+01 0.  1.
</event>
<event>
11    1  0.1002087E-008  0.1699105E+03  0.7561462E-02  0.1078110E+00
         22   -1    0    0    0    0  0.00000000000E+00  0.00000000000E+00  0.14049374858E+04  0.14049374858E+04  0.00000000000E+00 0. -1.
         22   -1    0    0    0    0 -0.00000000000E+00 -0.00000000000E+00 -0.23627951246E+04  0.23627951246E+04  0.00000000000E+00 0. -1.
         24    2    1    2    0    0 -0.17320689345E+02 -0.11398443939E+03 -0.23459103736E+04  0.23501592666E+04  0.81612736822E+02 0.  0.
         25    2    1    2    0    0  0.23847858810E+02  0.56642408367E+02  0.37473241331E+03  0.39981067115E+03  0.12508840229E+03 0.  0.
        -24    2    1    2    0    0 -0.65271694643E+01  0.57342031026E+02  0.10133203215E+04  0.10177626726E+04  0.75445817843E+02 0.  0.
        -11    1    3    3    0    0  0.27630119437E+02 -0.71276432650E+02 -0.10586239991E+04  0.10613804807E+04  0.00000000000E+00 0.  1.
         12    1    3    3    0    0 -0.44950808783E+02 -0.42708006742E+02 -0.12872863745E+04  0.12887787859E+04  0.00000000000E+00 0. -1.
         11    1    5    5    0    0  0.75093341975E+01  0.47982951690E+02  0.97085347390E+03  0.97206749845E+03  0.00000000000E+00 0. -1.
        -12    1    5    5    0    0 -0.14036503662E+02  0.93590793358E+01  0.42466847576E+02  0.45695174188E+02  0.00000000000E+00 0.  1.
          5    1    4    4  501    0 -0.15716405097E+02  0.68198172153E+02  0.10092893936E+03  0.12289068017E+03  0.41800000000E+01 0.  1.
         -5    1    4    4    0  501  0.39564263906E+02 -0.11555763787E+02  0.27380347395E+03  0.27691999098E+03  0.41800000000E+01 0.  1.
</event>
<event>
11    1  0.1002087E-008  0.1646189E+03  0.7561462E-02  0.1082812E+00
         22   -1    0    0    0    0  0.00000000000E+00  0.00000000000E+00  0.31682706426E+03  0.31682706426E+03  0.00000000000E+00 0.  1.
         22   -1    0    0    0    0 -0.00000000000E+00 -0.00000000000E+00 -0.80542821593E+03  0.80542821593E+03  0.00000000000E+00 0. -1.
        -24    2    1    2    0    0  0.80538763246E+00 -0.52401850505E+02 -0.61796531391E+03  0.62548542531E+03  0.81266755140E+02 0.  0.
         25    2    1    2    0    0  0.83605904391E+02 -0.18141856226E+02 -0.13288477404E+03  0.20156490708E+03  0.12510385446E+03 0.  0.
         24    2    1    2    0    0 -0.84411292023E+02  0.70543706731E+02  0.26224893627E+03  0.29520494780E+03  0.79181916173E+02 0.  0.
        -11    1    5    5    0    0 -0.82430030271E+02  0.59349671446E+02  0.14292945271E+03  0.17534515061E+03  0.00000000000E+00 0.  1.
         12    1    5    5    0    0 -0.19812617526E+01  0.11194035285E+02  0.11931948357E+03  0.11985979719E+03  0.00000000000E+00 0. -1.
         13    1    3    3    0    0 -0.19677348336E+02 -0.67542110155E+02 -0.41381484000E+03  0.41975213697E+03  0.00000000000E+00 0. -1.
        -14    1    3    3    0    0  0.20482735968E+02  0.15140259650E+02 -0.20415047391E+03  0.20573328834E+03  0.00000000000E+00 0.  1.
          5    1    4    4  501    0  0.62788522326E+02  0.49442954327E+02 -0.80033204550E+02  0.11318034502E+03  0.41800000000E+01 0. -1.
         -5    1    4    4    0  501  0.20817382064E+02 -0.67584810553E+02 -0.52851569486E+02  0.88384562061E+02  0.41800000000E+01 0. -1.
</event>
<event>
11    1  0.1002087E-008  0.2805280E+03  0.7561462E-02  0.1008786E+00
         22   -1    0    0    0    0  0.00000000000E+00  0.00000000000E+00  0.37457739915E+03  0.37457739915E+03  0.00000000000E+00 0. -1.
         22   -1    0    0    0    0 -0.00000000000E+00 -0.00000000000E+00 -0.44260438466E+03  0.44260438466E+03  0.00000000000E+00 0.  1.
         24    2    1    2    0    0 -0.98601506092E+01  0.25795201524E+02 -0.80279346991E+02  0.11644263021E+03  0.79696283379E+02 0.  0.
         25    2    1    2    0    0  0.10988826767E+03  0.20826250151E+03 -0.22160632284E+03  0.34670665976E+03  0.12508974655E+03 0.  0.
        -24    2    1    2    0    0 -0.10002811706E+03 -0.23405770303E+03  0.23385868431E+03  0.35403249384E+03  0.76553836712E+02 0.  0.
        -11    1    3    3    0    0 -0.37119441517E+02  0.10532159539E+02 -0.10498546337E+02  0.39987483020E+02  0.00000000000E+00 0.  1.
         12    1    3    3    0    0  0.27259290908E+02  0.15263041985E+02 -0.69780800654E+02  0.76455147187E+02  0.00000000000E+00 0. -1.
         13    1    5    5    0    0 -0.10910784921E+03 -0.17765175148E+03  0.17803381327E+03  0.27415452983E+03  0.00000000000E+00 0. -1.
        -14    1    5    5    0    0  0.90797321482E+01 -0.56405951559E+02  0.55824871042E+02  0.79877964008E+02  0.00000000000E+00 0.  1.
          5    1    4    4  501    0  0.13441891060E+03  0.15061628826E+03 -0.15043078561E+03  0.25179476459E+03  0.41800000000E+01 0.  1.
         -5    1    4    4    0  501 -0.24530642930E+02  0.57646213248E+02 -0.71175537234E+02  0.94911895171E+02  0.41800000000E+01 0.  1.
</event>
<event>
11    1  0.1002087E-008  0.1644646E+03  0.7561462E-02  0.1082952E+00
         22   -1    0    0    0    0  0.00000000000E+00  0.00000000000E+00  0.22498645752E+03  0.22498645752E+03  0.00000000000E+00 0.  1.
         22   -1    0    0    0    0 -0.00000000000E+00 -0.00000000000E+00 -0.95464398942E+03  0.95464398942E+03  0.00000000000E+00 0. -1.
         24    2    1    2    0    0 -0.11587686739E+03  0.96013367484E+00 -0.80662424527E+03  0.81874501622E+03  0.79198221404E+02 0.  0.
         25    2    1    2    0    0  0.51970648132E+02  0.15241291568E+02 -0.90760192598E+02  0.16375660859E+03  0.12508224918E+03 0.  0.
        -24    2    1    2    0    0  0.63906219261E+02 -0.16201425243E+02  0.16772690597E+03  0.19712882213E+03  0.79880951957E+02 0.  0.
        -13    1    3    3    0    0 -0.66667269967E+02 -0.35157136872E+02 -0.34741081097E+03  0.35549236382E+03  0.00000000000E+00 0.  1.
         14    1    3    3    0    0 -0.49209597426E+02  0.36117270546E+02 -0.45921343431E+03  0.46325265240E+03  0.00000000000E+00 0. -1.
         11    1    5    5    0    0 -0.37851103252E+00  0.19243126200E+02  0.70863528286E+01  0.20509938395E+02  0.00000000000E+00 0. -1.
        -12    1    5    5    0    0  0.64284730294E+02 -0.35444551443E+02  0.16064055315E+03  0.17661888373E+03  0.00000000000E+00 0.  1.
          5    1    4    4  501    0  0.73414056502E+02 -0.24970913758E+02 -0.88778200174E+02  0.11795003795E+03  0.41800000000E+01 0. -1.
         -5    1    4    4    0  501 -0.21443408370E+02  0.40212205326E+02 -0.19819924242E+01  0.45806570639E+02  0.41800000000E+01 0. -1.
</event>
<event>
11    1  0.1388356E-008  0.9338215E+03  0.7561462E-02  0.8744639E-01
         22   -1    0    0    0    0  0.00000000000E+00  0.00000000000E+00  0.24221360281E+04  0.24221360281E+04  0.00000000000E+00 0.  1.
         22   -1    0    0    0    0 -0.00000000000E+00 -0.00000000000E+00 -0.12275868613E+04  0.12275868613E+04  0.00000000000E+00 0.  1.
        -24    2    1    2    0    0  0.10192139242E+03 -0.93367750400E+02  0.11513796151E+02  0.16045265496E+03  0.80665853584E+02 0.  0.
         25    2    1    2    0    0  0.15947790849E+03  0.97546587750E+03 -0.81575145387E+03  0.12876587890E+04  0.12509133077E+03 0.  0.
         24    2    1    2    0    0 -0.26139930091E+03 -0.88209812710E+03  0.19987868245E+04  0.22016114453E+04  0.74279783162E+02 0.  0.
        -11    1    5    5    0    0 -0.13454802965E+03 -0.57911282159E+03  0.12849985790E+04  0.14158729394E+04  0.00000000000E+00 0.  1.
         12    1    5    5    0    0 -0.12685127126E+03 -0.30298530551E+03  0.71378824550E+03  0.78573850599E+03  0.00000000000E+00 0. -1.
         11    1    3    3    0    0  0.35512607178E+02 -0.62217116929E+02 -0.28260097826E+02  0.77011350051E+02  0.00000000000E+00 0. -1.
        -12    1    3    3    0    0  0.66408785242E+02 -0.31150633472E+02  0.39773893977E+02  0.83441304910E+02  0.00000000000E+00 0.  1.
          5    1    4    4  501    0  0.12367639284E+03  0.89996730565E+03 -0.77724832949E+03  0.11955623946E+04  0.41800000000E+01 0.  1.
         -5    1    4    4    0  501  0.35801515651E+02  0.75498571850E+02 -0.38503124387E+02  0.92096394402E+02  0.41800000000E+01 0.  1.
</event>
<event>
11    1  0.1002087E-008  0.1693561E+03  0.7561462E-02  0.1078593E+00
         22   -1    0    0    0    0  0.00000000000E+00  0.00000000000E+00  0.52268858140E+02  0.52268858140E+02  0.00000000000E+00 0.  1.
         22   -1    0    0    0    0 -0.00000000000E+00 -0.00000000000E+00 -0.34516329364E+04  0.34516329364E+04  0.00000000000E+00 0. -1.
        -24    2    1    2    0    0 -0.10719113942E+03 -0.15694385854E+02 -0.21559363562E+04  0.21602351460E+04  0.82571544985E+02 0.  0.
         25    2    1    2    0    0  0.14165562816E+03 -0.71424878011E+02 -0.11942249912E+04  0.12111923685E+04  0.12508314727E+03 0.  0.
         24    2    1    2    0    0 -0.34464488735E+02  0.87119263865E+02 -0.49202730803E+02  0.13247427995E+03  0.79692904385E+02 0.  0.
        -13    1    5    5    0    0 -0.51819076525E+02  0.38028444668E+02 -0.48295962088E+02  0.80398254022E+02  0.00000000000E+00 0.  1.
         14    1    5    5    0    0  0.17354587790E+02  0.49090819198E+02 -0.90676871566E+00  0.52076025927E+02  0.00000000000E+00 0. -1.
         11    1    3    3    0    0 -0.47665373858E+02  0.20531553294E+02 -0.14352063447E+04  0.14361444163E+04  0.00000000000E+00 0. -1.
        -12    1    3    3    0    0 -0.59525765564E+02 -0.36225939148E+02 -0.72073001152E+03  0.72409072977E+03  0.00000000000E+00 0.  1.
          5    1    4    4  501    0  0.12872151177E+03 -0.37669193720E+02 -0.55722752856E+03  0.57315633708E+03  0.41800000000E+01 0. -1.
         -5    1    4    4    0  501  0.12934116385E+02 -0.33755684291E+02 -0.63699746267E+03  0.63803603145E+03  0.41800000000E+01 0. -1.
</event>
<event>
11    1  0.1002087E-008  0.1317302E+03  0.7561462E-02  0.1117161E+00
         22   -1    0    0    0    0  0.00000000000E+00  0.00000000000E+00  0.16316016830E+04  0.16316016830E+04  0.00000000000E+00 0. -1.
         22   -1    0    0    0    0 -0.00000000000E+00 -0.00000000000E+00 -0.93380922475E+02  0.93380922475E+02  0.00000000000E+00 0.  1.
        -24    2    1    2    0    0 -0.12808463143E+02 -0.62299939240E+01 -0.41678262812E+02  0.92691513526E+02  0.81558381153E+02 0.  0.
         25    2    1    2    0    0 -0.58281318767E+00  0.45181738782E+02  0.15416601384E+03  0.20360874015E+03  0.12509048745E+03 0.  0.
         24    2    1    2    0    0  0.13391276330E+02 -0.38951744858E+02  0.14257330095E+04  0.14286823518E+04  0.81988311785E+02 0.  0.
        -11    1    5    5    0    0  0.28122209633E+02 -0.31667242236E+02  0.31574761985E+03  0.31857531660E+03  0.00000000000E+00 0.  1.
         12    1    5    5    0    0 -0.14730933302E+02 -0.72845026219E+01  0.11099853897E+04  0.11101070352E+04  0.00000000000E+00 0. -1.
         13    1    3    3    0    0 -0.64917216151E+01 -0.18082824643E+02  0.21074336762E+02  0.28517690414E+02  0.00000000000E+00 0. -1.
        -14    1    3    3    0    0 -0.63167415274E+01  0.11852830719E+02 -0.62752599573E+02  0.64173823112E+02  0.00000000000E+00 0.  1.
          5    1    4    4  501    0 -0.31813246326E+02  0.77252165047E+02  0.73944746018E+02  0.11164800719E+03  0.41800000000E+01 0.  1.
         -5    1    4    4    0  501  0.31230433138E+02 -0.32070426266E+02  0.80221267820E+02  0.91960732954E+02  0.41800000000E+01 0.  1.
</event>
<event>
11    1  0.1002087E-008  0.1867707E+03  0.7561462E-02  0.1064294E+00
         22   -1    0    0    0    0  0.00000000000E+00  0.00000000000E+00  0.15679601119E+03  0.15679601119E+03  0.00000000000E+00 0.  1.
         22   -1    0    0    0    0 -0.00000000000E+00 -0.00000000000E+00 -0.11690491070E+04  0.11690491070E+04  0.00000000000E+00 0.  1.
         24    2    1    2    0    0 -0.78549104823E+02  0.11347174434E+02 -0.90263262107E+03  0.90956890033E+03  0.79191007032E+02 0.  0.
         25    2    1    2    0    0 -0.34544693371E+02  0.92907964460E+02 -0.16877646041E+03  0.23229001177E+03  0.12509168749E+03 0.  0.
        -24    2    1    2    0    0  0.11309379819E+03 -0.10425513889E+03  0.59155985655E+02  0.18398620611E+03  0.81805575755E+02 0.  0.
        -13    1    3    3    0    0 -0.54898869167E+02  0.72731742563E+01 -0.84908995854E+03  0.85089396671E+03  0.00000000000E+00 0.  1.
         14    1    3    3    0    0 -0.23650235657E+02  0.40740001776E+01 -0.53542662530E+02  0.58674933616E+02  0.00000000000E+00 0. -1.
         11    1    5    5    0    0  0.50037361861E+02 -0.46490016669E+02 -0.15986531215E+02  0.70147191050E+02  0.00000000000E+00 0. -1.
        -12    1    5    5    0    0  0.63056436333E+02 -0.57765122225E+02  0.75142516869E+02  0.11383901506E+03  0.00000000000E+00 0.  1.
          5    1    4    4  501    0 -0.29684696424E+02 -0.50126669564E+01 -0.11790101419E+03  0.12175561416E+03  0.41800000000E+01 0. -1.
         -5    1    4    4    0  501 -0.48599969468E+01  0.97920631417E+02 -0.50875446217E+02  0.11053439761E+03  0.41800000000E+01 0. -1.
</event>
<event>
11    1  0.1002087E-008  0.1620385E+03  0.7561462E-02  0.1085176E+00
         22   -1    0    0    0    0  0.00000000000E+00  0.00000000000E+00  0.12307895504E+03  0.12307895504E+03  0.00000000000E+00 0. -1.
         22   -1    0    0    0    0 -0.00000000000E+00 -0.00000000000E+00 -0.19865322162E+04  0.19865322162E+04  0.00000000000E+00 0. -1.
        -24    2    1    2    0    0 -0.93320217557E+02 -0.52771730264E+02 -0.17913153835E+04  0.17964426060E+04  0.83076561095E+02 0.  0.
         25    2    1    2    0    0 -0.80385701729E+01  0.82431107029E+02 -0.94934576814E+02  0.17753759769E+03  0.12509004238E+03 0.  0.
         24    2    1    2    0    0  0.10135878773E+03 -0.29659376765E+02  0.22796699224E+02  0.13563096747E+03  0.81992605534E+02 0.  0.
        -13    1    5    5    0    0  0.94871532292E+02  0.79973955035E+01  0.20228858102E+02  0.97333307117E+02  0.00000000000E+00 0.  1.
         14    1    5    5    0    0  0.64872554380E+01 -0.37656772268E+02  0.25678411220E+01  0.38297660357E+02  0.00000000000E+00 0. -1.
         13    1    3    3    0    0 -0.38235088422E+02 -0.54409133021E+02 -0.13594056130E+04  0.13610311886E+04  0.00000000000E+00 0. -1.
        -14    1    3    3    0    0 -0.55085129135E+02  0.16374027564E+01 -0.43190977056E+03  0.43541141745E+03  0.00000000000E+00 0.  1.
          5    1    4    4  501    0 -0.46194690305E+02  0.88323968115E+02 -0.34224794124E+02  0.10546981411E+03  0.41800000000E+01 0. -1.
         -5    1    4    4    0  501  0.38156120132E+02 -0.58928610857E+01 -0.60709782690E+02  0.72067783576E+02  0.41800000000E+01 0. -1.
</event>
<event>
11    1  0.1002087E-008  0.1708295E+03  0.7561462E-02  0.1077312E+00
         22   -1    0    0    0    0  0.00000000000E+00  0.00000000000E+00  0.99628085666E+02  0.99628085666E+02  0.00000000000E+00 0. -1.
         22   -1    0    0    0    0 -0.00000000000E+00 -0.00000000000E+00 -0.10649137031E+04  0.10649137031E+04  0.00000000000E+00 0.  1.
         24    2    1    2    0    0 -0.89265938512E+02 -0.78297211252E+02 -0.87809869843E+03  0.88990939377E+03  0.82356201172E+02 0.  0.
         25    2    1    2    0    0  0.92413014464E+02  0.41888048502E+02 -0.93248344160E+02  0.18610970730E+03  0.12508715207E+03 0.  0.
        -24    2    1    2    0    0 -0.31470759518E+01  0.36409162750E+02  0.60614251102E+01  0.88522687738E+02  0.80398968593E+02 0.  0.
        -11    1    3    3    0    0 -0.62828999638E+02 -0.78218675149E+02 -0.81955700380E+03  0.82567507339E+03  0.00000000000E+00 0.  1.
         12    1    3    3    0    0 -0.26436938874E+02 -0.78536102702E-01 -0.58541694625E+02  0.64234320378E+02  0.00000000000E+00 0. -1.
         11    1    5    5    0    0 -0.15654524906E+02 -0.30709065222E+01  0.34686259270E+02  0.38178936589E+02  0.00000000000E+00 0. -1.
        -12    1    5    5    0    0  0.12507448954E+02  0.39480069272E+02 -0.28624834160E+02  0.50343751149E+02  0.00000000000E+00 0.  1.
          5    1    4    4  501    0  0.14373793320E+02  0.66641659477E+00  0.30543003583E+02  0.34020545459E+02  0.41800000000E+01 0. -1.
         -5    1    4    4    0  501  0.78039221144E+02  0.41221631907E+02 -0.12379134774E+03  0.15208916184E+03  0.41800000000E+01 0. -1.
</event>
<event>
11    1  0.1002087E-008  0.1365024E+03  0.7561462E-02  0.1111528E+00
         22   -1    0    0    0    0  0.00000000000E+00  0.00000000000E+00  0.11918286837E+04  0.11918286837E+04  0.00000000000E+00 0. -1.
         22   -1    0    0    0    0 -0.00000000000E+00 -0.00000000000E+00 -0.24185065838E+03  0.24185065838E+03  0.00000000000E+00 0. -1.
        -24    2    1    2    0    0 -0.31898602493E+02  0.64931576142E+01 -0.21618157254E+03  0.23261158202E+03  0.79460643390E+02 0.  0.
         25    2    1    2    0    0 -0.74932680619E+01 -0.47976202385E+02  0.29216330163E+03  0.32150502796E+03  0.12509285800E+03 0.  0.
         24    2    1    2    0    0  0.39391870555E+02  0.41483044771E+02  0.87399629620E+03  0.87956273207E+03  0.80551296717E+02 0.  0.
        -11    1    5    5    0    0  0.58254742878E+02  0.32609449149E+02  0.43705820505E+03  0.44212765786E+03  0.00000000000E+00 0.  1.
         12    1    5    5    0    0 -0.18862872323E+02  0.88735956224E+01  0.43693809114E+03  0.43743507421E+03  0.00000000000E+00 0. -1.
         11    1    3    3    0    0 -0.34816218812E+02 -0.25746196867E+02 -0.17474136479E+03  0.18002661002E+03  0.00000000000E+00 0. -1.
        -12    1    3    3    0    0  0.29176163188E+01  0.32239354482E+02 -0.41440207748E+02  0.52584972003E+02  0.00000000000E+00 0.  1.
          5    1    4    4  501    0  0.40862926610E+02 -0.37140353498E+02  0.25073812044E+03  0.25678057183E+03  0.41800000000E+01 0. -1.
         -5    1    4    4    0  501 -0.48356194672E+02 -0.10835848888E+02  0.41425181188E+02  0.64724456125E+02  0.41800000000E+01 0. -1.
</event>
<event>
11    1  0.1002087E-008  0.1680845E+03  0.7561462E-02  0.1079711E+00
         22   -1    0    0    0    0  0.00000000000E+00  0.00000000000E+00  0.26121101814E+03  0.26121101814E+03  0.00000000000E+00 0. -1.
         22   -1    0    0    0    0 -0.00000000000E+00 -0.00000000000E+00 -0.64594922112E+03  0.64594922112E+03  0.00000000000E+00 0.  1.
         24    2    1    2    0    0  0.11045580825E+03 -0.24404573882E+02 -0.53897178862E+03  0.55721502001E+03  0.84864131368E+02 0.  0.
         25    2    1    2    0    0 -0.10895906335E+03 -0.82087770109E+01 -0.76205468875E+01  0.16625524220E+03  0.12507306391E+03 0.  0.
        -24    2    1    2    0    0 -0.14967448930E+01  0.32613350893E+02  0.16185413254E+03  0.18368997705E+03  0.80494574650E+02 0.  0.
        -13    1    3    3    0    0  0.22270184187E+02  0.16048213637E+00 -0.30740021668E+03  0.30820590532E+03  0.00000000000E+00 0.  1.
         14    1    3    3    0    0  0.88185624060E+02 -0.24565056018E+02 -0.23157157195E+03  0.24900911470E+03  0.00000000000E+00 0. -1.
         11    1    5    5    0    0  0.11004610068E+02  0.16338188218E+02  0.16197388367E+03  0.16316732770E+03  0.00000000000E+00 0. -1.
        -12    1    5    5    0    0 -0.12501354961E+02  0.16275162675E+02 -0.11975113821E+00  0.20522649348E+02  0.00000000000E+00 0.  1.
          5    1    4    4  501    0  0.87086650076E+01  0.22881251691E+02  0.29861093936E+02  0.38840054792E+02  0.41800000000E+01 0.  1.
         -5    1    4    4    0  501 -0.11766772836E+03 -0.31090028702E+02 -0.37481640824E+02  0.12741518740E+03  0.41800000000E+01 0.  1.
</event>
<event>
11    1  0.1002087E-008  0.1750953E+03  0.7561462E-02  0.1073681E+00
         22   -1    0    0    0    0  0.00000000000E+00  0.00000000000E+00  0.22784918133E+04  0.22784918133E+04  0.00000000000E+00 0. -1.
         22   -1    0    0    0    0 -0.00000000000E+00 -0.00000000000E+00 -0.62248202151E+02  0.62248202151E+02  0.00000000000E+00 0.  1.
         24    2    1    2    0    0  0.90956194608E+02  0.56751546186E+02  0.85499869236E+02  0.15888432212E+03  0.80251061333E+02 0.  0.
         25    2    1    2    0    0 -0.17663094046E+03 -0.86152879826E+02  0.56136580187E+03  0.60778306992E+03  0.12509152147E+03 0.  0.
        -24    2    1    2    0    0  0.85674745851E+02  0.29401333641E+02  0.15693779401E+04  0.15740726234E+04  0.80950012786E+02 0.  0.
        -11    1    3    3    0    0  0.50421049328E+02 -0.38174098250E+01  0.58184300871E+01  0.50899007473E+02  0.00000000000E+00 0.  1.
         12    1    3    3    0    0  0.40535145280E+02  0.60568956011E+02  0.79681439148E+02  0.10798531465E+03  0.00000000000E+00 0. -1.
         11    1    5    5    0    0  0.98405876846E+02  0.12472137395E+02  0.13652077410E+04  0.13688065776E+04  0.00000000000E+00 0. -1.
        -12    1    5    5    0    0 -0.12731130995E+02  0.16929196246E+02  0.20417019908E+03  0.20526604584E+03  0.00000000000E+00 0.  1.
          5    1    4    4  501    0  0.82027504602E+00  0.15728795552E+02  0.87706148914E+01  0.18505781428E+02  0.41800000000E+01 0. -1.
         -5    1    4    4    0  501 -0.17745121550E+03 -0.10188167538E+03  0.55259518698E+03  0.58927728850E+03  0.41800000000E+01 0. -1.
</event>
<event>
11    1  0.1002087E-008  0.1369623E+03  0.7561462E-02  0.1110999E+00
         22   -1    0    0    0    0  0.00000000000E+00  0.00000000000E+00  0.27524496028E+04  0.27524496028E+04  0.00000000000E+00 0. -1.
         22   -1    0    0    0    0 -0.00000000000E+00 -0.00000000000E+00 -0.43320584079E+03  0.43320584079E+03  0.00000000000E+00 0. -1.
         24    2    1    2    0    0 -0.50458353768E+02  0.23869520705E+02 -0.41716845050E+03  0.43246679887E+03  0.99409338343E+02 0.  0.
         25    2    1    2    0    0  0.28701681670E+02 -0.65362211395E+02  0.69878035750E+03  0.71346682488E+03  0.12507964252E+03 0.  0.
        -24    2    1    2    0    0  0.21756672098E+02  0.41492690690E+02  0.20376318551E+04  0.20397218199E+04  0.79539484205E+02 0.  0.
        -11    1    3    3    0    0 -0.53391343723E+02  0.67716312717E+00 -0.91349793601E+02  0.10581058040E+03  0.00000000000E+00 0.  1.
         12    1    3    3    0    0  0.29329899547E+01  0.23192357578E+02 -0.32581865690E+03  0.32665621847E+03  0.00000000000E+00 0. -1.
         11    1    5    5    0    0  0.13955934542E+02  0.14567041968E+02  0.18401150491E+04  0.18402256277E+04  0.00000000000E+00 0. -1.
        -12    1    5    5    0    0  0.78007375559E+01  0.26925648722E+02  0.19751680598E+03  0.19949619222E+03  0.00000000000E+00 0.  1.
          5    1    4    4  501    0  0.43836582791E+02  0.11807635529E+02  0.45508630101E+03  0.45736427497E+03  0.41800000000E+01 0.  1.
         -5    1    4    4    0  501 -0.15134901121E+02 -0.77169846924E+02  0.24369405649E+03  0.25610254991E+03  0.41800000000E+01 0.  1.
</event>
<event>
11    1  0.1002087E-008  0.1803831E+03  0.7561462E-02  0.1069333E+00
         22   -1    0    0    0    0  0.00000000000E+00  0.00000000000E+00  0.10619410849E+04  0.10619410849E+04  0.00000000000E+00 0. -1.
         22   -1    0    0    0    0 -0.00000000000E+00 -0.00000000000E+00 -0.89252864387E+02  0.89252864387E+02  0.00000000000E+00 0. -1.
        -24    2    1    2    0    0 -0.81043693589E+02 -0.91726441970E+02  0.40566710163E+02  0.15269736584E+03  0.81786350535E+02 0.  0.
         25    2    1    2    0    0  0.83338841690E+02  0.13423657114E+03  0.30950659288E+03  0.36934501700E+03  0.12512630011E+03 0.  0.
         24    2    1    2    0    0 -0.22951481012E+01 -0.42510129167E+02  0.62261491750E+03  0.62915156648E+03  0.79812150218E+02 0.  0.
        -11    1    5    5    0    0  0.22932897754E+01  0.22725458931E+02  0.10733852983E+03  0.10974181358E+03  0.00000000000E+00 0.  1.
         12    1    5    5    0    0 -0.45884378766E+01 -0.65235588098E+02  0.51527638767E+03  0.51940975290E+03  0.00000000000E+00 0. -1.
         13    1    3    3    0    0 -0.83105674280E+02 -0.65860182405E+02  0.18069523441E+01  0.10605367415E+03  0.00000000000E+00 0. -1.
        -14    1    3    3    0    0  0.20619806911E+01 -0.25866259566E+02  0.38759757819E+02  0.46643691690E+02  0.00000000000E+00 0.  1.
          5    1    4    4  501    0 -0.99826979431E+01 -0.19058213599E+02  0.29914330469E+02  0.37083814950E+02  0.41800000000E+01 0. -1.
         -5    1    4    4    0  501  0.93321539633E+02  0.15329478474E+03  0.27959226241E+03  0.33226120205E+03  0.41800000000E+01 0. -1.
</event>
<event>
11    1  0.1002087E-008  0.1377866E+03  0.7561462E-02  0.1110056E+00
         22   -1    0    0    0    0  0.00000000000E+00  0.00000000000E+00  0.12007927130E+04  0.12007927130E+04  0.00000000000E+00 0. -1.
         22   -1    0    0    0    0 -0.00000000000E+00 -0.00000000000E+00 -0.17308403928E+03  0.17308403928E+03  0.00000000000E+00 0.  1.
        -24    2    1    2    0    0  0.73760051795E+01  0.58516730785E+02 -0.13167899375E+03  0.17466138805E+03  0.98430837872E+02 0.  0.
         25    2    1    2    0    0 -0.97329088334E+00 -0.44363986737E+02  0.22451385912E+03  0.26081209494E+03  0.12508942927E+03 0.  0.
         24    2    1    2    0    0 -0.64027142961E+01 -0.14152744048E+02  0.93487380831E+03  0.93840326925E+03  0.79814556108E+02 0.  0.
        -13    1    5    5    0    0  0.17574270288E+02  0.12794237153E+02  0.84062242262E+02  0.86827461408E+02  0.00000000000E+00 0.  1.
         14    1    5    5    0    0 -0.23976984584E+02 -0.26946981201E+02  0.85081156605E+03  0.85157580784E+03  0.00000000000E+00 0. -1.
         11    1    3    3    0    0  0.66177571940E+01 -0.21395368967E+02 -0.70629793029E+02  0.74095372237E+02  0.00000000000E+00 0. -1.
        -12    1    3    3    0    0  0.75824798546E+00  0.79912099752E+02 -0.61049200723E+02  0.10056601581E+03  0.00000000000E+00 0.  1.
          5    1    4    4  501    0  0.20980663766E+02 -0.83676997751E+02  0.16295628343E+03  0.18442952831E+03  0.41800000000E+01 0. -1.
         -5    1    4    4    0  501 -0.21953954650E+02  0.39313011013E+02  0.61557575695E+02  0.76382566631E+02  0.41800000000E+01 0. -1.
</event>
<event>
11    1  0.1002087E-008  0.1913461E+03  0.7561462E-02  0.1060818E+00
         22   -1    0    0    0    0  0.00000000000E+00  0.00000000000E+00  0.51413621496E+03  0.51413621496E+03  0.00000000000E+00 0.  1.
         22   -1    0    0    0    0 -0.00000000000E+00 -0.00000000000E+00 -0.45103484201E+03  0.45103484201E+03  0.00000000000E+00 0. -1.
         24    2    1    2    0    0 -0.59896261983E+02 -0.13232833293E+03 -0.32464954835E+03  0.36470630378E+03  0.80715604916E+02 0.  0.
         25    2    1    2    0    0  0.50223711157E+02  0.13390864028E+03 -0.14081404458E+02  0.19052798188E+03  0.12509468743E+03 0.  0.
        -24    2    1    2    0    0  0.96725508254E+01 -0.15803073473E+01  0.40183232576E+03  0.40993677132E+03  0.80516351391E+02 0.  0.
        -13    1    3    3    0    0 -0.49525195590E+02 -0.79344079365E+02 -0.11508918932E+03  0.14830289757E+03  0.00000000000E+00 0.  1.
         14    1    3    3    0    0 -0.10371066393E+02 -0.52984253565E+02 -0.20956035902E+03  0.21640340621E+03  0.00000000000E+00 0. -1.
         13    1    5    5    0    0  0.38581271293E+02 -0.19805068278E+02  0.16294257485E+03  0.16861505841E+03  0.00000000000E+00 0. -1.
        -14    1    5    5    0    0 -0.28908720468E+02  0.18224760931E+02  0.23888975091E+03  0.24132171291E+03  0.00000000000E+00 0.  1.
          5    1    4    4  501    0  0.25977379904E+02 -0.19307620974E+02  0.84748823091E+01  0.33718014837E+02  0.41800000000E+01 0. -1.
         -5    1    4    4    0  501  0.24246331253E+02  0.15321626125E+03 -0.22556286767E+02  0.15680996704E+03  0.41800000000E+01 0. -1.
</event>
<event>
11    1  0.1002087E-008  0.1331928E+03  0.7561462E-02  0.1115407E+00
         22   -1    0    0    0    0  0.00000000000E+00  0.00000000000E+00  0.16554484259E+04  0.16554484259E+04  0.00000000000E+00 0.  1.
         22   -1    0    0    0    0 -0.00000000000E+00 -0.00000000000E+00 -0.70777667607E+03  0.70777667607E+03  0.00000000000E+00 0.  1.
         24    2    1    2    0    0 -0.33592359612E+02 -0.54599953207E+01 -0.49125666062E+03  0.49878789594E+03  0.79359941797E+02 0.  0.
         25    2    1    2    0    0  0.56459187976E+02  0.45017614835E+02 -0.18681414001E+03  0.23612378114E+03  0.12506275049E+03 0.  0.
        -24    2    1    2    0    0 -0.22866828364E+02 -0.39557619514E+02  0.16257425505E+04  0.16283134249E+04  0.79234286403E+02 0.  0.
        -13    1    3    3    0    0  0.12695325486E+02 -0.24390199373E+01 -0.34733992337E+03  0.34758041152E+03  0.00000000000E+00 0.  1.
         14    1    3    3    0    0 -0.46287685098E+02 -0.30209753834E+01 -0.14391673726E+03  0.15120748443E+03  0.00000000000E+00 0. -1.
         13    1    5    5    0    0 -0.43227494958E+01 -0.23331607664E+00  0.37186091256E+01  0.57068952526E+01  0.00000000000E+00 0. -1.
        -14    1    5    5    0    0 -0.18544078868E+02 -0.39324303437E+02  0.16220239414E+04  0.16226065297E+04  0.00000000000E+00 0.  1.
          5    1    4    4  501    0  0.39964422982E+02  0.69219204726E+02 -0.46164612849E+02  0.92396413820E+02  0.41800000000E+01 0. -1.
         -5    1    4    4    0  501  0.16494764994E+02 -0.24201589892E+02 -0.14064952717E+03  0.14372736732E+03  0.41800000000E+01 0. -1.
</event>
<event>
11    1  0.1002087E-008  0.1318110E+03  0.7561462E-02  0.1117064E+00
         22   -1    0    0    0    0  0.00000000000E+00  0.00000000000E+00  0.14737829862E+04  0.14737829862E+04  0.00000000000E+00 0. -1.
         22   -1    0    0    0    0 -0.00000000000E+00 -0.00000000000E+00 -0.20331896849E+03  0.20331896849E+03  0.00000000000E+00 0.  1.
         24    2    1    2    0    0 -0.15876324095E+02 -0.29673333947E+02 -0.11861985237E+03  0.14696653196E+03  0.79974544243E+02 0.  0.
         25    2    1    2    0    0 -0.20187043229E+02  0.78189497041E+01 -0.10627729807E+02  0.12739494390E+03  0.12509144815E+03 0.  0.
        -24    2    1    2    0    0  0.36063367323E+02  0.21854384243E+02  0.13997115999E+04  0.14027404789E+04  0.81915246094E+02 0.  0.
        -11    1    3    3    0    0 -0.22912798526E+02  0.18308684306E+02 -0.79247769330E+02  0.84500965681E+02  0.00000000000E+00 0.  1.
         12    1    3    3    0    0  0.70364744310E+01 -0.47982018253E+02 -0.39372083038E+02  0.62465566281E+02  0.00000000000E+00 0. -1.
         13    1    5    5    0    0  0.27837672671E+02  0.73007128099E+01  0.13497388672E+04  0.13500456459E+04  0.00000000000E+00 0. -1.
        -14    1    5    5    0    0  0.82256946519E+01  0.14553671433E+02  0.49972732708E+02  0.52694832944E+02  0.00000000000E+00 0.  1.
          5    1    4    4  501    0 -0.60651345938E+02  0.24280348954E+02 -0.37980572574E+02  0.75684327324E+02  0.41800000000E+01 0. -1.
         -5    1    4    4    0  501  0.40464302709E+02 -0.16461399250E+02  0.27352842767E+02  0.51710616574E+02  0.41800000000E+01 0. -1.
</event>
<event>
11    1  0.1002087E-008  0.2251818E+03  0.7561462E-02  0.1038019E+00
         22   -1    0    0    0    0  0.00000000000E+00  0.00000000000E+00  0.86671400832E+03  0.86671400832E+03  0.00000000000E+00 0. -1.
         22   -1    0    0    0    0 -0.00000000000E+00 -0.00000000000E+00 -0.11490058271E+04  0.11490058271E+04  0.00000000000E+00 0. -1.
         24    2    1    2    0    0 -0.10240049729E+03  0.21120826806E+02 -0.86454360238E+03  0.87448822222E+03  0.79762517565E+02 0.  0.
         25    2    1    2    0    0  0.11134298220E+03  0.16660779464E+03 -0.21393998939E+03  0.31870616162E+03  0.12509149242E+03 0.  0.
        -24    2    1    2    0    0 -0.89424849050E+01 -0.18772862145E+03  0.79619177295E+03  0.82252545163E+03  0.85467981746E+02 0.  0.
        -11    1    3    3    0    0  0.60888296589E+01 -0.14770344991E+02 -0.72170127424E+02  0.73917279646E+02  0.00000000000E+00 0.  1.
         12    1    3    3    0    0 -0.10848932695E+03  0.35891171797E+02 -0.79237347496E+03  0.80057094257E+03  0.00000000000E+00 0. -1.
         11    1    5    5    0    0  0.97326721465E+01 -0.17228624791E+03  0.75722475481E+03  0.77663801441E+03  0.00000000000E+00 0. -1.
        -12    1    5    5    0    0 -0.18675157051E+02 -0.15442373533E+02  0.38967018146E+02  0.45887437218E+02  0.00000000000E+00 0.  1.
          5    1    4    4  501    0  0.12954810096E+03  0.10112254884E+03 -0.17565833429E+03  0.24058637358E+03  0.41800000000E+01 0.  1.
         -5    1    4    4    0  501 -0.18205118765E+02  0.65485245801E+02 -0.38281655102E+02  0.78119788045E+02  0.41800000000E+01 0.  1.
</event>
<event>
11    1  0.1002087E-008  0.1344085E+03  0.7561462E-02  0.1113968E+00
         22   -1    0    0    0    0  0.00000000000E+00  0.00000000000E+00  0.82734140108E+02  0.82734140108E+02  0.00000000000E+00 0.  1.
         22   -1    0    0    0    0 -0.00000000000E+00 -0.00000000000E+00 -0.15365143645E+04  0.15365143645E+04  0.00000000000E+00 0. -1.
        -24    2    1    2    0    0 -0.30614637840E+02  0.41006240734E+02 -0.13178364058E+04  0.13211487181E+04  0.78245607442E+02 0.  0.
         25    2    1    2    0    0  0.37073848797E+02  0.27796811278E+01 -0.15703291593E+03  0.20418062797E+03  0.12509274664E+03 0.  0.
         24    2    1    2    0    0 -0.64592109574E+01 -0.43785921862E+02  0.21089097292E+02  0.93919158571E+02  0.80106990722E+02 0.  0.
        -11    1    5    5    0    0 -0.14684544519E+02 -0.66109982387E+02  0.16163716004E+02  0.69623496996E+02  0.00000000000E+00 0.  1.
         12    1    5    5    0    0  0.82253335621E+01  0.22324060524E+02  0.49253812874E+01  0.24295661574E+02  0.00000000000E+00 0. -1.
         13    1    3    3    0    0  0.16256084609E+02  0.39086773773E+02 -0.82482494970E+03  0.82591054831E+03  0.00000000000E+00 0. -1.
        -14    1    3    3    0    0 -0.46870722449E+02  0.19194669616E+01 -0.49301145607E+03  0.49523816977E+03  0.00000000000E+00 0.  1.
          5    1    4    4  501    0  0.26680566433E+02  0.31820214917E+00 -0.17813080713E+03  0.18016661935E+03  0.41800000000E+01 0.  1.
         -5    1    4    4    0  501  0.10393282364E+02  0.24614789786E+01  0.21097891203E+02  0.24014008625E+02  0.41800000000E+01 0.  1.
</event>
<event>
11    1  0.1002087E-008  0.1637561E+03  0.7561462E-02  0.1083597E+00
         22   -1    0    0    0    0  0.00000000000E+00  0.00000000000E+00  0.82560260754E+03  0.82560260754E+03  0.00000000000E+00 0. -1.
         22   -1    0    0    0    0 -0.00000000000E+00 -0.00000000000E+00 -0.15143588495E+04  0.15143588495E+04  0.00000000000E+00 0. -1.
         24    2    1    2    0    0  0.10286661833E+03 -0.25579151361E+02 -0.14936303491E+04  0.14998957859E+04  0.86717441487E+02 0.  0.
         25    2    1    2    0    0 -0.60641609352E+02  0.35311453120E+02  0.36376333771E+03  0.39101864427E+03  0.12509001078E+03 0.  0.
        -24    2    1    2    0    0 -0.42225008980E+02 -0.97323017586E+01  0.44111076945E+03  0.44904702685E+03  0.72019804980E+02 0.  0.
        -11    1    3    3    0    0  0.25985975239E+02 -0.27132445075E+02 -0.17317588285E+03  0.17720419545E+03  0.00000000000E+00 0.  1.
         12    1    3    3    0    0  0.76880643092E+02  0.15532937137E+01 -0.13204544663E+04  0.13226915905E+04  0.00000000000E+00 0. -1.
         13    1    5    5    0    0 -0.60014409075E+02 -0.13859809949E+02  0.38860518767E+03  0.39345624346E+03  0.00000000000E+00 0. -1.
        -14    1    5    5    0    0  0.17789400096E+02  0.41275081900E+01  0.52505581781E+02  0.55590783389E+02  0.00000000000E+00 0.  1.
          5    1    4    4  501    0 -0.15043127171E+02  0.48778474180E+02  0.43435983494E+02  0.67154987011E+02  0.41800000000E+01 0.  1.
         -5    1    4    4    0  501 -0.45598482181E+02 -0.13467021060E+02  0.32032735422E+03  0.32386365726E+03  0.41800000000E+01 0.  1.
</event>
<event>
11    1  0.1002087E-008  0.1313385E+03  0.7561462E-02  0.1117635E+00
         22   -1    0    0    0    0  0.00000000000E+00  0.00000000000E+00  0.17687641818E+04  0.17687641818E+04  0.00000000000E+00 0.  1.
         22   -1    0    0    0    0 -0.00000000000E+00 -0.00000000000E+00 -0.56708366199E+03  0.56708366199E+03  0.00000000000E+00 0.  1.
         24    2    1    2    0    0 -0.20174578370E+02 -0.34378345534E+02 -0.55047280661E+03  0.55772097712E+03  0.80271372516E+02 0.  0.
         25    2    1    2    0    0  0.31814924945E+02  0.48573398212E+02  0.39302964152E+03  0.41652360920E+03  0.12509217979E+03 0.  0.
        -24    2    1    2    0    0 -0.11640346575E+02 -0.14195052679E+02  0.13591236849E+04  0.13616032575E+04  0.80057745968E+02 0.  0.
        -11    1    3    3    0    0  0.47193213508E+01  0.24191989888E+02 -0.11410400671E+03  0.11673580734E+03  0.00000000000E+00 0.  1.
         12    1    3    3    0    0 -0.24893899721E+02 -0.58570335422E+02 -0.43636879990E+03  0.44098516978E+03  0.00000000000E+00 0. -1.
         11    1    5    5    0    0 -0.17344108958E+02  0.25452738429E+02  0.27137230778E+03  0.27311460861E+03  0.00000000000E+00 0. -1.
        -12    1    5    5    0    0  0.57037623833E+01 -0.39647791108E+02  0.10877513771E+04  0.10884886488E+04  0.00000000000E+00 0.  1.
          5    1    4    4  501    0 -0.10096190335E+02  0.57581579179E+02  0.73037485540E+02  0.93645704728E+02  0.41800000000E+01 0.  1.
         -5    1    4    4    0  501  0.41911115280E+02 -0.90081809667E+01  0.31999215598E+03  0.32287790448E+03  0.41800000000E+01 0.  1.
</event>
<event>
11    1  0.1002087E-008  0.1383200E+03  0.7561462E-02  0.1109449E+00
         22   -1    0    0    0    0  0.00000000000E+00  0.00000000000E+00  0.96429905735E+03  0.96429905735E+03  0.00000000000E+00 0. -1.
         22   -1    0    0    0    0 -0.00000000000E+00 -0.00000000000E+00 -0.11753966179E+04  0.11753966179E+04  0.00000000000E+00 0. -1.
         24    2    1    2    0    0  0.99635054055E+00  0.55679054727E+02 -0.83508379531E+03  0.84096984612E+03  0.82244677911E+02 0.  0.
         25    2    1    2    0    0 -0.10730037262E+01 -0.77354013108E+02 -0.31968215778E+03  0.35189286319E+03  0.12508841064E+03 0.  0.
        -24    2    1    2    0    0  0.76653185683E-01  0.21674958381E+02  0.94366839255E+03  0.94683296593E+03  0.74248370926E+02 0.  0.
        -11    1    3    3    0    0  0.18683920228E+02 -0.50658205968E+00 -0.45464579829E+02  0.49156622336E+02  0.00000000000E+00 0.  1.
         12    1    3    3    0    0 -0.17687569688E+02  0.56185636787E+02 -0.78961921548E+03  0.79181322378E+03  0.00000000000E+00 0. -1.
         13    1    5    5    0    0  0.19205385057E+02 -0.77991282537E+01  0.73003751257E+03  0.73033173488E+03  0.00000000000E+00 0. -1.
        -14    1    5    5    0    0 -0.19128731871E+02  0.29474086635E+02  0.21363087998E+03  0.21650123105E+03  0.00000000000E+00 0.  1.
          5    1    4    4  501    0 -0.26221875849E+02 -0.58185690170E+02 -0.31278819195E+03  0.31926021790E+03  0.41800000000E+01 0.  1.
         -5    1    4    4    0  501  0.25148872123E+02 -0.19168322938E+02 -0.68939658377E+01  0.32632645285E+02  0.41800000000E+01 0.  1.
</event>
<event>
11    1  0.1002087E-008  0.1289960E+03  0.7561462E-02  0.1120509E+00
         22   -1    0    0    0    0  0.00000000000E+00  0.00000000000E+00  0.58187674170E+02  0.58187674170E+02  0.00000000000E+00 0.  1.
         22   -1    0    0    0    0 -0.00000000000E+00 -0.00000000000E+00 -0.16617185376E+04  0.16617185376E+04  0.00000000000E+00 0.  1.
         24    2    1    2    0    0  0.18850845224E+02  0.12213052672E+02 -0.13602603753E+04  0.13627579015E+04  0.79349204710E+02 0.  0.
         25    2    1    2    0    0 -0.90998520007E+00  0.18346450175E+02 -0.22382515355E+03  0.25706535741E+03  0.12508988093E+03 0.  0.
        -24    2    1    2    0    0 -0.17940860023E+02 -0.30559502847E+02 -0.19445334552E+02  0.10008295290E+03  0.91557188428E+02 0.  0.
        -13    1    3    3    0    0 -0.13156512089E+02 -0.74303133447E+01 -0.10664679468E+04  0.10665749786E+04  0.00000000000E+00 0.  1.
         14    1    3    3    0    0  0.32007357312E+02  0.19643366017E+02 -0.29379242855E+03  0.29618292291E+03  0.00000000000E+00 0. -1.
         11    1    5    5    0    0 -0.12406342228E+02 -0.45646312458E+02 -0.47953431643E+02  0.67357514612E+02  0.00000000000E+00 0. -1.
        -12    1    5    5    0    0 -0.55345177958E+01  0.15086809611E+02  0.28508097090E+02  0.32725438288E+02  0.00000000000E+00 0.  1.
          5    1    4    4  501    0  0.31579543801E+02 -0.11536984251E+02 -0.55491357940E+01  0.34331252531E+02  0.41800000000E+01 0. -1.
         -5    1    4    4    0  501 -0.32489529001E+02  0.29883434426E+02 -0.21827601776E+03  0.22273410488E+03  0.41800000000E+01 0. -1.
</event>
<event>
11    1  0.1002087E-008  0.1466638E+03  0.7561462E-02  0.1100337E+00
         22   -1    0    0    0    0  0.00000000000E+00  0.00000000000E+00  0.32007668762E+03  0.32007668762E+03  0.00000000000E+00 0. -1.
         22   -1    0    0    0    0 -0.00000000000E+00 -0.00000000000E+00 -0.15084203846E+03  0.15084203846E+03  0.00000000000E+00 0. -1.
         24    2    1    2    0    0 -0.34855481268E+02 -0.87506564790E+02 -0.40205465098E+02  0.13026669859E+03  0.80502359475E+02 0.  0.
         25    2    1    2    0    0  0.72622389331E+01  0.45595137614E+02  0.24290733043E+02  0.13553405471E+03  0.12509110115E+03 0.  0.
        -24    2    1    2    0    0  0.27593242334E+02  0.41911427176E+02  0.18514938121E+03  0.20511797279E+03  0.72630122174E+02 0.  0.
        -13    1    3    3    0    0 -0.36546441470E+02 -0.52954845210E+02  0.14109950361E+02  0.65870696934E+02  0.00000000000E+00 0.  1.
         14    1    3    3    0    0  0.16909602026E+01 -0.34551719579E+02 -0.54315415459E+02  0.64396001652E+02  0.00000000000E+00 0. -1.
         13    1    5    5    0    0  0.41128225776E+02  0.96986387346E+01  0.14886092711E+03  0.15474227014E+03  0.00000000000E+00 0. -1.
        -14    1    5    5    0    0 -0.13534983442E+02  0.32212788442E+02  0.36288454103E+02  0.50375702647E+02  0.00000000000E+00 0.  1.
          5    1    4    4  501    0  0.59410339424E+02  0.46541479257E+02  0.33026554014E+02  0.82485898140E+02  0.41800000000E+01 0. -1.
         -5    1    4    4    0  501 -0.52148100491E+02 -0.94634164365E+00 -0.87358209708E+01  0.53048156569E+02  0.41800000000E+01 0. -1.
</event>
<event>
11    1  0.1002087E-008  0.1703691E+03  0.7561462E-02  0.1077711E+00
         22   -1    0    0    0    0  0.00000000000E+00  0.00000000000E+00  0.16471541289E+04  0.16471541289E+04  0.00000000000E+00 0. -1.
         22   -1    0    0    0    0 -0.00000000000E+00 -0.00000000000E+00 -0.57382782278E+03  0.57382782278E+03  0.00000000000E+00 0. -1.
         24    2    1    2    0    0  0.50403230253E+02 -0.10557431369E+03 -0.52011766125E+03  0.53923221699E+03  0.81009758497E+02 0.  0.
         25    2    1    2    0    0 -0.35415857252E+02  0.89210944365E+02  0.10147581247E+03  0.18749835166E+03  0.12508163662E+03 0.  0.
        -24    2    1    2    0    0 -0.14987373001E+02  0.16363369328E+02  0.14919681549E+04  0.14942513830E+04  0.79535144894E+02 0.  0.
        -13    1    3    3    0    0  0.59059905059E+01 -0.40592816282E+01  0.26991662125E+00  0.71715651134E+01  0.00000000000E+00 0.  1.
         14    1    3    3    0    0  0.44497239747E+02 -0.10151503206E+03 -0.52038757787E+03  0.53206065188E+03  0.00000000000E+00 0. -1.
         13    1    5    5    0    0 -0.29905800692E+02  0.93706541897E+01  0.14229069200E+04  0.14232520047E+04  0.00000000000E+00 0. -1.
        -14    1    5    5    0    0  0.14918427691E+02  0.69927151382E+01  0.69061234882E+02  0.70999378259E+02  0.00000000000E+00 0.  1.
          5    1    4    4  501    0 -0.18517916832E+02 -0.28907306884E+02  0.41076111658E+02  0.53696042536E+02  0.41800000000E+01 0. -1.
         -5    1    4    4    0  501 -0.16897940420E+02  0.11811825125E+03  0.60399700815E+02  0.13380230912E+03  0.41800000000E+01 0. -1.
</event>
<event>
11    1  0.1002087E-008  0.2570864E+03  0.7561462E-02  0.1020190E+00
         22   -1    0    0    0    0  0.00000000000E+00  0.00000000000E+00  0.45774263965E+03  0.45774263965E+03  0.00000000000E+00 0. -1.
         22   -1    0    0    0    0 -0.00000000000E+00 -0.00000000000E+00 -0.51065391287E+03  0.51065391287E+03  0.00000000000E+00 0. -1.
         24    2    1    2    0    0  0.83166252159E+01 -0.24266814867E+01 -0.36803573022E+03  0.37701095063E+03  0.81313609807E+02 0.  0.
         25    2    1    2    0    0  0.14897841530E+03  0.16536788997E+03  0.15033893724E+03  0.29629230931E+03  0.12508488816E+03 0.  0.
        -24    2    1    2    0    0 -0.15729504051E+03 -0.16294120849E+03  0.16478551976E+03  0.29509329258E+03  0.92920485429E+02 0.  0.
        -13    1    3    3    0    0 -0.52889515940E+01 -0.38594021533E+02 -0.12520792723E+03  0.13112778709E+03  0.00000000000E+00 0.  1.
         14    1    3    3    0    0  0.13605576810E+02  0.36167340046E+02 -0.24282780299E+03  0.24588316353E+03  0.00000000000E+00 0. -1.
         11    1    5    5    0    0 -0.72933057446E+02 -0.12808762310E+03  0.13272837734E+03  0.19834941949E+03  0.00000000000E+00 0. -1.
        -12    1    5    5    0    0 -0.84361983068E+02 -0.34853585385E+02  0.32057142419E+02  0.96743873095E+02  0.00000000000E+00 0.  1.
          5    1    4    4  501    0  0.12565832919E+03  0.18076780143E+03  0.10764850937E+03  0.24509730251E+03  0.41800000000E+01 0.  1.
         -5    1    4    4    0  501  0.23320086109E+02 -0.15399911457E+02  0.42690427873E+02  0.51195006797E+02  0.41800000000E+01 0.  1.
</event>
<event>
11    1  0.1002087E-008  0.1285182E+03  0.7561462E-02  0.1121103E+00
         22   -1    0    0    0    0  0.00000000000E+00  0.00000000000E+00  0.43084602098E+03  0.43084602098E+03  0.00000000000E+00 0. -1.
         22   -1    0    0    0    0 -0.00000000000E+00 -0.00000000000E+00 -0.24172639841E+03  0.24172639841E+03  0.00000000000E+00 0.  1.
        -24    2    1    2    0    0  0.20564828732E+02  0.19446101653E+02 -0.19752899689E+03  0.21569531708E+03  0.81888351699E+02 0.  0.
         25    2    1    2    0    0 -0.22371344715E+02 -0.50185640956E+02  0.13859035977E+03  0.19461252041E+03  0.12509064575E+03 0.  0.
         24    2    1    2    0    0  0.18065159831E+01  0.30739539303E+02  0.24805825970E+03  0.26226458190E+03  0.79382793731E+02 0.  0.
        -11    1    5    5    0    0 -0.66943849507E+01  0.35205293960E+02  0.38918209706E+02  0.52904201717E+02  0.00000000000E+00 0.  1.
         12    1    5    5    0    0  0.85009009338E+01 -0.44657546565E+01  0.20914004999E+03  0.20936038019E+03  0.00000000000E+00 0. -1.
         11    1    3    3    0    0  0.26107607828E+02  0.33377666065E+02 -0.42755460103E+02  0.60197218766E+02  0.00000000000E+00 0. -1.
        -12    1    3    3    0    0 -0.55427790966E+01 -0.13931564412E+02 -0.15477353679E+03  0.15549809831E+03  0.00000000000E+00 0.  1.
          5    1    4    4  501    0 -0.41453609529E+02 -0.85174127763E+02  0.11087411750E+03  0.14588891704E+03  0.41800000000E+01 0.  1.
         -5    1    4    4    0  501  0.19082264814E+02  0.34988486807E+02  0.27716242270E+02  0.48723603366E+02  0.41800000000E+01 0.  1.
</event>
<event>
11    1  0.1002087E-008  0.2681231E+03  0.7561462E-02  0.1014664E+00
         22   -1    0    0    0    0  0.00000000000E+00  0.00000000000E+00  0.31602219771E+04  0.31602219771E+04  0.00000000000E+00 0. -1.
         22   -1    0    0    0    0 -0.00000000000E+00 -0.00000000000E+00 -0.99353288463E+02  0.99353288463E+02  0.00000000000E+00 0.  1.
         24    2    1    2    0    0  0.18928359214E+02  0.18480943339E+02 -0.81325370890E+01  0.84987851896E+02  0.80355265920E+02 0.  0.
         25    2    1    2    0    0  0.22002994414E+03 -0.55548741517E+01  0.29340471119E+03  0.38752794319E+03  0.12509016451E+03 0.  0.
        -24    2    1    2    0    0 -0.23895830335E+03 -0.12926069187E+02  0.27755965146E+04  0.27870594705E+04  0.80599792191E+02 0.  0.
        -13    1    3    3    0    0 -0.19631342672E+02  0.36599308058E+02  0.41795840577E+00  0.41534006003E+02  0.00000000000E+00 0.  1.
         14    1    3    3    0    0  0.38559701886E+02 -0.18118364720E+02 -0.85504954948E+01  0.43453845893E+02  0.00000000000E+00 0. -1.
         11    1    5    5    0    0 -0.74512548808E+02 -0.23555339548E+02  0.57256842799E+03  0.57787678504E+03  0.00000000000E+00 0. -1.
        -12    1    5    5    0    0 -0.16444575455E+03  0.10629270361E+02  0.22030280866E+04  0.22091826855E+04  0.00000000000E+00 0.  1.
          5    1    4    4  501    0  0.22978913583E+03 -0.20141487200E+02  0.28733373576E+03  0.36849270625E+03  0.41800000000E+01 0.  1.
         -5    1    4    4    0  501 -0.97591916887E+01  0.14586613048E+02  0.60709754295E+01  0.19035236938E+02  0.41800000000E+01 0.  1.
</event>
<event>
11    1  0.1002087E-008  0.1422667E+03  0.7561462E-02  0.1105053E+00
         22   -1    0    0    0    0  0.00000000000E+00  0.00000000000E+00  0.18067016156E+04  0.18067016156E+04  0.00000000000E+00 0.  1.
         22   -1    0    0    0    0 -0.00000000000E+00 -0.00000000000E+00 -0.17385562357E+04  0.17385562357E+04  0.00000000000E+00 0.  1.
         24    2    1    2    0    0  0.10519093770E+02 -0.57363525853E+02 -0.16928377203E+04  0.16959436938E+04  0.84405213851E+02 0.  0.
         25    2    1    2    0    0 -0.65033552190E+02  0.15436537636E+02  0.75954535323E+02  0.16088186182E+03  0.12508490085E+03 0.  0.
        -24    2    1    2    0    0  0.54514458420E+02  0.41926988217E+02  0.16850285649E+04  0.16884322956E+04  0.82174532944E+02 0.  0.
        -13    1    3    3    0    0 -0.36256017920E+02 -0.24791879991E+02 -0.89157731340E+03  0.89265852481E+03  0.00000000000E+00 0.  1.
         14    1    3    3    0    0  0.46775111690E+02 -0.32571645862E+02 -0.80126040686E+03  0.80328516904E+03  0.00000000000E+00 0. -1.
         13    1    5    5    0    0 -0.49121166691E+01 -0.20361264275E+02  0.29903170903E+03  0.29976436242E+03  0.00000000000E+00 0. -1.
        -14    1    5    5    0    0  0.59426575089E+02  0.62288252492E+02  0.13859968559E+04  0.13886679332E+04  0.00000000000E+00 0.  1.
          5    1    4    4  501    0 -0.85941260603E+01 -0.18110071381E+02  0.91098801874E+02  0.93371825467E+02  0.41800000000E+01 0. -1.
         -5    1    4    4    0  501 -0.56439426130E+02  0.33546609018E+02 -0.15144266551E+02  0.67510036349E+02  0.41800000000E+01 0. -1.
</event>
<event>
11    1  0.1002087E-008  0.1335582E+03  0.7561462E-02  0.1114973E+00
         22   -1    0    0    0    0  0.00000000000E+00  0.00000000000E+00  0.14925689349E+03  0.14925689349E+03  0.00000000000E+00 0.  1.
         22   -1    0    0    0    0 -0.00000000000E+00 -0.00000000000E+00 -0.34355273161E+03  0.34355273161E+03  0.00000000000E+00 0.  1.
        -24    2    1    2    0    0 -0.36736615260E+02 -0.22053525882E+02 -0.12931866505E+03  0.15786088981E+03  0.79754664411E+02 0.  0.
         25    2    1    2    0    0  0.22640984752E+02  0.57198232335E+02 -0.15599094254E+03  0.20920056112E+03  0.12508976236E+03 0.  0.
         24    2    1    2    0    0  0.14095630507E+02 -0.35144706453E+02  0.91013769478E+02  0.12574817417E+03  0.78072145360E+02 0.  0.
        -13    1    5    5    0    0  0.33219332408E+02  0.89559056132E+00  0.74791101941E+02  0.81841524043E+02  0.00000000000E+00 0.  1.
         14    1    5    5    0    0 -0.19123701901E+02 -0.36040297014E+02  0.16222667537E+02  0.43906650126E+02  0.00000000000E+00 0. -1.
         13    1    3    3    0    0 -0.55585666745E+02 -0.28953752413E+02 -0.64205984686E+02  0.89724548457E+02  0.00000000000E+00 0. -1.
        -14    1    3    3    0    0  0.18849051486E+02  0.69002265311E+01 -0.65112680368E+02  0.68136341352E+02  0.00000000000E+00 0.  1.
          5    1    4    4  501    0  0.10986254666E+01  0.94222320590E+02 -0.12283895023E+03  0.15487392540E+03  0.41800000000E+01 0.  1.
         -5    1    4    4    0  501  0.21542359285E+02 -0.37024088255E+02 -0.33151992308E+02  0.54326635720E+02  0.41800000000E+01 0.  1.
</event>
<event>
11    1  0.1002087E-008  0.1664190E+03  0.7561462E-02  0.1081191E+00
         22   -1    0    0    0    0  0.00000000000E+00  0.00000000000E+00  0.23265547102E+03  0.23265547102E+03  0.00000000000E+00 0. -1.
         22   -1    0    0    0    0 -0.00000000000E+00 -0.00000000000E+00 -0.55092406743E+03  0.55092406743E+03  0.00000000000E+00 0.  1.
         24    2    1    2    0    0  0.10008914076E+03  0.42327175855E+02 -0.42908369150E+03  0.44984234307E+03  0.80224020039E+02 0.  0.
         25    2    1    2    0    0 -0.12821194710E+03  0.20662585779E+01 -0.10864597647E+02  0.17946623697E+03  0.12509003927E+03 0.  0.
        -24    2    1    2    0    0  0.28122806346E+02 -0.44393434433E+02  0.12167969274E+03  0.15427095841E+03  0.78942458331E+02 0.  0.
        -11    1    3    3    0    0  0.97978211200E+02  0.43006062143E+02 -0.26559869143E+03  0.28634230588E+03  0.00000000000E+00 0.  1.
         12    1    3    3    0    0  0.21109295586E+01 -0.67888628780E+00 -0.16348500007E+03  0.16350003718E+03  0.00000000000E+00 0. -1.
         11    1    5    5    0    0  0.50216560968E+01  0.25645583251E+01  0.95661052881E+02  0.95827089216E+02  0.00000000000E+00 0. -1.
        -12    1    5    5    0    0  0.23101150250E+02 -0.46957992758E+02  0.26018639858E+02  0.58443869198E+02  0.00000000000E+00 0.  1.
          5    1    4    4  501    0 -0.12356933609E+02 -0.47099193161E+02 -0.20875386892E+02  0.53143974094E+02  0.41800000000E+01 0.  1.
         -5    1    4    4    0  501 -0.11585501350E+03  0.49165451739E+02  0.10010789245E+02  0.12632226288E+03  0.41800000000E+01 0.  1.
</event>
<event>
11    1  0.1002087E-008  0.1425359E+03  0.7561462E-02  0.1104759E+00
         22   -1    0    0    0    0  0.00000000000E+00  0.00000000000E+00  0.11538224412E+04  0.11538224412E+04  0.00000000000E+00 0.  1.
         22   -1    0    0    0    0 -0.00000000000E+00 -0.00000000000E+00 -0.17097850175E+04  0.17097850175E+04  0.00000000000E+00 0.  1.
        -24    2    1    2    0    0  0.46685597906E+02  0.49720079033E+02 -0.16789319131E+04  0.16822689660E+04  0.81023910440E+02 0.  0.
         25    2    1    2    0    0 -0.51025687815E+02 -0.66772764332E+02  0.17978698110E+03  0.23459247292E+03  0.12509215365E+03 0.  0.
         24    2    1    2    0    0  0.43400899087E+01  0.17052685299E+02  0.94318235570E+03  0.94674601971E+03  0.80158837808E+02 0.  0.
        -11    1    5    5    0    0 -0.14660121855E+02 -0.11958215322E+02  0.76424529285E+03  0.76447942139E+03  0.00000000000E+00 0.  1.
         12    1    5    5    0    0  0.19000211764E+02  0.29010900621E+02  0.17893706285E+03  0.18226659832E+03  0.00000000000E+00 0. -1.
         13    1    3    3    0    0 -0.20362720217E+01 -0.14001305621E+01 -0.72287478498E+00  0.25747460635E+01  0.00000000000E+00 0. -1.
        -14    1    3    3    0    0  0.48721869928E+02  0.51120209595E+02 -0.16782090383E+04  0.16796942200E+04  0.00000000000E+00 0.  1.
          5    1    4    4  501    0 -0.46881584145E+02 -0.79868667843E+02  0.19361083835E+03  0.21466139886E+03  0.41800000000E+01 0. -1.
         -5    1    4    4    0  501 -0.41441036696E+01  0.13095903510E+02 -0.13823857248E+02  0.19931074060E+02  0.41800000000E+01 0. -1.
</event>
<event>
11    1  0.1002087E-008  0.1359936E+03  0.7561462E-02  0.1112116E+00
         22   -1    0    0    0    0  0.00000000000E+00  0.00000000000E+00  0.54065622176E+03  0.54065622176E+03  0.00000000000E+00 0.  1.
         22   -1    0    0    0    0 -0.00000000000E+00 -0.00000000000E+00 -0.79064823513E+03  0.79064823513E+03  0.00000000000E+00 0.  1.
         24    2    1    2    0    0  0.17088979603E+02  0.51115391559E+02 -0.76133994350E+03  0.76736111026E+03  0.79370948656E+02 0.  0.
         25    2    1    2    0    0 -0.10277698397E+02 -0.86353823993E+01  0.17661993526E+03  0.21687045828E+03  0.12513190331E+03 0.  0.
        -24    2    1    2    0    0 -0.68112812065E+01 -0.42480009160E+02  0.33472799487E+03  0.34707288835E+03  0.81029713986E+02 0.  0.
        -11    1    3    3    0    0  0.40620517696E+02  0.44418117250E+02 -0.67329205397E+03  0.67597720785E+03  0.00000000000E+00 0.  1.
         12    1    3    3    0    0 -0.23531538093E+02  0.66972743091E+01 -0.88047889538E+02  0.91383902413E+02  0.00000000000E+00 0. -1.
         11    1    5    5    0    0  0.53623109663E+00 -0.17897778963E+02  0.84707467926E+01  0.19808371635E+02  0.00000000000E+00 0. -1.
        -12    1    5    5    0    0 -0.73475123031E+01 -0.24582230197E+02  0.32625724807E+03  0.32726451671E+03  0.00000000000E+00 0.  1.
          5    1    4    4  501    0  0.31606858605E+02 -0.51331791006E+02  0.12023713751E+03  0.13456741030E+03  0.41800000000E+01 0. -1.
         -5    1    4    4    0  501 -0.41884557002E+02  0.42696408606E+02  0.56382797754E+02  0.82303047974E+02  0.41800000000E+01 0. -1.
</event>
<event>
11    1  0.1002087E-008  0.1256201E+03  0.7561462E-02  0.1124771E+00
         22   -1    0    0    0    0  0.00000000000E+00  0.00000000000E+00  0.66808983858E+03  0.66808983858E+03  0.00000000000E+00 0. -1.
         22   -1    0    0    0    0 -0.00000000000E+00 -0.00000000000E+00 -0.58818695913E+03  0.58818695913E+03  0.00000000000E+00 0.  1.
         24    2    1    2    0    0 -0.24286438435E+02  0.87473514242E+01 -0.56732893097E+03  0.57282399156E+03  0.74825544725E+02 0.  0.
         25    2    1    2    0    0  0.26503182459E+02  0.13274832436E+01  0.28647358721E+03  0.31372183351E+03  0.12510032678E+03 0.  0.
        -24    2    1    2    0    0 -0.22167440238E+01 -0.10074834668E+02  0.36075822321E+03  0.36973097263E+03  0.80299939378E+02 0.  0.
        -11    1    3    3    0    0 -0.29740976534E+02 -0.17503127930E+02 -0.48528271391E+03  0.48650816807E+03  0.00000000000E+00 0.  1.
         12    1    3    3    0    0  0.54545380986E+01  0.26250479354E+02 -0.82046217057E+02  0.86315823494E+02  0.00000000000E+00 0. -1.
         11    1    5    5    0    0  0.20949849332E+02 -0.25945735329E+02  0.30944179657E+03  0.31123351817E+03  0.00000000000E+00 0. -1.
        -12    1    5    5    0    0 -0.23166593356E+02  0.15870900661E+02  0.51316426632E+02  0.58497454456E+02  0.00000000000E+00 0.  1.
          5    1    4    4  501    0 -0.42109031207E+02 -0.23454354670E+02  0.68776872791E+02  0.84089285246E+02  0.41800000000E+01 0. -1.
         -5    1    4    4    0  501  0.68612213667E+02  0.24781837914E+02  0.21769671442E+03  0.22963254827E+03  0.41800000000E+01 0. -1.
</event>
<event>
11    1  0.1002087E-008  0.1554867E+03  0.7561462E-02  0.1091401E+00
         22   -1    0    0    0    0  0.00000000000E+00  0.00000000000E+00  0.26602111404E+03  0.26602111404E+03  0.00000000000E+00 0. -1.
         22   -1    0    0    0    0 -0.00000000000E+00 -0.00000000000E+00 -0.12594821549E+04  0.12594821549E+04  0.00000000000E+00 0.  1.
        -24    2    1    2    0    0 -0.85675495324E+02 -0.31494923434E+02 -0.11481657952E+04  0.11545347578E+04  0.79583874635E+02 0.  0.
         25    2    1    2    0    0  0.10990465345E+03  0.42360026395E+02 -0.23071280458E+02  0.17335457840E+03  0.12508445620E+03 0.  0.
         24    2    1    2    0    0 -0.24229158127E+02 -0.10865102962E+02  0.17777603478E+03  0.19761393271E+03  0.82108740648E+02 0.  0.
        -13    1    5    5    0    0  0.29570898020E+02  0.51207987292E+01  0.56309742685E+02  0.63807896930E+02  0.00000000000E+00 0.  1.
         14    1    5    5    0    0 -0.53800056147E+02 -0.15985901691E+02  0.12146629210E+03  0.13380603578E+03  0.00000000000E+00 0. -1.
         13    1    3    3    0    0 -0.20139644100E+02  0.52913843128E+01 -0.55343102916E+02  0.59130897615E+02  0.00000000000E+00 0. -1.
        -14    1    3    3    0    0 -0.65535851224E+02 -0.36786307746E+02 -0.10928226923E+04  0.10954038602E+04  0.00000000000E+00 0.  1.
          5    1    4    4  501    0  0.15838436123E+02  0.19305742013E+01 -0.61682576565E+02  0.63849791129E+02  0.41800000000E+01 0.  1.
         -5    1    4    4    0  501  0.94066217328E+02  0.40429452194E+02  0.38611296107E+02  0.10950478727E+03  0.41800000000E+01 0.  1.
</event>
<event>
11    1  0.1002087E-008  0.1456241E+03  0.7561462E-02  0.1101436E+00
         22   -1    0    0    0    0  0.00000000000E+00  0.00000000000E+00  0.17534223104E+04  0.17534223104E+04  0.00000000000E+00 0.  1.
         22   -1    0    0    0    0 -0.00000000000E+00 -0.00000000000E+00 -0.10225681118E+03  0.10225681118E+03  0.00000000000E+00 0.  1.
        -24    2    1    2    0    0  0.81613812426E+01 -0.75102382714E+02 -0.59226201731E+02  0.12342028132E+03  0.77574782226E+02 0.  0.
         25    2    1    2    0    0  0.92855227394E+01  0.60407570460E+02  0.49398156568E+03  0.51322502999E+03  0.12508736420E+03 0.  0.
         24    2    1    2    0    0 -0.17446903982E+02  0.14694812254E+02  0.12164101352E+04  0.12190338102E+04  0.76612540647E+02 0.  0.
        -11    1    5    5    0    0 -0.41468895926E+02 -0.99805798968E+01  0.82882670632E+03  0.82992348467E+03  0.00000000000E+00 0.  1.
         12    1    5    5    0    0  0.24021991944E+02  0.24675392151E+02  0.38758342892E+03  0.38911032555E+03  0.00000000000E+00 0. -1.
         13    1    3    3    0    0  0.18024378929E+02 -0.73275672665E+02 -0.13563997573E+02  0.76669318964E+02  0.00000000000E+00 0. -1.
        -14    1    3    3    0    0 -0.98629976866E+01 -0.18267100492E+01 -0.45662204158E+02  0.46750962360E+02  0.00000000000E+00 0.  1.
          5    1    4    4  501    0  0.36877411941E+02  0.88493154671E+02  0.29086645453E+03  0.30628703646E+03  0.41800000000E+01 0.  1.
         -5    1    4    4    0  501 -0.27591889202E+02 -0.28085584211E+02  0.20311511115E+03  0.20693799353E+03  0.41800000000E+01 0.  1.
</event>
<event>
11    1  0.1002087E-008  0.1468717E+03  0.7561462E-02  0.1100119E+00
         22   -1    0    0    0    0  0.00000000000E+00  0.00000000000E+00  0.73114249361E+03  0.73114249361E+03  0.00000000000E+00 0. -1.
         22   -1    0    0    0    0 -0.00000000000E+00 -0.00000000000E+00 -0.15552008844E+04  0.15552008844E+04  0.00000000000E+00 0.  1.
         24    2    1    2    0    0 -0.67071990992E+02 -0.66450051551E+02 -0.14141498836E+04  0.14197114224E+04  0.82742784178E+02 0.  0.
         25    2    1    2    0    0  0.19527224635E+02  0.12622442772E+03 -0.71225224260E+02  0.19243836158E+03  0.12508226006E+03 0.  0.
        -24    2    1    2    0    0  0.47544766357E+02 -0.59774376169E+02  0.66131671706E+03  0.67419359403E+03  0.10660075570E+03 0.  0.
        -11    1    3    3    0    0 -0.79180477918E+02 -0.73373440936E+02 -0.13336773085E+04  0.13380390029E+04  0.00000000000E+00 0.  1.
         12    1    3    3    0    0  0.12108486926E+02  0.69233893854E+01 -0.80472575046E+02  0.81672419524E+02  0.00000000000E+00 0. -1.
         13    1    5    5    0    0 -0.25064443298E+02 -0.41514826493E+02  0.38009666737E+03  0.38317774424E+03  0.00000000000E+00 0. -1.
        -14    1    5    5    0    0  0.72609209655E+02 -0.18259549676E+02  0.28122004969E+03  0.29101584979E+03  0.00000000000E+00 0.  1.
          5    1    4    4  501    0 -0.44952676534E+02  0.41451520987E+02  0.48540595695E+01  0.61481753504E+02  0.41800000000E+01 0. -1.
         -5    1    4    4    0  501  0.64479901168E+02  0.84772906733E+02 -0.76079283830E+02  0.13095660808E+03  0.41800000000E+01 0. -1.
</event>
<event>
11    1  0.1002087E-008  0.2025730E+03  0.7561462E-02  0.1052719E+00
         22   -1    0    0    0    0  0.00000000000E+00  0.00000000000E+00  0.23169302536E+03  0.23169302536E+03  0.00000000000E+00 0. -1.
         22   -1    0    0    0    0 -0.00000000000E+00 -0.00000000000E+00 -0.67120362861E+03  0.67120362861E+03  0.00000000000E+00 0. -1.
        -24    2    1    2    0    0 -0.11588333184E+03  0.10634218382E+03 -0.52473227035E+03  0.55428509886E+03  0.84560088771E+02 0.  0.
         25    2    1    2    0    0  0.17708346840E+03 -0.68624511564E+02  0.42177599992E+02  0.23128967594E+03  0.12509230947E+03 0.  0.
         24    2    1    2    0    0 -0.61200136560E+02 -0.37717672256E+02  0.43044067100E+02  0.11732187916E+03  0.82119133597E+02 0.  0.
        -11    1    5    5    0    0 -0.50759681238E+02 -0.61031006981E+02  0.45772602323E+02  0.91632200540E+02  0.00000000000E+00 0.  1.
         12    1    5    5    0    0 -0.10440455322E+02  0.23313334725E+02 -0.27285352225E+01  0.25689678624E+02  0.00000000000E+00 0. -1.
         13    1    3    3    0    0 -0.12558975773E+03  0.10575511248E+03 -0.51495405140E+03  0.54049477899E+03  0.00000000000E+00 0. -1.
        -14    1    3    3    0    0  0.97064258898E+01  0.58707134137E+00 -0.97782189566E+01  0.13790319876E+02  0.00000000000E+00 0.  1.
          5    1    4    4  501    0  0.16506661915E+03 -0.97744567240E+02  0.20834068503E+02  0.19300911893E+03  0.41800000000E+01 0.  1.
         -5    1    4    4    0  501  0.12016849256E+02  0.29120055676E+02  0.21343531489E+02  0.38280557011E+02  0.41800000000E+01 0.  1.
</event>
<event>
11    1  0.1002087E-008  0.1304921E+03  0.7561462E-02  0.1118666E+00
         22   -1    0    0    0    0  0.00000000000E+00  0.00000000000E+00  0.21261177243E+03  0.21261177243E+03  0.00000000000E+00 0.  1.
         22   -1    0    0    0    0 -0.00000000000E+00 -0.00000000000E+00 -0.10180626284E+04  0.10180626284E+04  0.00000000000E+00 0. -1.
        -24    2    1    2    0    0  0.18117786804E+02 -0.95447806289E+01 -0.78424487914E+03  0.78862215955E+03  0.80408476219E+02 0.  0.
         25    2    1    2    0    0 -0.27369881693E+02  0.44879133713E+02 -0.20040242082E+03  0.24201688979E+03  0.12509115720E+03 0.  0.
         24    2    1    2    0    0  0.92520948894E+01 -0.35334353084E+02  0.17919644403E+03  0.20003535145E+03  0.81047260971E+02 0.  0.
        -11    1    5    5    0    0 -0.36059892352E+02 -0.13484957894E+02  0.73155757474E+02  0.82667555773E+02  0.00000000000E+00 0.  1.
         12    1    5    5    0    0  0.45311987242E+02 -0.21849395190E+02  0.10604068655E+03  0.11736779568E+03  0.00000000000E+00 0. -1.
         13    1    3    3    0    0  0.49142747823E+02  0.35836579961E+01 -0.47277272466E+03  0.47533346342E+03  0.00000000000E+00 0. -1.
        -14    1    3    3    0    0 -0.31024961020E+02 -0.13128438625E+02 -0.31147215448E+03  0.31328869613E+03  0.00000000000E+00 0.  1.
          5    1    4    4  501    0  0.28763980179E+02 -0.29382871355E+02 -0.47569657377E+02  0.63016381900E+02  0.41800000000E+01 0.  1.
         -5    1    4    4    0  501 -0.56133861873E+02  0.74262005068E+02 -0.15283276344E+03  0.17900050789E+03  0.41800000000E+01 0.  1.
</event>
<event>
11    1  0.1002087E-008  0.1409743E+03  0.7561462E-02  0.1106475E+00
         22   -1    0    0    0    0  0.00000000000E+00  0.00000000000E+00  0.30419922894E+03  0.30419922894E+03  0.00000000000E+00 0.  1.
         22   -1    0    0    0    0 -0.00000000000E+00 -0.00000000000E+00 -0.63161938142E+03  0.63161938142E+03  0.00000000000E+00 0.  1.
        -24    2    1    2    0    0  0.62119327225E+02 -0.16081438499E+02 -0.55034570498E+03  0.55982066581E+03  0.80008495794E+02 0.  0.
         25    2    1    2    0    0 -0.77394499025E+02  0.17203688047E+02  0.11983620595E+02  0.14858441052E+03  0.12509134473E+03 0.  0.
         24    2    1    2    0    0  0.15275171801E+02 -0.11222495481E+01  0.21094193190E+03  0.22741353403E+03  0.83581256931E+02 0.  0.
        -13    1    5    5    0    0 -0.13808303501E+02 -0.31455436050E+02  0.14654823097E+03  0.15052075506E+03  0.00000000000E+00 0.  1.
         14    1    5    5    0    0  0.29083475301E+02  0.30333186502E+02  0.64393700924E+02  0.76892778970E+02  0.00000000000E+00 0. -1.
         13    1    3    3    0    0  0.17100780329E+02 -0.43708581435E+02 -0.32474163954E+03  0.32811584727E+03  0.00000000000E+00 0. -1.
        -14    1    3    3    0    0  0.45018546896E+02  0.27627142936E+02 -0.22560406543E+03  0.23170481853E+03  0.00000000000E+00 0.  1.
          5    1    4    4  501    0 -0.85097530213E+02 -0.34972678900E+02  0.22113236954E+02  0.94716131500E+02  0.41800000000E+01 0.  1.
         -5    1    4    4    0  501  0.77030311876E+01  0.52176366947E+02 -0.10129616360E+02  0.53868279023E+02  0.41800000000E+01 0.  1.
</event>
<event>
11    1  0.1002087E-008  0.1281925E+03  0.7561462E-02  0.1121510E+00
         22   -1    0    0    0    0  0.00000000000E+00  0.00000000000E+00  0.18315599735E+02  0.18315599735E+02  0.00000000000E+00 0.  1.
         22   -1    0    0    0    0 -0.00000000000E+00 -0.00000000000E+00 -0.25159157421E+04  0.25159157421E+04  0.00000000000E+00 0.  1.
         24    2    1    2    0    0 -0.25136175360E+02  0.15928240019E+02 -0.17453474406E+04  0.17474756075E+04  0.80918318493E+02 0.  0.
         25    2    1    2    0    0  0.19132977306E+02 -0.19163849729E+01 -0.60526487887E+03  0.61835521318E+03  0.12509137749E+03 0.  0.
        -24    2    1    2    0    0  0.60031980534E+01 -0.14011855046E+02 -0.14698782290E+03  0.16840052115E+03  0.80752368240E+02 0.  0.
        -11    1    3    3    0    0 -0.45735887813E+02 -0.40447967347E+01 -0.14525900961E+04  0.14533155607E+04  0.00000000000E+00 0.  1.
         12    1    3    3    0    0  0.20599712453E+02  0.19973036754E+02 -0.29275734452E+03  0.29416004678E+03  0.00000000000E+00 0. -1.
         11    1    5    5    0    0 -0.15708944335E+01  0.13814699606E+02 -0.13726401913E+03  0.13796638932E+03  0.00000000000E+00 0. -1.
        -12    1    5    5    0    0  0.75740924869E+01 -0.27826554652E+02 -0.97238037689E+01  0.30434131835E+02  0.00000000000E+00 0.  1.
          5    1    4    4  501    0  0.45821916491E+02 -0.30600444688E+02 -0.53459273792E+03  0.53744106941E+03  0.41800000000E+01 0. -1.
         -5    1    4    4    0  501 -0.26688939184E+02  0.28684059715E+02 -0.70672140953E+02  0.80914143779E+02  0.41800000000E+01 0. -1.
</event>
<event>
11    1  0.1002087E-008  0.1668598E+03  0.7561462E-02  0.1080797E+00
         22   -1    0    0    0    0  0.00000000000E+00  0.00000000000E+00  0.70098802893E+03  0.70098802893E+03  0.00000000000E+00 0.  1.
         22   -1    0    0    0    0 -0.00000000000E+00 -0.00000000000E+00 -0.17932650040E+04  0.17932650040E+04  0.00000000000E+00 0.  1.
         24    2    1    2    0    0 -0.37444921247E+02  0.41170411931E+02 -0.16474313400E+04  0.16503900618E+04  0.81610116201E+02 0.  0.
         25    2    1    2    0    0  0.97164461627E+02  0.52545101904E+02 -0.86369739706E+02  0.18790758341E+03  0.12509039783E+03 0.  0.
        -24    2    1    2    0    0 -0.59719540380E+02 -0.93715513835E+02  0.64152410465E+03  0.65595538772E+03  0.79845305418E+02 0.  0.
        -11    1    3    3    0    0 -0.12609694173E+01 -0.23590720064E+02 -0.50538355185E+03  0.50593541741E+03  0.00000000000E+00 0.  1.
         12    1    3    3    0    0 -0.36183951830E+02  0.64761131995E+02 -0.11420477882E+04  0.11444546444E+04  0.00000000000E+00 0. -1.
         13    1    5    5    0    0 -0.19005067584E+02 -0.74046559474E+02  0.23970106706E+03  0.25159627802E+03  0.00000000000E+00 0. -1.
        -14    1    5    5    0    0 -0.40714472796E+02 -0.19668954361E+02  0.40182303759E+03  0.40435910970E+03  0.00000000000E+00 0.  1.
          5    1    4    4  501    0  0.48841148975E+01 -0.27274757290E+02  0.12621851460E+02  0.30733540275E+02  0.41800000000E+01 0. -1.
         -5    1    4    4    0  501  0.92280346730E+02  0.79819859194E+02 -0.98991591167E+02  0.15717404314E+03  0.41800000000E+01 0. -1.
</event>
<event>
11    1  0.1002087E-008  0.1514459E+03  0.7561462E-02  0.1095410E+00
         22   -1    0    0    0    0  0.00000000000E+00  0.00000000000E+00  0.25645500047E+04  0.25645500047E+04  0.00000000000E+00 0.  1.
         22   -1    0    0    0    0 -0.00000000000E+00 -0.00000000000E+00 -0.14102738781E+03  0.14102738781E+03  0.00000000000E+00 0.  1.
        -24    2    1    2    0    0  0.81699147324E+02 -0.20096744893E+02 -0.10511678626E+03  0.15608578328E+03  0.78959503285E+02 0.  0.
         25    2    1    2    0    0 -0.12054918175E+03  0.39759109218E+02  0.85912921415E+03  0.87742124692E+03  0.12510853669E+03 0.  0.
         24    2    1    2    0    0  0.38850034430E+02 -0.19662364324E+02  0.16695101890E+04  0.16720703623E+04  0.81603257508E+02 0.  0.
        -11    1    5    5    0    0  0.43880397975E+02 -0.30311418440E+02  0.56824373507E+03  0.57074093411E+03  0.00000000000E+00 0.  1.
         12    1    5    5    0    0 -0.50303635450E+01  0.10649054115E+02  0.11012664539E+04  0.11013294282E+04  0.00000000000E+00 0. -1.
         11    1    3    3    0    0  0.93339111886E+02 -0.20283308882E+02 -0.68171321627E+02  0.11734961235E+03  0.00000000000E+00 0. -1.
        -12    1    3    3    0    0 -0.11639964562E+02  0.18656398861E+00 -0.36945464629E+02  0.38736170923E+02  0.00000000000E+00 0.  1.
          5    1    4    4  501    0 -0.11653477609E+03  0.65442892552E+02  0.50793496412E+03  0.52524139821E+03  0.41800000000E+01 0.  1.
         -5    1    4    4    0  501 -0.40144056678E+01 -0.25683783334E+02  0.35119425004E+03  0.35217984871E+03  0.41800000000E+01 0.  1.
</event>
<event>
11    1  0.1002087E-008  0.1573023E+03  0.7561462E-02  0.1089642E+00
         22   -1    0    0    0    0  0.00000000000E+00  0.00000000000E+00  0.17137133172E+03  0.17137133172E+03  0.00000000000E+00 0. -1.
         22   -1    0    0    0    0 -0.00000000000E+00 -0.00000000000E+00 -0.57218756172E+03  0.57218756172E+03  0.00000000000E+00 0. -1.
        -24    2    1    2    0    0 -0.43588917054E+02  0.42289466373E+02 -0.43614908504E+03  0.44765717682E+03  0.80514165990E+02 0.  0.
         25    2    1    2    0    0 -0.30718079928E+02 -0.10237616512E+03 -0.45125666169E+01  0.16459787581E+03  0.12509043867E+03 0.  0.
         24    2    1    2    0    0  0.74306996982E+02  0.60086698745E+02  0.39845421648E+02  0.13130384080E+03  0.80753326968E+02 0.  0.
        -13    1    5    5    0    0 -0.14851475690E+02  0.38464280073E+01  0.17997910444E+02  0.23649230832E+02  0.00000000000E+00 0.  1.
         14    1    5    5    0    0  0.89158472672E+02  0.56240270738E+02  0.21847511203E+02  0.10765460997E+03  0.00000000000E+00 0. -1.
         11    1    3    3    0    0 -0.64509217394E+02  0.45893811620E+02 -0.32543765063E+03  0.33492886636E+03  0.00000000000E+00 0. -1.
        -12    1    3    3    0    0  0.20920300340E+02 -0.36043452469E+01 -0.11071143441E+03  0.11272831046E+03  0.00000000000E+00 0.  1.
          5    1    4    4  501    0  0.22135157939E+01  0.28816719947E+02 -0.25611930380E+00  0.29203441540E+02  0.41800000000E+01 0.  1.
         -5    1    4    4    0  501 -0.32931595722E+02 -0.13119288507E+03 -0.42564473131E+01  0.13539443427E+03  0.41800000000E+01 0.  1.
</event>
<event>
11    1  0.1002087E-008  0.1775978E+03  0.7561462E-02  0.1071603E+00
         22   -1    0    0    0    0  0.00000000000E+00  0.00000000000E+00  0.80126150487E+02  0.80126150487E+02  0.00000000000E+00 0.  1.
         22   -1    0    0    0    0 -0.00000000000E+00 -0.00000000000E+00 -0.21485474186E+04  0.21485474186E+04  0.00000000000E+00 0. -1.
        -24    2    1    2    0    0  0.79773789764E+02  0.27362334242E+00 -0.17617465743E+04  0.17653804467E+04  0.80331792687E+02 0.  0.
         25    2    1    2    0    0 -0.62822072505E+02 -0.12581644886E+03 -0.21762052709E+03  0.28771846896E+03  0.12508729741E+03 0.  0.
         24    2    1    2    0    0 -0.16951717258E+02  0.12554282551E+03 -0.89054166700E+02  0.17557465346E+03  0.82749335806E+02 0.  0.
        -11    1    5    5    0    0  0.20768091340E+02  0.65990795347E+02 -0.10408225028E+02  0.69960201806E+02  0.00000000000E+00 0.  1.
         12    1    5    5    0    0 -0.37719808598E+02  0.59552030166E+02 -0.78645941672E+02  0.10561445166E+03  0.00000000000E+00 0. -1.
         13    1    3    3    0    0  0.36536870333E+02  0.30660867518E+02 -0.12505947014E+04  0.12515039508E+04  0.00000000000E+00 0. -1.
        -14    1    3    3    0    0  0.43236919430E+02 -0.30387244176E+02 -0.51115187295E+03  0.51387649589E+03  0.00000000000E+00 0.  1.
          5    1    4    4  501    0 -0.87838678312E+02 -0.60768952339E+02 -0.17748161611E+03  0.20718517184E+03  0.41800000000E+01 0. -1.
         -5    1    4    4    0  501  0.25016605807E+02 -0.65047496517E+02 -0.40138910979E+02  0.80533297112E+02  0.41800000000E+01 0. -1.
</event>
<event>
11    1  0.1002087E-008  0.3959676E+03  0.7561462E-02  0.9661731E-01
         22   -1    0    0    0    0  0.00000000000E+00  0.00000000000E+00  0.20608310506E+04  0.20608310506E+04  0.00000000000E+00 0.  1.
         22   -1    0    0    0    0 -0.00000000000E+00 -0.00000000000E+00 -0.31332644728E+03  0.31332644728E+03  0.00000000000E+00 0.  1.
        -24    2    1    2    0    0  0.10416509313E+03 -0.50906057464E+02  0.22901545802E+02  0.14451139630E+03  0.83170124119E+02 0.  0.
         25    2    1    2    0    0 -0.42752947493E+03 -0.12936910676E+03 -0.69702448075E-01  0.46385929715E+03  0.12509046714E+03 0.  0.
         24    2    1    2    0    0  0.32336438180E+03  0.18027516422E+03  0.17246727600E+04  0.17657868044E+04  0.80269866476E+02 0.  0.
        -13    1    5    5    0    0  0.24158950859E+03  0.16806210925E+03  0.14138832589E+04  0.14441870492E+04  0.00000000000E+00 0.  1.
         14    1    5    5    0    0  0.81774873208E+02  0.12213054968E+02  0.31078950106E+03  0.32159975524E+03  0.00000000000E+00 0. -1.
         13    1    3    3    0    0  0.42263191494E+02 -0.43899088081E+02 -0.25061844579E+02  0.65889326475E+02  0.00000000000E+00 0. -1.
        -14    1    3    3    0    0  0.61901901640E+02 -0.70069693826E+01  0.47963390381E+02  0.78622069824E+02  0.00000000000E+00 0.  1.
          5    1    4    4  501    0 -0.23993492662E+03 -0.95125255823E+01 -0.15588366001E+02  0.24066517553E+03  0.41800000000E+01 0.  1.
         -5    1    4    4    0  501 -0.18759454831E+03 -0.11985658118E+03  0.15518663553E+02  0.22319412162E+03  0.41800000000E+01 0.  1.
</event>
<event>
11    1  0.1002087E-008  0.2048109E+03  0.7561462E-02  0.1051173E+00
         22   -1    0    0    0    0  0.00000000000E+00  0.00000000000E+00  0.20047972691E+04  0.20047972691E+04  0.00000000000E+00 0. -1.
         22   -1    0    0    0    0 -0.00000000000E+00 -0.00000000000E+00 -0.63914964812E+03  0.63914964812E+03  0.00000000000E+00 0.  1.
         24    2    1    2    0    0  0.86700877832E+02  0.13290985751E+03 -0.57119958382E+03  0.59822710602E+03  0.80153810749E+02 0.  0.
         25    2    1    2    0    0 -0.14045725603E+03 -0.26289071392E+03  0.47275261627E+03  0.57269716954E+03  0.12508894267E+03 0.  0.
        -24    2    1    2    0    0  0.53756378195E+02  0.12998085641E+03  0.14640945885E+04  0.14730226417E+04  0.80236945441E+02 0.  0.
        -13    1    3    3    0    0  0.85106292366E+01  0.82592578452E+02 -0.22771891580E+03  0.24238372354E+03  0.00000000000E+00 0.  1.
         14    1    3    3    0    0  0.78190248596E+02  0.50317279056E+02 -0.34348066803E+03  0.35584338248E+03  0.00000000000E+00 0. -1.
         11    1    5    5    0    0 -0.20336624526E+02  0.40189799112E+02  0.35958206577E+03  0.36239213606E+03  0.00000000000E+00 0. -1.
        -12    1    5    5    0    0  0.74093002721E+02  0.89791057294E+02  0.11045125228E+04  0.11106305056E+04  0.00000000000E+00 0.  1.
          5    1    4    4  501    0 -0.14517216027E+02 -0.14855157653E+03  0.26485946197E+03  0.30404987657E+03  0.41800000000E+01 0. -1.
         -5    1    4    4    0  501 -0.12594004000E+03 -0.11433913738E+03  0.20789315430E+03  0.26864729297E+03  0.41800000000E+01 0. -1.
</event>
<event>
11    1  0.1002087E-008  0.1505228E+03  0.7561462E-02  0.1096346E+00
         22   -1    0    0    0    0  0.00000000000E+00  0.00000000000E+00  0.22992930768E+03  0.22992930768E+03  0.00000000000E+00 0. -1.
         22   -1    0    0    0    0 -0.00000000000E+00 -0.00000000000E+00 -0.13290493107E+04  0.13290493107E+04  0.00000000000E+00 0. -1.
         24    2    1    2    0    0  0.82091786928E+02 -0.92857659443E+00 -0.11776778345E+04  0.11832414012E+04  0.79970043116E+02 0.  0.
         25    2    1    2    0    0 -0.11413724300E+03  0.17755260266E+01 -0.85947524669E+02  0.18990694024E+03  0.12508879336E+03 0.  0.
        -24    2    1    2    0    0  0.32045456070E+02 -0.84694943214E+00  0.16450535613E+03  0.18583027701E+03  0.80269864078E+02 0.  0.
        -13    1    3    3    0    0 -0.10263640779E+02 -0.17207485600E+02 -0.15938228729E+03  0.16063671245E+03  0.00000000000E+00 0.  1.
         14    1    3    3    0    0  0.92355427707E+02  0.16278909005E+02 -0.10182955472E+04  0.10226046887E+04  0.00000000000E+00 0. -1.
         13    1    5    5    0    0 -0.23766294936E+02  0.29363645999E+01  0.87068243370E+02  0.90301373276E+02  0.00000000000E+00 0. -1.
        -14    1    5    5    0    0  0.55811751006E+02 -0.37833140321E+01  0.77437112760E+02  0.95528903731E+02  0.00000000000E+00 0.  1.
          5    1    4    4  501    0 -0.13587203992E+03 -0.13272103280E+02 -0.88921846113E+02  0.16297830246E+03  0.41800000000E+01 0. -1.
         -5    1    4    4    0  501  0.21734796918E+02  0.15047629307E+02  0.29743214434E+01  0.26928637784E+02  0.41800000000E+01 0. -1.
</event>
<event>
11    1  0.1002087E-008  0.1384559E+03  0.7561462E-02  0.1109295E+00
         22   -1    0    0    0    0  0.00000000000E+00  0.00000000000E+00  0.23945315862E+03  0.23945315862E+03  0.00000000000E+00 0.  1.
         22   -1    0    0    0    0 -0.00000000000E+00 -0.00000000000E+00 -0.10868897786E+04  0.10868897786E+04  0.00000000000E+00 0.  1.
         24    2    1    2    0    0 -0.23821362976E+01  0.35974513642E+02 -0.95337627681E+03  0.95737619005E+03  0.79642977610E+02 0.  0.
         25    2    1    2    0    0 -0.52251019867E+02 -0.87304630215E+01 -0.79865047522E+02  0.15758016128E+03  0.12508673531E+03 0.  0.
        -24    2    1    2    0    0  0.54633156165E+02 -0.27244050620E+02  0.18580470439E+03  0.21138658585E+03  0.80211473350E+02 0.  0.
        -13    1    3    3    0    0  0.97625479790E+01  0.59394285716E+02 -0.59781472023E+03  0.60083727268E+03  0.00000000000E+00 0.  1.
         14    1    3    3    0    0 -0.12144684277E+02 -0.23419772074E+02 -0.35556155658E+03  0.35653891737E+03  0.00000000000E+00 0. -1.
         13    1    5    5    0    0  0.20686773562E+01 -0.25191431492E+02  0.88538871341E+01  0.26782064222E+02  0.00000000000E+00 0. -1.
        -14    1    5    5    0    0  0.52564478808E+02 -0.20526191284E+01  0.17695081726E+03  0.18460452163E+03  0.00000000000E+00 0.  1.
          5    1    4    4  501    0 -0.51865096638E+02 -0.58330944306E+02 -0.73682184878E+02  0.10741984957E+03  0.41800000000E+01 0. -1.
         -5    1    4    4    0  501 -0.38592322873E+00  0.49600481284E+02 -0.61828626440E+01  0.50160311710E+02  0.41800000000E+01 0. -1.
</event>
<event>
11    1  0.1002087E-008  0.1818653E+03  0.7561462E-02  0.1068144E+00
         22   -1    0    0    0    0  0.00000000000E+00  0.00000000000E+00  0.41028757203E+03  0.41028757203E+03  0.00000000000E+00 0. -1.
         22   -1    0    0    0    0 -0.00000000000E+00 -0.00000000000E+00 -0.24314408917E+03  0.24314408917E+03  0.00000000000E+00 0.  1.
        -24    2    1    2    0    0  0.23204327636E+02  0.12964172163E+03 -0.55204567528E+02  0.16327730385E+03  0.79161334440E+02 0.  0.
         25    2    1    2    0    0  0.95125760591E+02 -0.40066572070E+02 -0.49993523729E+02  0.16970957342E+03  0.12509095239E+03 0.  0.
         24    2    1    2    0    0 -0.11833008823E+03 -0.89575149557E+02  0.27234157412E+03  0.32044478393E+03  0.80555628940E+02 0.  0.
        -13    1    5    5    0    0 -0.30573504662E+02  0.69540487831E+01  0.96690256348E+02  0.10164695595E+03  0.00000000000E+00 0.  1.
         14    1    5    5    0    0 -0.87756583565E+02 -0.96529198341E+02  0.17565131777E+03  0.21879782797E+03  0.00000000000E+00 0. -1.
         11    1    3    3    0    0  0.16114434456E+02  0.13642497693E+03 -0.62625548649E+02  0.15097486106E+03  0.00000000000E+00 0. -1.
        -12    1    3    3    0    0  0.70898931803E+01 -0.67832553060E+01  0.74209811207E+01  0.12302442792E+02  0.00000000000E+00 0.  1.
          5    1    4    4  501    0 -0.26186896246E+02 -0.10158004730E+02  0.11193759008E+02  0.30523945286E+02  0.41800000000E+01 0.  1.
         -5    1    4    4    0  501  0.12131265684E+03 -0.29908567340E+02 -0.61187282737E+02  0.13918562813E+03  0.41800000000E+01 0.  1.
</event>
<event>
11    1  0.1002087E-008  0.1815267E+03  0.7561462E-02  0.1068415E+00
         22   -1    0    0    0    0  0.00000000000E+00  0.00000000000E+00  0.66304744375E+03  0.66304744375E+03  0.00000000000E+00 0. -1.
         22   -1    0    0    0    0 -0.00000000000E+00 -0.00000000000E+00 -0.28977848278E+04  0.28977848278E+04  0.00000000000E+00 0.  1.
        -24    2    1    2    0    0  0.17436519809E+01  0.44573725345E+02 -0.26748492468E+04  0.26763137850E+04  0.76466500184E+02 0.  0.
         25    2    1    2    0    0  0.12985088617E+03 -0.40207691762E+02 -0.17257715808E+03  0.25280267915E+03  0.12509359688E+03 0.  0.
         24    2    1    2    0    0 -0.13159453815E+03 -0.43660335835E+01  0.61268902077E+03  0.63171580741E+03  0.79629394277E+02 0.  0.
        -11    1    5    5    0    0 -0.29767896283E+02  0.29655463872E+02  0.11144423964E+03  0.11910244638E+03  0.00000000000E+00 0.  1.
         12    1    5    5    0    0 -0.10182664187E+03 -0.34021497456E+02  0.50124478113E+03  0.51261336102E+03  0.00000000000E+00 0. -1.
         13    1    3    3    0    0  0.30873383624E+02  0.41326846126E+02 -0.11189198348E+04  0.11201083299E+04  0.00000000000E+00 0. -1.
        -14    1    3    3    0    0 -0.29129731643E+02  0.32468792190E+01 -0.15559294120E+04  0.15562054552E+04  0.00000000000E+00 0.  1.
          5    1    4    4  501    0  0.14572427575E+03 -0.54291668749E+01 -0.14304269052E+03  0.20431280945E+03  0.41800000000E+01 0.  1.
         -5    1    4    4    0  501 -0.15873389575E+02 -0.34778524887E+02 -0.29534467556E+02  0.48489869702E+02  0.41800000000E+01 0.  1.
</event>
<event>
11    1  0.1002087E-008  0.2120111E+03  0.7561462E-02  0.1046341E+00
         22   -1    0    0    0    0  0.00000000000E+00  0.00000000000E+00  0.26164939930E+03  0.26164939930E+03  0.00000000000E+00 0. -1.
         22   -1    0    0    0    0 -0.00000000000E+00 -0.00000000000E+00 -0.17470673138E+04  0.17470673138E+04  0.00000000000E+00 0.  1.
         24    2    1    2    0    0 -0.55971385074E+02  0.16094339252E+03 -0.16027733537E+04  0.16140408641E+04  0.84911224997E+02 0.  0.
         25    2    1    2    0    0  0.10850651509E+02 -0.19261736915E+03 -0.17123474117E+02  0.23056440060E+03  0.12509013518E+03 0.  0.
        -24    2    1    2    0    0  0.45120733565E+02  0.31673976630E+02  0.13447891332E+03  0.16411144838E+03  0.76215929889E+02 0.  0.
        -11    1    3    3    0    0 -0.65534793609E+02  0.59890652291E+02 -0.72184833239E+03  0.72728722963E+03  0.00000000000E+00 0.  1.
         12    1    3    3    0    0  0.95634085351E+01  0.10105274023E+03 -0.88092502131E+03  0.88675363448E+03  0.00000000000E+00 0. -1.
         11    1    5    5    0    0  0.53208070963E+02  0.50509476151E+02  0.10938574728E+03  0.13171008961E+03  0.00000000000E+00 0. -1.
        -12    1    5    5    0    0 -0.80873373982E+01 -0.18835499521E+02  0.25093166047E+02  0.32401358778E+02  0.00000000000E+00 0.  1.
          5    1    4    4  501    0  0.20723639735E+02 -0.13614292502E+02 -0.42572223504E+02  0.49443754088E+02  0.41800000000E+01 0. -1.
         -5    1    4    4    0  501 -0.98729882261E+01 -0.17900307665E+03  0.25448749387E+02  0.18112064651E+03  0.41800000000E+01 0. -1.
</event>
<event>
11    1  0.1002087E-008  0.1309649E+03  0.7561462E-02  0.1118089E+00
         22   -1    0    0    0    0  0.00000000000E+00  0.00000000000E+00  0.10771734297E+04  0.10771734297E+04  0.00000000000E+00 0. -1.
         22   -1    0    0    0    0 -0.00000000000E+00 -0.00000000000E+00 -0.46423911766E+02  0.46423911766E+02  0.00000000000E+00 0.  1.
         24    2    1    2    0    0 -0.28380716644E+01 -0.11049561012E+03  0.15920636617E+03  0.21036582365E+03  0.81791064449E+02 0.  0.
         25    2    1    2    0    0  0.28307494279E+02  0.12831049921E+02  0.28724573788E+03  0.31483907658E+03  0.12509028794E+03 0.  0.
        -24    2    1    2    0    0 -0.25469422615E+02  0.97664560203E+02  0.58429741385E+03  0.59839244120E+03  0.80517004706E+02 0.  0.
        -13    1    3    3    0    0  0.28136932648E+01 -0.32143367203E+02 -0.62563993949E+00  0.32272346525E+02  0.00000000000E+00 0.  1.
         14    1    3    3    0    0 -0.56517649292E+01 -0.78352242922E+02  0.15983200611E+03  0.17809347712E+03  0.00000000000E+00 0. -1.
         11    1    5    5    0    0  0.76985979474E+01  0.42749865793E+01  0.23879374352E+03  0.23895605425E+03  0.00000000000E+00 0. -1.
        -12    1    5    5    0    0 -0.33168020562E+02  0.93389573624E+02  0.34550367033E+03  0.35943638695E+03  0.00000000000E+00 0.  1.
          5    1    4    4  501    0  0.20283933338E+02  0.60476925751E+02  0.82170652077E+02  0.10410756439E+03  0.41800000000E+01 0.  1.
         -5    1    4    4    0  501  0.80235609413E+01 -0.47645875830E+02  0.20507508581E+03  0.21073151220E+03  0.41800000000E+01 0.  1.
</event>
<event>
11    1  0.1002087E-008  0.2270598E+03  0.7561462E-02  0.1036883E+00
         22   -1    0    0    0    0  0.00000000000E+00  0.00000000000E+00  0.12336859433E+04  0.12336859433E+04  0.00000000000E+00 0.  1.
         22   -1    0    0    0    0 -0.00000000000E+00 -0.00000000000E+00 -0.25067933933E+03  0.25067933933E+03  0.00000000000E+00 0. -1.
         24    2    1    2    0    0  0.92094099622E+01 -0.44790409164E+02 -0.19837575950E+03  0.21858074594E+03  0.79583959131E+02 0.  0.
         25    2    1    2    0    0 -0.15876846147E+03 -0.82384932980E+02  0.39357851578E+03  0.45004784010E+03  0.12507721118E+03 0.  0.
        -24    2    1    2    0    0  0.14955905151E+03  0.12717534214E+03  0.78780384774E+03  0.81573669665E+03  0.79056803599E+02 0.  0.
        -13    1    3    3    0    0  0.31647239623E+02 -0.56845867823E+01 -0.28975175118E+02  0.43283057606E+02  0.00000000000E+00 0.  1.
         14    1    3    3    0    0 -0.22437829661E+02 -0.39105822381E+02 -0.16940058438E+03  0.17529768833E+03  0.00000000000E+00 0. -1.
         13    1    5    5    0    0  0.42597683362E+02  0.39188327695E+02  0.11407902078E+03  0.12792306531E+03  0.00000000000E+00 0. -1.
        -14    1    5    5    0    0  0.10696136815E+03  0.87987014448E+02  0.67372482696E+03  0.68781363133E+03  0.00000000000E+00 0.  1.
          5    1    4    4  501    0 -0.12030800508E+03 -0.29362764365E+02  0.13489546631E+03  0.18316781171E+03  0.41800000000E+01 0.  1.
         -5    1    4    4    0  501 -0.38460456397E+02 -0.53022168615E+02  0.25868304947E+03  0.26688002839E+03  0.41800000000E+01 0.  1.
</event>
<event>
11    1  0.1002087E-008  0.1775257E+03  0.7561462E-02  0.1071662E+00
         22   -1    0    0    0    0  0.00000000000E+00  0.00000000000E+00  0.64425329797E+03  0.64425329797E+03  0.00000000000E+00 0. -1.
         22   -1    0    0    0    0 -0.00000000000E+00 -0.00000000000E+00 -0.81527455599E+03  0.81527455599E+03  0.00000000000E+00 0.  1.
         24    2    1    2    0    0  0.35052858276E+02  0.98486898935E+02 -0.73278540758E+03  0.74446491902E+03  0.79531062869E+02 0.  0.
         25    2    1    2    0    0  0.74598496250E+02 -0.15471096320E+03  0.10508267593E+03  0.23704515935E+03  0.12509045134E+03 0.  0.
        -24    2    1    2    0    0 -0.10965135453E+03  0.56224064261E+02  0.45668147363E+03  0.47801777559E+03  0.68981595199E+02 0.  0.
        -13    1    3    3    0    0  0.68997237317E+01  0.69886476573E+02 -0.63342199336E+03  0.63730302640E+03  0.00000000000E+00 0.  1.
         14    1    3    3    0    0  0.28153134544E+02  0.28600422362E+02 -0.99363414221E+02  0.10716189262E+03  0.00000000000E+00 0. -1.
         11    1    5    5    0    0 -0.37388074292E+02  0.19945300419E+02  0.28634668014E+03  0.28946520401E+03  0.00000000000E+00 0. -1.
        -12    1    5    5    0    0 -0.72263280235E+02  0.36278763842E+02  0.17033479349E+03  0.18855257158E+03  0.00000000000E+00 0.  1.
          5    1    4    4  501    0 -0.24259042552E+02 -0.10519996527E+02 -0.90064654265E+01  0.28244650678E+02  0.41800000000E+01 0.  1.
         -5    1    4    4    0  501  0.98857538802E+02 -0.14419096667E+03  0.11408914135E+03  0.20880050867E+03  0.41800000000E+01 0.  1.
</event>
<event>
11    1  0.1002087E-008  0.1549408E+03  0.7561462E-02  0.1091935E+00
         22   -1    0    0    0    0  0.00000000000E+00  0.00000000000E+00  0.14609287939E+04  0.14609287939E+04  0.00000000000E+00 0. -1.
         22   -1    0    0    0    0 -0.00000000000E+00 -0.00000000000E+00 -0.81776146110E+03  0.81776146110E+03  0.00000000000E+00 0. -1.
        -24    2    1    2    0    0  0.36157127800E+02  0.58321256196E+02 -0.67629140872E+03  0.68427702104E+03  0.78461871033E+02 0.  0.
         25    2    1    2    0    0  0.54149098492E+02 -0.75360463474E+02 -0.89825955101E+02  0.17979831297E+03  0.12508959514E+03 0.  0.
         24    2    1    2    0    0 -0.90306226291E+02  0.17039207278E+02  0.14092846966E+04  0.14146149209E+04  0.81280191163E+02 0.  0.
        -11    1    5    5    0    0 -0.44810192188E+02  0.45536876601E+02  0.55939010341E+03  0.56302650759E+03  0.00000000000E+00 0.  1.
         12    1    5    5    0    0 -0.45496034104E+02 -0.28497669323E+02  0.84989459316E+03  0.85158841336E+03  0.00000000000E+00 0. -1.
         13    1    3    3    0    0  0.16465091074E+02  0.71930216421E+02 -0.38527399496E+03  0.39227682375E+03  0.00000000000E+00 0. -1.
        -14    1    3    3    0    0  0.19692036726E+02 -0.13608960225E+02 -0.29101741376E+03  0.29200019729E+03  0.00000000000E+00 0.  1.
          5    1    4    4  501    0  0.44720847118E+02 -0.32428934638E+02  0.21972110204E+02  0.59597281780E+02  0.41800000000E+01 0. -1.
         -5    1    4    4    0  501  0.94282513737E+01 -0.42931528835E+02 -0.11179806531E+03  0.12020103119E+03  0.41800000000E+01 0. -1.
</event>
<event>
11    1  0.1002087E-008  0.5727497E+03  0.7561462E-02  0.9244207E-01
         22   -1    0    0    0    0  0.00000000000E+00  0.00000000000E+00  0.29654790266E+03  0.29654790266E+03  0.00000000000E+00 0.  1.
         22   -1    0    0    0    0 -0.00000000000E+00 -0.00000000000E+00 -0.18975207258E+04  0.18975207258E+04  0.00000000000E+00 0.  1.
        -24    2    1    2    0    0 -0.75597281937E+02 -0.99968176776E+02 -0.28414434030E+03  0.32079261468E+03  0.80382274814E+02 0.  0.
         25    2    1    2    0    0  0.45367626584E+03 -0.31823269506E+03 -0.11458510734E+04  0.12789513897E+04  0.12509105683E+03 0.  0.
         24    2    1    2    0    0 -0.37807898390E+03  0.41820087184E+03 -0.17097740949E+03  0.59432462410E+03  0.78439766593E+02 0.  0.
        -11    1    5    5    0    0 -0.36264674834E+03  0.41848971292E+03 -0.16686266108E+03  0.57835063030E+03  0.00000000000E+00 0.  1.
         12    1    5    5    0    0 -0.15432235558E+02 -0.28884108387E+00 -0.41147484071E+01  0.15973993801E+02  0.00000000000E+00 0. -1.
         13    1    3    3    0    0 -0.77488591686E+02 -0.38583543270E+02 -0.14838605539E+03  0.17178938584E+03  0.00000000000E+00 0. -1.
        -14    1    3    3    0    0  0.18913097491E+01 -0.61384633506E+02 -0.13575828491E+03  0.14900322884E+03  0.00000000000E+00 0.  1.
          5    1    4    4  501    0  0.24305211407E+03 -0.21900823091E+03 -0.56095893724E+03  0.64940845161E+03  0.41800000000E+01 0.  1.
         -5    1    4    4    0  501  0.21062415177E+03 -0.99224464151E+02 -0.58489213612E+03  0.62954293808E+03  0.41800000000E+01 0.  1.
</event>
<event>
11    1  0.1002087E-008  0.1503812E+03  0.7561462E-02  0.1096490E+00
         22   -1    0    0    0    0  0.00000000000E+00  0.00000000000E+00  0.97845583593E+02  0.97845583593E+02  0.00000000000E+00 0.  1.
         22   -1    0    0    0    0 -0.00000000000E+00 -0.00000000000E+00 -0.18646878703E+04  0.18646878703E+04  0.00000000000E+00 0.  1.
        -24    2    1    2    0    0 -0.34918760324E+02  0.22625886540E+02 -0.13261224712E+04  0.13292434339E+04  0.80969422356E+02 0.  0.
         25    2    1    2    0    0  0.47418654839E+02  0.61135394144E+02 -0.48617710536E+03  0.50794093797E+03  0.12509897462E+03 0.  0.
         24    2    1    2    0    0 -0.12499894515E+02 -0.83761280684E+02  0.45457289805E+02  0.12534908207E+03  0.80460099895E+02 0.  0.
        -13    1    5    5    0    0 -0.18648489569E+02 -0.98521964615E+02  0.43273615273E+02  0.10921057391E+03  0.00000000000E+00 0.  1.
         14    1    5    5    0    0  0.61485950543E+01  0.14760683931E+02  0.21836745321E+01  0.16138508163E+02  0.00000000000E+00 0. -1.
         13    1    3    3    0    0 -0.11300202862E+02  0.49949689449E+02 -0.95363280869E+03  0.95500691090E+03  0.00000000000E+00 0. -1.
        -14    1    3    3    0    0 -0.23618557463E+02 -0.27323802909E+02 -0.37248966250E+03  0.37423652298E+03  0.00000000000E+00 0.  1.
          5    1    4    4  501    0  0.67746389221E+02  0.51261870872E+02 -0.47468550567E+03  0.48224594799E+03  0.41800000000E+01 0.  1.
         -5    1    4    4    0  501 -0.20327734382E+02  0.98735232719E+01 -0.11491599684E+02  0.25694989982E+02  0.41800000000E+01 0.  1.
</event>
<event>
11    1  0.1002087E-008  0.1580753E+03  0.7561462E-02  0.1088902E+00
         22   -1    0    0    0    0  0.00000000000E+00  0.00000000000E+00  0.11081489582E+04  0.11081489582E+04  0.00000000000E+00 0. -1.
         22   -1    0    0    0    0 -0.00000000000E+00 -0.00000000000E+00 -0.13435589568E+03  0.13435589568E+03  0.00000000000E+00 0.  1.
        -24    2    1    2    0    0 -0.13456015849E+02 -0.95649595801E+02 -0.32982473912E+02  0.13007451008E+03  0.80632654973E+02 0.  0.
         25    2    1    2    0    0 -0.25997411148E+01  0.97710051628E+02  0.72409758168E+02  0.17448473076E+03  0.12509090834E+03 0.  0.
         24    2    1    2    0    0  0.16055756963E+02 -0.20604558264E+01  0.93436577825E+03  0.93794561302E+03  0.80252929011E+02 0.  0.
        -13    1    5    5    0    0  0.32371419365E+02  0.24120405886E+02  0.28470631481E+03  0.28755414875E+03  0.00000000000E+00 0.  1.
         14    1    5    5    0    0 -0.16315662401E+02 -0.26180861713E+02  0.64965946344E+03  0.65039146427E+03  0.00000000000E+00 0. -1.
         11    1    3    3    0    0  0.66145074296E+01  0.11562924235E+02  0.54975046514E+01  0.14410950100E+02  0.00000000000E+00 0. -1.
        -12    1    3    3    0    0 -0.20070523278E+02 -0.10721252004E+03 -0.38479978563E+02  0.11566355998E+03  0.00000000000E+00 0.  1.
          5    1    4    4  501    0  0.49681505534E+02  0.24208775493E+01  0.20466191708E+02  0.53948587037E+02  0.41800000000E+01 0. -1.
         -5    1    4    4    0  501 -0.52281246649E+02  0.95289174079E+02  0.51943566460E+02  0.12053614373E+03  0.41800000000E+01 0. -1.
</event>
<event>
11    1  0.1002087E-008  0.2025155E+03  0.7561462E-02  0.1052759E+00
         22   -1    0    0    0    0  0.00000000000E+00  0.00000000000E+00  0.87207038863E+03  0.87207038863E+03  0.00000000000E+00 0. -1.
         22   -1    0    0    0    0 -0.00000000000E+00 -0.00000000000E+00 -0.35312474185E+03  0.35312474185E+03  0.00000000000E+00 0.  1.
        -24    2    1    2    0    0  0.21290170641E+02 -0.40215790807E+02 -0.29273446368E+03  0.30800034957E+03  0.84262494088E+02 0.  0.
         25    2    1    2    0    0 -0.44479333240E+01  0.18886808302E+03  0.28648377315E+03  0.36525887799E+03  0.12510059465E+03 0.  0.
         24    2    1    2    0    0 -0.16842237317E+02 -0.14865229221E+03  0.52519633731E+03  0.55193590292E+03  0.80130414157E+02 0.  0.
        -11    1    5    5    0    0  0.30620144763E+02 -0.52121998485E+02  0.15306254821E+03  0.16456743194E+03  0.00000000000E+00 0.  1.
         12    1    5    5    0    0 -0.47462382080E+02 -0.96530293725E+02  0.37213378910E+03  0.38736847098E+03  0.00000000000E+00 0. -1.
         11    1    3    3    0    0  0.10883820487E+02 -0.46762869757E+02 -0.69751932028E+02  0.84679132955E+02  0.00000000000E+00 0. -1.
        -12    1    3    3    0    0  0.10406350153E+02  0.65470789505E+01 -0.22298253166E+03  0.22332121661E+03  0.00000000000E+00 0.  1.
          5    1    4    4  501    0 -0.52827043265E+02  0.90758485691E+02  0.81942276945E+02  0.13326593104E+03  0.41800000000E+01 0.  1.
         -5    1    4    4    0  501  0.48379109941E+02  0.98109597326E+02  0.20454149621E+03  0.23199294695E+03  0.41800000000E+01 0.  1.
</event>
<event>
11    1  0.1002087E-008  0.1330955E+03  0.7561462E-02  0.1115523E+00
         22   -1    0    0    0    0  0.00000000000E+00  0.00000000000E+00  0.19203738431E+03  0.19203738431E+03  0.00000000000E+00 0. -1.
         22   -1    0    0    0    0 -0.00000000000E+00 -0.00000000000E+00 -0.13024227141E+04  0.13024227141E+04  0.00000000000E+00 0.  1.
        -24    2    1    2    0    0  0.94381648787E+01  0.44348474471E+02 -0.11964473897E+04  0.12001861916E+04  0.83094357000E+02 0.  0.
         25    2    1    2    0    0 -0.42529835656E+01 -0.49302771830E+02 -0.43932114539E+02  0.14150886142E+03  0.12508347610E+03 0.  0.
         24    2    1    2    0    0 -0.51851813131E+01  0.49542973587E+01  0.12999417448E+03  0.15276504531E+03  0.79920225869E+02 0.  0.
        -11    1    5    5    0    0 -0.38694144593E+01 -0.34264100612E+02  0.31351294406E+02  0.46603697492E+02  0.00000000000E+00 0.  1.
         12    1    5    5    0    0 -0.13157668537E+01  0.39218397971E+02  0.98642880071E+02  0.10616134782E+03  0.00000000000E+00 0. -1.
         13    1    3    3    0    0  0.20448013193E+02 -0.18024484857E+02 -0.54083715872E+03  0.54152362418E+03  0.00000000000E+00 0. -1.
        -14    1    3    3    0    0 -0.11009848314E+02  0.62372959328E+02 -0.65561023096E+03  0.65866256745E+03  0.00000000000E+00 0.  1.
          5    1    4    4  501    0  0.35248931402E+02 -0.56470584327E+02 -0.67395199380E+02  0.94820880394E+02  0.41800000000E+01 0. -1.
         -5    1    4    4    0  501 -0.39501914968E+02  0.71678124967E+01  0.23463084841E+02  0.46687981027E+02  0.41800000000E+01 0. -1.
</event>
<event>
11    1  0.1002087E-008  0.1276900E+03  0.7561462E-02  0.1122140E+00
         22   -1    0    0    0    0  0.00000000000E+00  0.00000000000E+00  0.32883714381E+03  0.32883714381E+03  0.00000000000E+00 0. -1.
         22   -1    0    0    0    0 -0.00000000000E+00 -0.00000000000E+00 -0.43335876792E+03  0.43335876792E+03  0.00000000000E+00 0.  1.
         24    2    1    2    0    0 -0.25546918885E+01  0.16818780686E+01 -0.32159205994E+03  0.33161209115E+03  0.80844114276E+02 0.  0.
         25    2    1    2    0    0 -0.13921878214E+02 -0.21370202401E+02 -0.57172181469E+02  0.13987898035E+03  0.12508783540E+03 0.  0.
        -24    2    1    2    0    0  0.16476570102E+02  0.19688324333E+02  0.27424261730E+03  0.29070484024E+03  0.92957966408E+02 0.  0.
        -11    1    3    3    0    0 -0.36528509049E+02 -0.12665685836E+02 -0.22344201491E+03  0.22676217850E+03  0.00000000000E+00 0.  1.
         12    1    3    3    0    0  0.33973817161E+02  0.14347563904E+02 -0.98150045033E+02  0.10484991265E+03  0.00000000000E+00 0. -1.
         13    1    5    5    0    0 -0.25227217684E+02 -0.99642867159E+01  0.19154413760E+03  0.19345504948E+03  0.00000000000E+00 0. -1.
        -14    1    5    5    0    0  0.41703787786E+02  0.29652611049E+02  0.82698479702E+02  0.97249790759E+02  0.00000000000E+00 0.  1.
          5    1    4    4  501    0  0.11452912379E+02 -0.38500337514E+02 -0.87632178348E+02  0.96489980167E+02  0.41800000000E+01 0. -1.
         -5    1    4    4    0  501 -0.25374790593E+02  0.17130135113E+02  0.30459996878E+02  0.43389000178E+02  0.41800000000E+01 0. -1.
</event>
<event>
11    1  0.1002087E-008  0.1287307E+03  0.7561462E-02  0.1120838E+00
         22   -1    0    0    0    0  0.00000000000E+00  0.00000000000E+00  0.30060945212E+03  0.30060945212E+03  0.00000000000E+00 0.  1.
         22   -1    0    0    0    0 -0.00000000000E+00 -0.00000000000E+00 -0.11396013830E+04  0.11396013830E+04  0.00000000000E+00 0. -1.
         24    2    1    2    0    0 -0.10351462917E+02 -0.21091451226E+02 -0.60287161471E+03  0.60848526761E+03  0.79045145234E+02 0.  0.
         25    2    1    2    0    0  0.34981543545E+02  0.38473521950E+02 -0.51876596886E+03  0.53616206200E+03  0.12509079099E+03 0.  0.
        -24    2    1    2    0    0 -0.24630080627E+02 -0.17382070723E+02  0.28264565270E+03  0.29556350551E+03  0.80996565010E+02 0.  0.
        -13    1    3    3    0    0  0.81967742026E+01  0.11333887006E+02 -0.19932823279E+02  0.24350801750E+02  0.00000000000E+00 0.  1.
         14    1    3    3    0    0 -0.18548237120E+02 -0.32425338232E+02 -0.58293879143E+03  0.58413446586E+03  0.00000000000E+00 0. -1.
         11    1    5    5    0    0  0.22657124337E+02 -0.18095067317E+02  0.47044427564E+02  0.55262599552E+02  0.00000000000E+00 0. -1.
        -12    1    5    5    0    0 -0.47287204965E+02  0.71299659334E+00  0.23560122514E+03  0.24030090596E+03  0.00000000000E+00 0.  1.
          5    1    4    4  501    0  0.66027252318E+02 -0.67633470520E+01 -0.39712089472E+03  0.40265098824E+03  0.41800000000E+01 0. -1.
         -5    1    4    4    0  501 -0.31045708774E+02  0.45236869002E+02 -0.12164507415E+03  0.13351107375E+03  0.41800000000E+01 0. -1.
</event>
<event>
11    1  0.1002087E-008  0.1742894E+03  0.7561462E-02  0.1074358E+00
         22   -1    0    0    0    0  0.00000000000E+00  0.00000000000E+00  0.92659515080E+03  0.92659515080E+03  0.00000000000E+00 0.  1.
         22   -1    0    0    0    0 -0.00000000000E+00 -0.00000000000E+00 -0.40056986366E+03  0.40056986366E+03  0.00000000000E+00 0.  1.
         24    2    1    2    0    0 -0.14340704330E+02 -0.26019493324E+02 -0.35206706829E+03  0.36269907582E+03  0.81955653785E+02 0.  0.
         25    2    1    2    0    0  0.12979829690E+03 -0.71472484408E+01  0.19243878318E+03  0.26377032762E+03  0.12507365598E+03 0.  0.
        -24    2    1    2    0    0 -0.11545759257E+03  0.33166741765E+02  0.68565357226E+03  0.70069561103E+03  0.80143806551E+02 0.  0.
        -11    1    3    3    0    0  0.24489992171E+02 -0.19599351309E+02 -0.26851770288E+03  0.27034357964E+03  0.00000000000E+00 0.  1.
         12    1    3    3    0    0 -0.38830696501E+02 -0.64201420149E+01 -0.83549365409E+02  0.92355496180E+02  0.00000000000E+00 0. -1.
         11    1    5    5    0    0 -0.12686312137E+03  0.25878554381E+02  0.58643356211E+03  0.60055663672E+03  0.00000000000E+00 0. -1.
        -12    1    5    5    0    0  0.11405528797E+02  0.72881873844E+01  0.99220010148E+02  0.10013897431E+03  0.00000000000E+00 0.  1.
          5    1    4    4  501    0  0.15287291120E+02  0.49644769287E+02  0.48001209186E+02  0.70851202323E+02  0.41800000000E+01 0.  1.
         -5    1    4    4    0  501  0.11451100578E+03 -0.56792017727E+02  0.14443757399E+03  0.19291912529E+03  0.41800000000E+01 0.  1.
</event>
<event>
11    1  0.1002087E-008  0.1303651E+03  0.7561462E-02  0.1118821E+00
         22   -1    0    0    0    0  0.00000000000E+00  0.00000000000E+00  0.25398482498E+03  0.25398482498E+03  0.00000000000E+00 0. -1.
         22   -1    0    0    0    0 -0.00000000000E+00 -0.00000000000E+00 -0.54144558509E+03  0.54144558509E+03  0.00000000000E+00 0. -1.
         24    2    1    2    0    0 -0.15834986809E+02 -0.30539789562E+02 -0.36416887273E+03  0.37494221361E+03  0.82336323233E+02 0.  0.
         25    2    1    2    0    0  0.16081609458E+02  0.46096327740E+02 -0.13635225944E+03  0.19137323049E+03  0.12509310572E+03 0.  0.
        -24    2    1    2    0    0 -0.24662264910E+00 -0.15556538178E+02  0.21306037206E+03  0.22911496598E+03  0.82806272649E+02 0.  0.
        -13    1    3    3    0    0  0.31037459804E+02 -0.76972189095E+01 -0.82360414453E+02  0.88350489296E+02  0.00000000000E+00 0.  1.
         14    1    3    3    0    0 -0.46872446613E+02 -0.22842570653E+02 -0.28180845828E+03  0.28659172431E+03  0.00000000000E+00 0. -1.
         11    1    5    5    0    0  0.28262417383E+02 -0.26851043374E+02  0.51074948867E+02  0.64252573243E+02  0.00000000000E+00 0. -1.
        -12    1    5    5    0    0 -0.28509040032E+02  0.11294505197E+02  0.16198542319E+03  0.16486239273E+03  0.00000000000E+00 0.  1.
          5    1    4    4  501    0  0.27278826281E+01  0.68682429589E+02 -0.14732690833E+03  0.16262659007E+03  0.41800000000E+01 0.  1.
         -5    1    4    4    0  501  0.13353726830E+02 -0.22586101849E+02  0.10974648897E+02  0.28746640419E+02  0.41800000000E+01 0.  1.
</event>
<event>
11    1  0.1002087E-008  0.1755191E+03  0.7561462E-02  0.1073326E+00
         22   -1    0    0    0    0  0.00000000000E+00  0.00000000000E+00  0.17814561800E+03  0.17814561800E+03  0.00000000000E+00 0. -1.
         22   -1    0    0    0    0 -0.00000000000E+00 -0.00000000000E+00 -0.46585097418E+03  0.46585097418E+03  0.00000000000E+00 0. -1.
         24    2    1    2    0    0 -0.38723801839E+02  0.94624101554E+01 -0.25695531669E+03  0.27049408728E+03  0.74511384656E+02 0.  0.
         25    2    1    2    0    0  0.15316790400E+03 -0.33129083216E+01 -0.94883237515E+02  0.21936174216E+03  0.12508142542E+03 0.  0.
        -24    2    1    2    0    0 -0.11444410216E+03 -0.61495018338E+01  0.64133198023E+02  0.15414076274E+03  0.80691007906E+02 0.  0.
        -11    1    3    3    0    0 -0.47997817868E+02  0.28293200399E+02 -0.12466877452E+03  0.13655255050E+03  0.00000000000E+00 0.  1.
         12    1    3    3    0    0  0.92740160292E+01 -0.18830790244E+02 -0.13228654217E+03  0.13394153677E+03  0.00000000000E+00 0. -1.
         13    1    5    5    0    0 -0.81769803834E+02 -0.17207260083E+02  0.26032010610E+01  0.83601239670E+02  0.00000000000E+00 0. -1.
        -14    1    5    5    0    0 -0.32674298328E+02  0.11057758249E+02  0.61529996962E+02  0.70539523069E+02  0.00000000000E+00 0.  1.
          5    1    4    4  501    0  0.11525075678E+03 -0.21594983260E+02 -0.20543864653E+01  0.11734893755E+03  0.41800000000E+01 0.  1.
         -5    1    4    4    0  501  0.37917147216E+02  0.18282074938E+02 -0.92828851050E+02  0.10201280461E+03  0.41800000000E+01 0.  1.
</event>
<event>
11    1  0.1002087E-008  0.1706064E+03  0.7561462E-02  0.1077505E+00
         22   -1    0    0    0    0  0.00000000000E+00  0.00000000000E+00  0.21859657511E+03  0.21859657511E+03  0.00000000000E+00 0.  1.
         22   -1    0    0    0    0 -0.00000000000E+00 -0.00000000000E+00 -0.47027453489E+03  0.47027453489E+03  0.00000000000E+00 0. -1.
        -24    2    1    2    0    0 -0.13452980771E+01  0.10671266375E+02 -0.30092726614E+03  0.31096560899E+03  0.77631853718E+02 0.  0.
         25    2    1    2    0    0 -0.60492878091E+02  0.89684670544E+02 -0.81532900778E+02  0.18438554700E+03  0.12509071750E+03 0.  0.
         24    2    1    2    0    0  0.61838176168E+02 -0.10035593692E+03  0.13078220714E+03  0.19351995402E+03  0.80316329553E+02 0.  0.
        -13    1    5    5    0    0  0.69868517625E+02 -0.92014190581E+02  0.13792055798E+03  0.17991748480E+03  0.00000000000E+00 0.  1.
         14    1    5    5    0    0 -0.80303414568E+01 -0.83417463383E+01 -0.71383508481E+01  0.13602469214E+02  0.00000000000E+00 0. -1.
         13    1    3    3    0    0 -0.20034377012E+02 -0.24985871772E+01 -0.27749071316E+03  0.27822421730E+03  0.00000000000E+00 0. -1.
        -14    1    3    3    0    0  0.18689078935E+02  0.13169853553E+02 -0.23436552977E+02  0.32741391685E+02  0.00000000000E+00 0.  1.
          5    1    4    4  501    0 -0.80762480683E+02  0.18045111495E+02 -0.14504927980E+02  0.84119377498E+02  0.41800000000E+01 0.  1.
         -5    1    4    4    0  501  0.20269602592E+02  0.71639559050E+02 -0.67027972798E+02  0.10026616951E+03  0.41800000000E+01 0.  1.
</event>
<event>
11    1  0.1002087E-008  0.1305408E+03  0.7561462E-02  0.1118606E+00
         22   -1    0    0    0    0  0.00000000000E+00  0.00000000000E+00  0.87245405625E+03  0.87245405625E+03  0.00000000000E+00 0.  1.
         22   -1    0    0    0    0 -0.00000000000E+00 -0.00000000000E+00 -0.10592300368E+04  0.10592300368E+04  0.00000000000E+00 0.  1.
         24    2    1    2    0    0  0.21469491406E+02  0.29493426350E+02 -0.98153613660E+03  0.98551981770E+03  0.80655578612E+02 0.  0.
         25    2    1    2    0    0 -0.15673987758E+02 -0.72423358859E+02 -0.11034816736E+01  0.14539407467E+03  0.12508957781E+03 0.  0.
        -24    2    1    2    0    0 -0.57955036478E+01  0.42929932508E+02  0.79586363768E+03  0.80077020072E+03  0.77184309438E+02 0.  0.
        -11    1    3    3    0    0  0.40395576210E+02  0.12651150586E+01 -0.78701825849E+03  0.78805529139E+03  0.00000000000E+00 0.  1.
         12    1    3    3    0    0 -0.18926084804E+02  0.28228311292E+02 -0.19451787812E+03  0.19746452631E+03  0.00000000000E+00 0. -1.
         11    1    5    5    0    0 -0.88957897735E+01 -0.10346050597E+02  0.28974731894E+02  0.32026722077E+02  0.00000000000E+00 0. -1.
        -12    1    5    5    0    0  0.31002861257E+01  0.53275983105E+02  0.76688890578E+03  0.76874347865E+03  0.00000000000E+00 0.  1.
          5    1    4    4  501    0  0.68304373147E+00 -0.29337486656E+02  0.61073515254E+02  0.67886680118E+02  0.41800000000E+01 0. -1.
         -5    1    4    4    0  501 -0.16357031489E+02 -0.43085872202E+02 -0.62176996927E+02  0.77507394547E+02  0.41800000000E+01 0. -1.
</event>
<event>
11    1  0.1002087E-008  0.1873224E+03  0.7561462E-02  0.1063869E+00
         22   -1    0    0    0    0  0.00000000000E+00  0.00000000000E+00  0.45649148979E+03  0.45649148979E+03  0.00000000000E+00 0.  1.
         22   -1    0    0    0    0 -0.00000000000E+00 -0.00000000000E+00 -0.70972996001E+03  0.70972996001E+03  0.00000000000E+00 0. -1.
        -24    2    1    2    0    0  0.13668141470E+03 -0.28914475061E+02 -0.65038255315E+03  0.66993952067E+03  0.79395465341E+02 0.  0.
         25    2    1    2    0    0 -0.13281860425E+03  0.19438908818E+02  0.15271555306E+03  0.23872288091E+03  0.12509165006E+03 0.  0.
         24    2    1    2    0    0 -0.38628104502E+01  0.94755662430E+01  0.24442852987E+03  0.25755904822E+03  0.80539738292E+02 0.  0.
        -13    1    5    5    0    0 -0.36739653244E+02  0.23344405598E+02  0.10563196143E+03  0.11424917798E+03  0.00000000000E+00 0.  1.
         14    1    5    5    0    0  0.32876842794E+02 -0.13868839355E+02  0.13879656844E+03  0.14330987024E+03  0.00000000000E+00 0. -1.
         13    1    3    3    0    0  0.10167876460E+03  0.11196690617E+02 -0.50147324958E+03  0.51180011439E+03  0.00000000000E+00 0. -1.
        -14    1    3    3    0    0  0.35002650091E+02 -0.40111165678E+02 -0.14890930357E+03  0.15813940627E+03  0.00000000000E+00 0.  1.
          5    1    4    4  501    0 -0.59522385957E+02 -0.11723281397E+02  0.14662588653E+03  0.15873554346E+03  0.41800000000E+01 0. -1.
         -5    1    4    4    0  501 -0.73296218288E+02  0.31162190215E+02  0.60896665313E+01  0.79987337453E+02  0.41800000000E+01 0. -1.
</event>
<event>
11    1  0.1002087E-008  0.3934644E+03  0.7561462E-02  0.9669241E-01
         22   -1    0    0    0    0  0.00000000000E+00  0.00000000000E+00  0.45412892462E+03  0.45412892462E+03  0.00000000000E+00 0.  1.
         22   -1    0    0    0    0 -0.00000000000E+00 -0.00000000000E+00 -0.23159296578E+04  0.23159296578E+04  0.00000000000E+00 0. -1.
        -24    2    1    2    0    0  0.27368267743E+02  0.30725212730E+03 -0.10497442351E+04  0.10980631304E+04  0.92880501646E+02 0.  0.
         25    2    1    2    0    0 -0.14150509557E+03 -0.55044044833E+03 -0.11158754414E+04  0.12585030324E+04  0.12507398875E+03 0.  0.
         24    2    1    2    0    0  0.11413682783E+03  0.24318832103E+03  0.30381894325E+03  0.41349241959E+03  0.80636566328E+02 0.  0.
        -13    1    5    5    0    0  0.11826466077E+03  0.17381450216E+03  0.24101554495E+03  0.31982261342E+03  0.00000000000E+00 0.  1.
         14    1    5    5    0    0 -0.41278329458E+01  0.69373818869E+02  0.62803398296E+02  0.93669806164E+02  0.00000000000E+00 0. -1.
         13    1    3    3    0    0  0.59801956861E+02  0.24183409834E+03 -0.80761617214E+03  0.84516500558E+03  0.00000000000E+00 0. -1.
        -14    1    3    3    0    0 -0.32433689119E+02  0.65418028964E+02 -0.24212806292E+03  0.25289812486E+03  0.00000000000E+00 0.  1.
          5    1    4    4  501    0 -0.54958812498E+02 -0.89924929056E+02 -0.29509030288E+03  0.31337313731E+03  0.41800000000E+01 0. -1.
         -5    1    4    4    0  501 -0.86546283071E+02 -0.46051551927E+03 -0.82078513848E+03  0.94512989507E+03  0.41800000000E+01 0. -1.
</event>
<event>
11    1  0.1136704E-008  0.1455330E+03  0.7561462E-02  0.1101533E+00
         22   -1    0    0    0    0  0.00000000000E+00  0.00000000000E+00  0.13523607670E+04  0.13523607670E+04  0.00000000000E+00 0. -1.
         22   -1    0    0    0    0 -0.00000000000E+00 -0.00000000000E+00 -0.24931782065E+03  0.24931782065E+03  0.00000000000E+00 0.  1.
         24    2    1    2    0    0  0.24758670922E+02 -0.23365607398E+02 -0.19822458410E+03  0.21684055009E+03  0.81042550706E+02 0.  0.
         25    2    1    2    0    0  0.47146616216E+02 -0.20898362452E+01  0.74509520188E+02  0.15304380361E+03  0.12507424350E+03 0.  0.
        -24    2    1    2    0    0 -0.71905287138E+02  0.25455443643E+02  0.12267580103E+04  0.12317942340E+04  0.81015240163E+02 0.  0.
        -11    1    3    3    0    0  0.13589739114E+02 -0.80982644122E+01 -0.19726641348E+03  0.19789972406E+03  0.00000000000E+00 0.  1.
         12    1    3    3    0    0  0.11168931809E+02 -0.15267342986E+02 -0.95817061946E+00  0.18940826025E+02  0.00000000000E+00 0. -1.
         13    1    5    5    0    0 -0.84727788016E+02  0.27352675426E+02  0.11774361013E+04  0.11807975015E+04  0.00000000000E+00 0. -1.
        -14    1    5    5    0    0  0.12822500878E+02 -0.18972317829E+01  0.49321908967E+02  0.50996732458E+02  0.00000000000E+00 0.  1.
          5    1    4    4  501    0 -0.42956999092E+02 -0.49002783941E+01  0.24208412489E+02  0.49727619434E+02  0.41800000000E+01 0. -1.
         -5    1    4    4    0  501  0.90103615307E+02  0.28104421490E+01  0.50301107699E+02  0.10331618417E+03  0.41800000000E+01 0. -1.
</event>
<event>
11    1  0.1002087E-008  0.1382077E+03  0.7561462E-02  0.1109576E+00
         22   -1    0    0    0    0  0.00000000000E+00  0.00000000000E+00  0.37788129938E+04  0.37788129938E+04  0.00000000000E+00 0.  1.
         22   -1    0    0    0    0 -0.00000000000E+00 -0.00000000000E+00 -0.44992726926E+03  0.44992726926E+03  0.00000000000E+00 0.  1.
        -24    2    1    2    0    0  0.57159351247E+02  0.10375238380E+02 -0.42433415388E+03  0.43605174198E+03  0.81895119107E+02 0.  0.
         25    2    1    2    0    0 -0.10102393966E+03 -0.42142877647E+01  0.31840060219E+03  0.35671434974E+03  0.12507032914E+03 0.  0.
         24    2    1    2    0    0  0.43864588414E+02 -0.61609506156E+01  0.34348192763E+04  0.34359741714E+04  0.77285097286E+02 0.  0.
        -11    1    5    5    0    0  0.73296437264E+01  0.14029371596E+02  0.26487849633E+04  0.26488322575E+04  0.00000000000E+00 0.  1.
         12    1    5    5    0    0  0.36534944688E+02 -0.20190322212E+02  0.78603431300E+03  0.78714191383E+03  0.00000000000E+00 0. -1.
         11    1    3    3    0    0  0.18095223900E+01  0.53406741602E+01  0.20953461077E+01  0.60156169323E+01  0.00000000000E+00 0. -1.
        -12    1    3    3    0    0  0.55349828857E+02  0.50345642200E+01 -0.42642949999E+03  0.43003612505E+03  0.00000000000E+00 0.  1.
          5    1    4    4  501    0 -0.18753005105E+02 -0.22089278327E+02  0.23941128750E+03  0.24119462763E+03  0.41800000000E+01 0.  1.
         -5    1    4    4    0  501 -0.82270934557E+02  0.17874990563E+02  0.78989314689E+02  0.11551972211E+03  0.41800000000E+01 0.  1.
</event>
<event>
11    1  0.1002087E-008  0.1999284E+03  0.7561462E-02  0.1054574E+00
         22   -1    0    0    0    0  0.00000000000E+00  0.00000000000E+00  0.11600916293E+03  0.11600916293E+03  0.00000000000E+00 0. -1.
         22   -1    0    0    0    0 -0.00000000000E+00 -0.00000000000E+00 -0.20852264946E+04  0.20852264946E+04  0.00000000000E+00 0.  1.
         24    2    1    2    0    0 -0.13293089449E+03 -0.78834098749E+02 -0.16071778017E+04  0.16165909197E+04  0.80375851584E+02 0.  0.
         25    2    1    2    0    0  0.10213012206E+03  0.14434184671E+03 -0.41312771762E+03  0.46646185052E+03  0.12508803451E+03 0.  0.
        -24    2    1    2    0    0  0.30800772437E+02 -0.65507747958E+02  0.51088187675E+02  0.11818288729E+03  0.78212782223E+02 0.  0.
        -13    1    3    3    0    0 -0.98477588300E+02 -0.70776460439E+02 -0.14674553768E+04  0.14724579538E+04  0.00000000000E+00 0.  1.
         14    1    3    3    0    0 -0.34453306192E+02 -0.80576383093E+01 -0.13972242489E+03  0.14413296590E+03  0.00000000000E+00 0. -1.
         11    1    5    5    0    0  0.37983822277E+02 -0.67011003662E+02  0.66082111786E+02  0.10148936331E+03  0.00000000000E+00 0. -1.
        -12    1    5    5    0    0 -0.71830498407E+01  0.15032557040E+01 -0.14993924110E+02  0.16693523982E+02  0.00000000000E+00 0.  1.
          5    1    4    4  501    0  0.71938484035E+02  0.31044596627E+02 -0.74939873707E+02  0.10850055086E+03  0.41800000000E+01 0. -1.
         -5    1    4    4    0  501  0.30191638020E+02  0.11329725008E+03 -0.33818784392E+03  0.35796129966E+03  0.41800000000E+01 0. -1.
</event>
<event>
11    1  0.1002087E-008  0.1499684E+03  0.7561462E-02  0.1096911E+00
         22   -1    0    0    0    0  0.00000000000E+00  0.00000000000E+00  0.32243967807E+03  0.32243967807E+03  0.00000000000E+00 0.  1.
         22   -1    0    0    0    0 -0.00000000000E+00 -0.00000000000E+00 -0.65068273528E+03  0.65068273528E+03  0.00000000000E+00 0.  1.
        -24    2    1    2    0    0  0.45997497197E+02 -0.71693756105E+02 -0.56876792319E+03  0.58095087379E+03  0.82165703898E+02 0.  0.
         25    2    1    2    0    0 -0.86675861950E+01  0.58198351689E+02  0.44368950402E+01  0.13830793131E+03  0.12508885896E+03 0.  0.
         24    2    1    2    0    0 -0.37329911002E+02  0.13495404416E+02  0.23608797094E+03  0.25386360824E+03  0.84460365681E+02 0.  0.
        -11    1    5    5    0    0 -0.50903090076E+02 -0.19540864639E+02  0.17273831425E+03  0.18113943574E+03  0.00000000000E+00 0.  1.
         12    1    5    5    0    0  0.13573179074E+02  0.33036269055E+02  0.63349656684E+02  0.72724172496E+02  0.00000000000E+00 0. -1.
         11    1    3    3    0    0  0.77091763010E+00  0.12998571753E+02 -0.20124222120E+02  0.23969595273E+02  0.00000000000E+00 0. -1.
        -12    1    3    3    0    0  0.45226579567E+02 -0.84692327857E+02 -0.54864370107E+03  0.55698127852E+03  0.00000000000E+00 0.  1.
          5    1    4    4  501    0 -0.51581776105E+01  0.87426990374E+02  0.36147418951E+02  0.94837723185E+02  0.41800000000E+01 0. -1.
         -5    1    4    4    0  501 -0.35094085845E+01 -0.29228638685E+02 -0.31710523911E+02  0.43470208128E+02  0.41800000000E+01 0. -1.
</event>
<event>
11    1  0.1002087E-008  0.1500780E+03  0.7561462E-02  0.1096799E+00
         22   -1    0    0    0    0  0.00000000000E+00  0.00000000000E+00  0.36661313367E+03  0.36661313367E+03  0.00000000000E+00 0.  1.
         22   -1    0    0    0    0 -0.00000000000E+00 -0.00000000000E+00 -0.31232325685E+04  0.31232325685E+04  0.00000000000E+00 0.  1.
         24    2    1    2    0    0 -0.11384950945E+02  0.82160915799E+02 -0.30519282665E+04  0.30541260656E+04  0.80869326669E+02 0.  0.
         25    2    1    2    0    0 -0.10441132193E+02 -0.82806622031E+02  0.23329307528E+02  0.15217868356E+03  0.12509253074E+03 0.  0.
        -24    2    1    2    0    0  0.21826083138E+02  0.64570623125E+00  0.27197952414E+03  0.28354095294E+03  0.77109114892E+02 0.  0.
        -11    1    3    3    0    0  0.32438118260E+02  0.38643387971E+02 -0.17592385186E+04  0.17599618485E+04  0.00000000000E+00 0.  1.
         12    1    3    3    0    0 -0.43823069205E+02  0.43517527829E+02 -0.12926897479E+04  0.12941642171E+04  0.00000000000E+00 0. -1.
         11    1    5    5    0    0 -0.16995451966E+01 -0.36218227380E+02  0.13202424190E+03  0.13691255931E+03  0.00000000000E+00 0. -1.
        -12    1    5    5    0    0  0.23525628334E+02  0.36863933612E+02  0.13995528224E+03  0.14662839362E+03  0.00000000000E+00 0.  1.
          5    1    4    4  501    0 -0.49677754489E+02  0.84835527611E+01  0.29269288224E+01  0.50654607598E+02  0.41800000000E+01 0.  1.
         -5    1    4    4    0  501  0.39236622296E+02 -0.91290174792E+02  0.20402378706E+02  0.10152407596E+03  0.41800000000E+01 0.  1.
</event>
<event>
11    1  0.1002087E-008  0.1346299E+03  0.7561462E-02  0.1113708E+00
         22   -1    0    0    0    0  0.00000000000E+00  0.00000000000E+00  0.17085752168E+03  0.17085752168E+03  0.00000000000E+00 0. -1.
         22   -1    0    0    0    0 -0.00000000000E+00 -0.00000000000E+00 -0.88383960262E+03  0.88383960262E+03  0.00000000000E+00 0.  1.
        -24    2    1    2    0    0  0.14053738230E+02  0.58121145009E+00 -0.70815617405E+03  0.71235939192E+03  0.75979543593E+02 0.  0.
         25    2    1    2    0    0 -0.58716675701E+02  0.18501248394E+02 -0.12635593863E+03  0.18816043552E+03  0.12509429272E+03 0.  0.
         24    2    1    2    0    0  0.44662937471E+02 -0.19082459844E+02  0.12153003174E+03  0.15417729687E+03  0.81499521458E+02 0.  0.
        -13    1    5    5    0    0  0.55705960961E+02  0.10794497021E+02  0.49037964515E+02  0.74995981334E+02  0.00000000000E+00 0.  1.
         14    1    5    5    0    0 -0.11043023490E+02 -0.29876956865E+02  0.72492067222E+02  0.79181315532E+02  0.00000000000E+00 0. -1.
         13    1    3    3    0    0 -0.14038132267E+02 -0.13753402901E+02 -0.54367132971E+02  0.57810123649E+02  0.00000000000E+00 0. -1.
        -14    1    3    3    0    0  0.28091870497E+02  0.14334614351E+02 -0.65378904108E+03  0.65454926827E+03  0.00000000000E+00 0.  1.
          5    1    4    4  501    0 -0.22738479498E+02  0.10821461249E+02  0.22953360886E+02  0.34328874864E+02  0.41800000000E+01 0. -1.
         -5    1    4    4    0  501 -0.35978196203E+02  0.76797871442E+01 -0.14930929951E+03  0.15383156066E+03  0.41800000000E+01 0. -1.
</event>
<event>
11    1  0.1002087E-008  0.2387276E+03  0.7561462E-02  0.1030082E+00
         22   -1    0    0    0    0  0.00000000000E+00  0.00000000000E+00  0.38474310547E+03  0.38474310547E+03  0.00000000000E+00 0.  1.
         22   -1    0    0    0    0 -0.00000000000E+00 -0.00000000000E+00 -0.94755972418E+03  0.94755972418E+03  0.00000000000E+00 0.  1.
        -24    2    1    2    0    0 -0.14140187618E+02  0.45180952705E+02 -0.78017888142E+03  0.78575787272E+03  0.80592084834E+02 0.  0.
         25    2    1    2    0    0 -0.58861988102E+02 -0.22376591883E+03  0.27585484235E+02  0.26446885119E+03  0.12508754629E+03 0.  0.
         24    2    1    2    0    0  0.73002175719E+02  0.17858496613E+03  0.18977677847E+03  0.28207610573E+03  0.79560015038E+02 0.  0.
        -13    1    5    5    0    0  0.82107108480E+02  0.16654704780E+03  0.19166940002E+03  0.26686448864E+03  0.00000000000E+00 0.  1.
         14    1    5    5    0    0 -0.91049327606E+01  0.12037918328E+02 -0.18926215494E+01  0.15211617093E+02  0.00000000000E+00 0. -1.
         13    1    3    3    0    0  0.29670055638E+01  0.27012043800E+02 -0.69247606232E+02  0.74388739747E+02  0.00000000000E+00 0. -1.
        -14    1    3    3    0    0 -0.17107193182E+02  0.18168908905E+02 -0.71093127519E+03  0.71136913298E+03  0.00000000000E+00 0.  1.
          5    1    4    4  501    0 -0.72878444181E+02 -0.22574216942E+03  0.47746692484E+01  0.23729952496E+03  0.41800000000E+01 0. -1.
         -5    1    4    4    0  501  0.14016456080E+02  0.19762505906E+01  0.22810814986E+02  0.27169326230E+02  0.41800000000E+01 0. -1.
</event>
<event>
11    1  0.1002087E-008  0.1802404E+03  0.7561462E-02  0.1069449E+00
         22   -1    0    0    0    0  0.00000000000E+00  0.00000000000E+00  0.18950665435E+04  0.18950665435E+04  0.00000000000E+00 0. -1.
         22   -1    0    0    0    0 -0.00000000000E+00 -0.00000000000E+00 -0.30087038376E+03  0.30087038376E+03  0.00000000000E+00 0.  1.
         24    2    1    2    0    0  0.26623036206E+02 -0.12109439468E+03 -0.22691409855E+03  0.27105015971E+03  0.81274488476E+02 0.  0.
         25    2    1    2    0    0 -0.65626311486E+01  0.21536421299E+03  0.26498303259E+03  0.36371309979E+03  0.12508556687E+03 0.  0.
        -24    2    1    2    0    0 -0.20060405058E+02 -0.94269818310E+02  0.15561272257E+04  0.15611736678E+04  0.80262443451E+02 0.  0.
        -13    1    3    3    0    0  0.13800542413E+02 -0.10189090504E+03 -0.22559453432E+03  0.24792157110E+03  0.00000000000E+00 0.  1.
         14    1    3    3    0    0  0.12822493793E+02 -0.19203489639E+02 -0.13195642328E+01  0.23128588611E+02  0.00000000000E+00 0. -1.
         11    1    5    5    0    0 -0.16152027959E+02 -0.43537211980E+02  0.12487683788E+04  0.12496314820E+04  0.00000000000E+00 0. -1.
        -12    1    5    5    0    0 -0.39083770989E+01 -0.50732606330E+02  0.30735884687E+03  0.31154218575E+03  0.00000000000E+00 0.  1.
          5    1    4    4  501    0 -0.36283295153E+00 -0.40229702769E+01 -0.10176496090E+02  0.11719616473E+02  0.41800000000E+01 0. -1.
         -5    1    4    4    0  501 -0.61997981970E+01  0.21938718327E+03  0.27515952868E+03  0.35199348332E+03  0.41800000000E+01 0. -1.
</event>
<event>
11    1  0.1002087E-008  0.2331556E+03  0.7561462E-02  0.1033276E+00
         22   -1    0    0    0    0  0.00000000000E+00  0.00000000000E+00  0.16383681471E+03  0.16383681471E+03  0.00000000000E+00 0.  1.
         22   -1    0    0    0    0 -0.00000000000E+00 -0.00000000000E+00 -0.64934416246E+03  0.64934416246E+03  0.00000000000E+00 0.  1.
         24    2    1    2    0    0  0.12650523974E+03 -0.16653606363E+03 -0.45912617391E+03  0.51041263638E+03  0.77371697882E+02 0.  0.
         25    2    1    2    0    0 -0.76876253271E+02  0.13652389076E+03 -0.32027541633E+02  0.20303316666E+03  0.12509185535E+03 0.  0.
        -24    2    1    2    0    0 -0.49628986467E+02  0.30012172870E+02  0.56463677979E+01  0.99735174136E+02  0.80941069133E+02 0.  0.
        -11    1    3    3    0    0  0.82477188314E+02 -0.15734830435E+03 -0.37756194264E+03  0.41726969218E+03  0.00000000000E+00 0.  1.
         12    1    3    3    0    0  0.44028051423E+02 -0.91877592818E+01 -0.81564231269E+02  0.93142944205E+02  0.00000000000E+00 0. -1.
         11    1    5    5    0    0  0.21893744935E+02  0.13536958791E+02 -0.26278306385E+01  0.25874520565E+02  0.00000000000E+00 0. -1.
        -12    1    5    5    0    0 -0.71522731402E+02  0.16475214079E+02  0.82741984363E+01  0.73860653571E+02  0.00000000000E+00 0.  1.
          5    1    4    4  501    0 -0.57856648361E+02  0.92030720677E+02 -0.79792983091E+02  0.13491270459E+03  0.41800000000E+01 0.  1.
         -5    1    4    4    0  501 -0.19019604910E+02  0.44493170087E+02  0.47765441458E+02  0.68120462073E+02  0.41800000000E+01 0.  1.
</event>
<event>
11    1  0.1002087E-008  0.1758442E+03  0.7561462E-02  0.1073055E+00
         22   -1    0    0    0    0  0.00000000000E+00  0.00000000000E+00  0.45332241533E+03  0.45332241533E+03  0.00000000000E+00 0. -1.
         22   -1    0    0    0    0 -0.00000000000E+00 -0.00000000000E+00 -0.79901223879E+03  0.79901223879E+03  0.00000000000E+00 0.  1.
        -24    2    1    2    0    0 -0.81139174933E+02  0.13287120561E+03 -0.63866331252E+03  0.66205853152E+03  0.78691482432E+02 0.  0.
         25    2    1    2    0    0  0.65734081021E+02  0.99225330035E+02 -0.40025920491E+02  0.17724589666E+03  0.12508956010E+03 0.  0.
         24    2    1    2    0    0  0.15405093912E+02 -0.23209653564E+03  0.33299940956E+03  0.41303022594E+03  0.74828082938E+02 0.  0.
        -13    1    5    5    0    0  0.17324911135E+02 -0.29012137538E+02  0.91177967438E+02  0.97238255931E+02  0.00000000000E+00 0.  1.
         14    1    5    5    0    0 -0.19198172228E+01 -0.20308439810E+03  0.24182144212E+03  0.31579197001E+03  0.00000000000E+00 0. -1.
         11    1    3    3    0    0 -0.40511415674E+02  0.12599900096E+03 -0.51376789367E+03  0.53054158330E+03  0.00000000000E+00 0. -1.
        -12    1    3    3    0    0 -0.40627759259E+02  0.68722046494E+01 -0.12489541885E+03  0.13151694822E+03  0.00000000000E+00 0.  1.
          5    1    4    4  501    0  0.87214736338E+02  0.11077532918E+03 -0.51253531201E+02  0.15007325095E+03  0.41800000000E+01 0.  1.
         -5    1    4    4    0  501 -0.21480655316E+02 -0.11549999143E+02  0.11227610711E+02  0.27172645718E+02  0.41800000000E+01 0.  1.
</event>
<event>
11    1  0.1002087E-008  0.1561236E+03  0.7561462E-02  0.1090781E+00
         22   -1    0    0    0    0  0.00000000000E+00  0.00000000000E+00  0.45254737291E+03  0.45254737291E+03  0.00000000000E+00 0. -1.
         22   -1    0    0    0    0 -0.00000000000E+00 -0.00000000000E+00 -0.84332061601E+03  0.84332061601E+03  0.00000000000E+00 0. -1.
         24    2    1    2    0    0  0.66428914307E+02 -0.66608878666E+02 -0.76347325797E+03  0.77348910601E+03  0.80897701430E+02 0.  0.
         25    2    1    2    0    0 -0.43604333357E+01  0.10698478612E+03  0.36144153609E+02  0.16857641761E+03  0.12508737304E+03 0.  0.
        -24    2    1    2    0    0 -0.62068480972E+02 -0.40375907456E+02  0.33655586127E+03  0.35380246530E+03  0.80147529389E+02 0.  0.
        -11    1    3    3    0    0  0.84809747034E+02 -0.48136571779E+02 -0.62893201328E+03  0.63644740558E+03  0.00000000000E+00 0.  1.
         12    1    3    3    0    0 -0.18380832727E+02 -0.18472306887E+02 -0.13454124469E+03  0.13704170043E+03  0.00000000000E+00 0. -1.
         13    1    5    5    0    0 -0.58422583347E+02 -0.58590671708E+02  0.20703692640E+03  0.22295818880E+03  0.00000000000E+00 0. -1.
        -14    1    5    5    0    0 -0.36458976248E+01  0.18214764253E+02  0.12951893487E+03  0.13084427651E+03  0.00000000000E+00 0.  1.
          5    1    4    4  501    0 -0.30223155782E+02 -0.46601293422E+00 -0.27410387454E+02  0.41017777291E+02  0.41800000000E+01 0. -1.
         -5    1    4    4    0  501  0.25862722447E+02  0.10745079906E+03  0.63554541063E+02  0.12755864032E+03  0.41800000000E+01 0. -1.
</event>
<event>
11    1  0.1002087E-008  0.1442744E+03  0.7561462E-02  0.1102877E+00
         22   -1    0    0    0    0  0.00000000000E+00  0.00000000000E+00  0.36083918560E+03  0.36083918560E+03  0.00000000000E+00 0.  1.
         22   -1    0    0    0    0 -0.00000000000E+00 -0.00000000000E+00 -0.71921313254E+03  0.71921313254E+03  0.00000000000E+00 0.  1.
        -24    2    1    2    0    0  0.25560024741E+02  0.71178879869E+01 -0.66188589912E+03  0.66715646594E+03  0.79377751292E+02 0.  0.
         25    2    1    2    0    0 -0.11567450916E+02 -0.76851284117E+02  0.89781833809E+02  0.17247514008E+03  0.12508785102E+03 0.  0.
         24    2    1    2    0    0 -0.13992573826E+02  0.69733396130E+02  0.21373011837E+03  0.24042071212E+03  0.84041755452E+02 0.  0.
        -11    1    5    5    0    0  0.46755804010E+01  0.61333565193E+02  0.21098229310E+03  0.21976622869E+03  0.00000000000E+00 0.  1.
         12    1    5    5    0    0 -0.18668154227E+02  0.83998309368E+01  0.27478252711E+01  0.20654483429E+02  0.00000000000E+00 0. -1.
         13    1    3    3    0    0 -0.22735912435E+02  0.12915874920E+02 -0.10724898773E+03  0.11039061060E+03  0.00000000000E+00 0. -1.
        -14    1    3    3    0    0  0.48295937177E+02 -0.57979869329E+01 -0.55463691138E+03  0.55676585534E+03  0.00000000000E+00 0.  1.
          5    1    4    4  501    0  0.30063559006E+02  0.23149276206E+02  0.30917795160E+02  0.49123202528E+02  0.41800000000E+01 0. -1.
         -5    1    4    4    0  501 -0.41631009922E+02 -0.10000056032E+03  0.58864038648E+02  0.12335193755E+03  0.41800000000E+01 0. -1.
</event>
<event>
11    1  0.1002087E-008  0.1409051E+03  0.7561462E-02  0.1106552E+00
         22   -1    0    0    0    0  0.00000000000E+00  0.00000000000E+00  0.20904069579E+03  0.20904069579E+03  0.00000000000E+00 0. -1.
         22   -1    0    0    0    0 -0.00000000000E+00 -0.00000000000E+00 -0.41872387165E+03  0.41872387165E+03  0.00000000000E+00 0. -1.
        -24    2    1    2    0    0 -0.13945161449E+02 -0.18212759582E+02 -0.30552750916E+03  0.31685569374E+03  0.80773136989E+02 0.  0.
         25    2    1    2    0    0 -0.47666145237E+02 -0.12097359678E+02 -0.35861398771E+02  0.13911107587E+03  0.12508974376E+03 0.  0.
         24    2    1    2    0    0  0.61611306686E+02  0.30310119259E+02  0.13170573208E+03  0.17179779783E+03  0.86333232510E+02 0.  0.
        -13    1    5    5    0    0  0.55392223956E+02  0.21506647960E+01  0.24190568858E+02  0.60482290429E+02  0.00000000000E+00 0.  1.
         14    1    5    5    0    0  0.62190827300E+01  0.28159454463E+02  0.10751516322E+03  0.11131550740E+03  0.00000000000E+00 0. -1.
         11    1    3    3    0    0  0.23151090290E+02  0.72541151248E+01 -0.20844810397E+03  0.20985520536E+03  0.00000000000E+00 0. -1.
        -12    1    3    3    0    0 -0.37096251739E+02 -0.25466874706E+02 -0.97079405190E+02  0.10700048837E+03  0.00000000000E+00 0.  1.
          5    1    4    4  501    0  0.17526001106E+02 -0.53767949320E+02 -0.11252973277E+02  0.57812238293E+02  0.41800000000E+01 0. -1.
         -5    1    4    4    0  501 -0.65192146343E+02  0.41670589643E+02 -0.24608425495E+02  0.81298837576E+02  0.41800000000E+01 0. -1.
</event>
<event>
11    1  0.1002087E-008  0.1534294E+03  0.7561462E-02  0.1093425E+00
         22   -1    0    0    0    0  0.00000000000E+00  0.00000000000E+00  0.77209979728E+03  0.77209979728E+03  0.00000000000E+00 0.  1.
         22   -1    0    0    0    0 -0.00000000000E+00 -0.00000000000E+00 -0.44515258552E+03  0.44515258552E+03  0.00000000000E+00 0.  1.
        -24    2    1    2    0    0  0.75695008108E+02 -0.35495791437E+02 -0.34262654387E+03  0.36177023878E+03  0.80592007283E+02 0.  0.
         25    2    1    2    0    0 -0.14000858876E+03  0.45852463473E+02  0.16478890775E+02  0.19397076181E+03  0.12509296248E+03 0.  0.
         24    2    1    2    0    0  0.64313580654E+02 -0.10356672036E+02  0.65309486486E+03  0.66151138220E+03  0.82588794427E+02 0.  0.
        -11    1    5    5    0    0 -0.53870996768E+01 -0.17388909074E+02  0.34805000066E+03  0.34852574935E+03  0.00000000000E+00 0.  1.
         12    1    5    5    0    0  0.69700680331E+02  0.70322370383E+01  0.30504486420E+03  0.31298563285E+03  0.00000000000E+00 0. -1.
         11    1    3    3    0    0 -0.11098738010E+02  0.75052173166E+01 -0.14940744244E+02  0.20068286199E+02  0.00000000000E+00 0. -1.
        -12    1    3    3    0    0  0.86793746119E+02 -0.43001008753E+02 -0.32768579963E+03  0.34170195258E+03  0.00000000000E+00 0.  1.
          5    1    4    4  501    0 -0.10815649123E+03 -0.83850959881E+01 -0.33403379507E+02  0.11358430610E+03  0.41800000000E+01 0.  1.
         -5    1    4    4    0  501 -0.31852097535E+02  0.54237559461E+02  0.49882270282E+02  0.80386455713E+02  0.41800000000E+01 0.  1.
</event>
<event>
11    1  0.1002087E-008  0.1364208E+03  0.7561462E-02  0.1111622E+00
         22   -1    0    0    0    0  0.00000000000E+00  0.00000000000E+00  0.51470487149E+03  0.51470487149E+03  0.00000000000E+00 0.  1.
         22   -1    0    0    0    0 -0.00000000000E+00 -0.00000000000E+00 -0.12385526343E+03  0.12385526343E+03  0.00000000000E+00 0.  1.
        -24    2    1    2    0    0  0.54505259729E+02  0.91290053439E+01 -0.40640876998E+02  0.10563528838E+03  0.80330387719E+02 0.  0.
         25    2    1    2    0    0 -0.51464772233E+02 -0.79217884310E+01  0.52127194843E+02  0.14516213078E+03  0.12507366732E+03 0.  0.
         24    2    1    2    0    0 -0.30404874968E+01 -0.12072169128E+01  0.37936329022E+03  0.38776271576E+03  0.80204213289E+02 0.  0.
        -11    1    5    5    0    0 -0.37185140842E+01 -0.35898039835E+02  0.28398785042E+03  0.28627189138E+03  0.00000000000E+00 0.  1.
         12    1    5    5    0    0  0.67802658740E+00  0.34690822922E+02  0.95375439801E+02  0.10149082438E+03  0.00000000000E+00 0. -1.
         13    1    3    3    0    0  0.30273092515E+02  0.41372434364E+02 -0.44730866631E+01  0.51460149241E+02  0.00000000000E+00 0. -1.
        -14    1    3    3    0    0  0.24232167215E+02 -0.32243429021E+02 -0.36167790335E+02  0.54175139138E+02  0.00000000000E+00 0.  1.
          5    1    4    4  501    0 -0.92724470355E+02 -0.65349227189E+01  0.28030820637E+02  0.97178865620E+02  0.41800000000E+01 0.  1.
         -5    1    4    4    0  501  0.41259698123E+02 -0.13868657121E+01  0.24096374206E+02  0.47983265161E+02  0.41800000000E+01 0.  1.
</event>
<event>
11    1  0.1002087E-008  0.1473388E+03  0.7561462E-02  0.1099629E+00
         22   -1    0    0    0    0  0.00000000000E+00  0.00000000000E+00  0.13083102278E+03  0.13083102278E+03  0.00000000000E+00 0. -1.
         22   -1    0    0    0    0 -0.00000000000E+00 -0.00000000000E+00 -0.37198712440E+04  0.37198712440E+04  0.00000000000E+00 0. -1.
         24    2    1    2    0    0 -0.77931144688E+00  0.85782925094E+02 -0.31714930431E+04  0.31737828943E+04  0.84678334402E+02 0.  0.
         25    2    1    2    0    0  0.28441609161E+02 -0.21002699884E+02 -0.51529173783E+03  0.53143551313E+03  0.12509232994E+03 0.  0.
        -24    2    1    2    0    0 -0.27662297714E+02 -0.64780225210E+02  0.97744559674E+02  0.14548385935E+03  0.81546760155E+02 0.  0.
        -13    1    3    3    0    0  0.29564472704E+02  0.68391779936E+00 -0.65153070493E+03  0.65220149130E+03  0.00000000000E+00 0.  1.
         14    1    3    3    0    0 -0.30343784151E+02  0.85099007295E+02 -0.25199623382E+04  0.25215814030E+04  0.00000000000E+00 0. -1.
         13    1    5    5    0    0 -0.55580004524E+02 -0.48989643192E+02  0.79125816720E+02  0.10839749496E+03  0.00000000000E+00 0. -1.
        -14    1    5    5    0    0  0.27917706810E+02 -0.15790582019E+02  0.18618742954E+02  0.37086364383E+02  0.00000000000E+00 0.  1.
          5    1    4    4  501    0  0.39774557701E+02 -0.63607567672E+02 -0.41578911312E+03  0.42252336870E+03  0.41800000000E+01 0.  1.
         -5    1    4    4    0  501 -0.11332948540E+02  0.42604867789E+02 -0.99502624706E+02  0.10891214443E+03  0.41800000000E+01 0.  1.
</event>
<event>
11    1  0.1002087E-008  0.1277537E+03  0.7561462E-02  0.1122060E+00
         22   -1    0    0    0    0  0.00000000000E+00  0.00000000000E+00  0.42562447301E+03  0.42562447301E+03  0.00000000000E+00 0.  1.
         22   -1    0    0    0    0 -0.00000000000E+00 -0.00000000000E+00 -0.22138960820E+03  0.22138960820E+03  0.00000000000E+00 0. -1.
         24    2    1    2    0    0 -0.98430084923E+01  0.14939816467E+02 -0.16366752450E+03  0.18374018349E+03  0.81567846126E+02 0.  0.
         25    2    1    2    0    0 -0.64203339556E+01  0.79520313275E+01  0.51792515331E+02  0.13577462654E+03  0.12509128298E+03 0.  0.
        -24    2    1    2    0    0  0.16263342448E+02 -0.22891847794E+02  0.31610987398E+03  0.32749927118E+03  0.80881315483E+02 0.  0.
        -13    1    3    3    0    0 -0.20767380332E+02  0.40750838867E+02 -0.55081499923E+02  0.71595297248E+02  0.00000000000E+00 0.  1.
         14    1    3    3    0    0  0.10924371839E+02 -0.25811022400E+02 -0.10858602458E+03  0.11214488625E+03  0.00000000000E+00 0. -1.
         11    1    5    5    0    0  0.46339777990E+02 -0.99533203373E+00  0.13900098927E+03  0.14652522215E+03  0.00000000000E+00 0. -1.
        -12    1    5    5    0    0 -0.30076435543E+02 -0.21896515761E+02  0.17710888472E+03  0.18097404903E+03  0.00000000000E+00 0.  1.
          5    1    4    4  501    0 -0.24482984884E+02  0.59303240006E+02  0.61031688616E+01  0.64583371654E+02  0.41800000000E+01 0.  1.
         -5    1    4    4    0  501  0.18062650929E+02 -0.51351208678E+02  0.45689346470E+02  0.71191254885E+02  0.41800000000E+01 0.  1.
</event>
<event>
11    1  0.1002087E-008  0.1503230E+03  0.7561462E-02  0.1096549E+00
         22   -1    0    0    0    0  0.00000000000E+00  0.00000000000E+00  0.84460258412E+03  0.84460258412E+03  0.00000000000E+00 0. -1.
         22   -1    0    0    0    0 -0.00000000000E+00 -0.00000000000E+00 -0.29912978765E+03  0.29912978765E+03  0.00000000000E+00 0.  1.
        -24    2    1    2    0    0  0.68096023356E+02 -0.52193753895E+02 -0.26180073677E+03  0.28677348519E+03  0.79612497053E+02 0.  0.
         25    2    1    2    0    0 -0.31318705771E+02  0.31211809122E+02  0.18102268149E+03  0.22443627077E+03  0.12508952820E+03 0.  0.
         24    2    1    2    0    0 -0.36777317585E+02  0.20981944773E+02  0.62625085176E+03  0.63252261582E+03  0.78114768792E+02 0.  0.
        -13    1    5    5    0    0 -0.53331106787E+01  0.34161383683E+02  0.11374241395E+03  0.11888136497E+03  0.00000000000E+00 0.  1.
         14    1    5    5    0    0 -0.31444206906E+02 -0.13179438910E+02  0.51250843781E+03  0.51364125085E+03  0.00000000000E+00 0. -1.
         11    1    3    3    0    0  0.83396480205E+02 -0.40379004702E+02 -0.17687301916E+03  0.19967348807E+03  0.00000000000E+00 0. -1.
        -12    1    3    3    0    0 -0.15300456849E+02 -0.11814749193E+02 -0.84927717612E+02  0.87099997113E+02  0.00000000000E+00 0.  1.
          5    1    4    4  501    0 -0.86770510587E+01  0.32535408723E+02 -0.72994036115E+01  0.34707315208E+02  0.41800000000E+01 0.  1.
         -5    1    4    4    0  501 -0.22641654712E+02 -0.13235996012E+01  0.18832208510E+03  0.18972895557E+03  0.41800000000E+01 0.  1.
</event>
<event>
11    1  0.1002087E-008  0.1517029E+03  0.7561462E-02  0.1095151E+00
         22   -1    0    0    0    0  0.00000000000E+00  0.00000000000E+00  0.43491686210E+03  0.43491686210E+03  0.00000000000E+00 0.  1.
         22   -1    0    0    0    0 -0.00000000000E+00 -0.00000000000E+00 -0.45659427485E+03  0.45659427485E+03  0.00000000000E+00 0.  1.
        -24    2    1    2    0    0 -0.80987748637E+02  0.36932868975E+02 -0.36862682300E+03  0.38779456887E+03  0.81091557929E+02 0.  0.
         25    2    1    2    0    0  0.29536841652E+02  0.44101072711E+02  0.10565104371E+01  0.13589224648E+03  0.12509299265E+03 0.  0.
         24    2    1    2    0    0  0.51450906985E+02 -0.81033941686E+02  0.34589289981E+03  0.36782432161E+03  0.80244238969E+02 0.  0.
        -13    1    5    5    0    0  0.42601295130E+02 -0.73631258321E+02  0.34598204675E+03  0.35628641460E+03  0.00000000000E+00 0.  1.
         14    1    5    5    0    0  0.88496118548E+01 -0.74026833649E+01 -0.89146940904E-01  0.11537907009E+02  0.00000000000E+00 0. -1.
         11    1    3    3    0    0  0.12596395928E+02 -0.95523901717E+01 -0.43103351278E+02  0.45910959909E+02  0.00000000000E+00 0. -1.
        -12    1    3    3    0    0 -0.93584144565E+02  0.46485259146E+02 -0.32552347172E+03  0.34188360896E+03  0.00000000000E+00 0.  1.
          5    1    4    4  501    0  0.35132995552E+02  0.25804814713E+02  0.59714830550E+02  0.74050990719E+02  0.41800000000E+01 0. -1.
         -5    1    4    4    0  501 -0.55961538997E+01  0.18296257998E+02 -0.58658320113E+02  0.61841255758E+02  0.41800000000E+01 0. -1.
</event>
<event>
11    1  0.1002087E-008  0.1490833E+03  0.7561462E-02  0.1097819E+00
         22   -1    0    0    0    0  0.00000000000E+00  0.00000000000E+00  0.27168935415E+03  0.27168935415E+03  0.00000000000E+00 0. -1.
         22   -1    0    0    0    0 -0.00000000000E+00 -0.00000000000E+00 -0.53944931439E+03  0.53944931439E+03  0.00000000000E+00 0.  1.
        -24    2    1    2    0    0 -0.80475448185E+02 -0.17844142286E+02 -0.43694422084E+03  0.45181612026E+03  0.80142642983E+02 0.  0.
         25    2    1    2    0    0  0.56512211454E+02  0.60177806674E+02 -0.19868856607E+02  0.15117899587E+03  0.12508124907E+03 0.  0.
         24    2    1    2    0    0  0.23963236731E+02 -0.42333664388E+02  0.18905311721E+03  0.20814355241E+03  0.72223828682E+02 0.  0.
        -13    1    5    5    0    0  0.36267928005E+02 -0.35604499667E+01  0.42184834629E+02  0.55745848979E+02  0.00000000000E+00 0.  1.
         14    1    5    5    0    0 -0.12304691274E+02 -0.38773214421E+02  0.14686828258E+03  0.15239770343E+03  0.00000000000E+00 0. -1.
         11    1    3    3    0    0 -0.53254316539E+02 -0.30507667748E+02 -0.13398239842E+03  0.14737036034E+03  0.00000000000E+00 0. -1.
        -12    1    3    3    0    0 -0.27221131646E+02  0.12663525462E+02 -0.30296182242E+03  0.30444575992E+03  0.00000000000E+00 0.  1.
          5    1    4    4  501    0  0.90296921650E+02  0.29446522155E+02  0.11285390859E+02  0.95736430753E+02  0.41800000000E+01 0. -1.
         -5    1    4    4    0  501 -0.33784710196E+02  0.30731284518E+02 -0.31154247466E+02  0.55442565113E+02  0.41800000000E+01 0. -1.
</event>
<event>
11    1  0.1002087E-008  0.1367909E+03  0.7561462E-02  0.1111196E+00
         22   -1    0    0    0    0  0.00000000000E+00  0.00000000000E+00  0.87525960158E+02  0.87525960158E+02  0.00000000000E+00 0.  1.
         22   -1    0    0    0    0 -0.00000000000E+00 -0.00000000000E+00 -0.28513799278E+04  0.28513799278E+04  0.00000000000E+00 0.  1.
        -24    2    1    2    0    0 -0.66419693225E+02  0.24592033894E+02 -0.26718856663E+04  0.26740785741E+04  0.81895437094E+02 0.  0.
         25    2    1    2    0    0 -0.31195642433E+01 -0.45083691100E+02 -0.81517945782E+02  0.15599439716E+03  0.12508719189E+03 0.  0.
         24    2    1    2    0    0  0.69539257469E+02  0.20491657206E+02 -0.10450355547E+02  0.10883291674E+03  0.80497065107E+02 0.  0.
        -13    1    5    5    0    0  0.19466846249E+02  0.42653505167E+02  0.13903360269E+02  0.48903814091E+02  0.00000000000E+00 0.  1.
         14    1    5    5    0    0  0.50072411219E+02 -0.22161847960E+02 -0.24353715816E+02  0.59929102649E+02  0.00000000000E+00 0. -1.
         13    1    3    3    0    0 -0.45892948375E+02  0.34831526632E+01 -0.53112334756E+03  0.53311378278E+03  0.00000000000E+00 0. -1.
        -14    1    3    3    0    0 -0.20526744850E+02  0.21108881231E+02 -0.21407623188E+04  0.21409647913E+04  0.00000000000E+00 0.  1.
          5    1    4    4  501    0  0.35929365636E+02  0.29723977064E+02 -0.17463907616E+02  0.49968936318E+02  0.41800000000E+01 0.  1.
         -5    1    4    4    0  501 -0.39048929879E+02 -0.74807668165E+02 -0.64054038166E+02  0.10602546084E+03  0.41800000000E+01 0.  1.
</event>
<event>
11    1  0.1002087E-008  0.2416591E+03  0.7561462E-02  0.1028439E+00
         22   -1    0    0    0    0  0.00000000000E+00  0.00000000000E+00  0.15860345461E+04  0.15860345461E+04  0.00000000000E+00 0. -1.
         22   -1    0    0    0    0 -0.00000000000E+00 -0.00000000000E+00 -0.48692809324E+03  0.48692809324E+03  0.00000000000E+00 0. -1.
         24    2    1    2    0    0  0.43988144432E+02 -0.38014573282E+02 -0.27113912507E+03  0.28921701266E+03  0.82158326659E+02 0.  0.
         25    2    1    2    0    0  0.47244879609E+02  0.22290290092E+03 -0.11346497428E+03  0.28361823853E+03  0.12508886022E+03 0.  0.
        -24    2    1    2    0    0 -0.91233024042E+02 -0.18488832764E+03  0.14837105522E+04  0.15001273882E+04  0.80486145080E+02 0.  0.
        -13    1    3    3    0    0  0.24202810599E+02  0.12170939997E+02 -0.23789940795E+02  0.36053697513E+02  0.00000000000E+00 0.  1.
         14    1    3    3    0    0  0.19785333833E+02 -0.50185513279E+02 -0.24734918427E+03  0.25316331515E+03  0.00000000000E+00 0. -1.
         11    1    5    5    0    0 -0.81826460156E+02 -0.16513421764E+03  0.10637034148E+04  0.10795507557E+04  0.00000000000E+00 0. -1.
        -12    1    5    5    0    0 -0.94065638855E+01 -0.19754110000E+02  0.42000713740E+03  0.42057663247E+03  0.00000000000E+00 0.  1.
          5    1    4    4  501    0  0.35693089132E+02  0.22732285267E+03 -0.12859357082E+03  0.26363507888E+03  0.41800000000E+01 0.  1.
         -5    1    4    4    0  501  0.11551790477E+02 -0.44199517448E+01  0.15128596540E+02  0.19983159658E+02  0.41800000000E+01 0.  1.
</event>
<event>
11    1  0.1002087E-008  0.2007198E+03  0.7561462E-02  0.1054016E+00
         22   -1    0    0    0    0  0.00000000000E+00  0.00000000000E+00  0.11687941684E+04  0.11687941684E+04  0.00000000000E+00 0. -1.
         22   -1    0    0    0    0 -0.00000000000E+00 -0.00000000000E+00 -0.18919425538E+04  0.18919425538E+04  0.00000000000E+00 0. -1.
        -24    2    1    2    0    0 -0.14245428798E+03  0.67502337194E+02 -0.18667528099E+04  0.18752018238E+04  0.82255925142E+02 0.  0.
         25    2    1    2    0    0  0.92363579427E+02 -0.40989906436E+02  0.33761273402E+03  0.37395353516E+03  0.12509070729E+03 0.  0.
         24    2    1    2    0    0  0.50090708554E+02 -0.26512430758E+02  0.80599169046E+03  0.81158136322E+03  0.76352576650E+02 0.  0.
        -13    1    5    5    0    0  0.59334228778E+01  0.12476740697E+02  0.26665433509E+02  0.30031981448E+02  0.00000000000E+00 0.  1.
         14    1    5    5    0    0  0.44157285676E+02 -0.38989171455E+02  0.77932625695E+03  0.78154938177E+03  0.00000000000E+00 0. -1.
         13    1    3    3    0    0 -0.69345707684E+02 -0.59688080803E+01 -0.96628025178E+03  0.96878376267E+03  0.00000000000E+00 0. -1.
        -14    1    3    3    0    0 -0.73108580296E+02  0.73471145274E+02 -0.90047255809E+03  0.90641806115E+03  0.00000000000E+00 0.  1.
          5    1    4    4  501    0  0.12012471135E+02 -0.70034166979E+02  0.11240018828E+03  0.13304269515E+03  0.41800000000E+01 0. -1.
         -5    1    4    4    0  501  0.80351108291E+02  0.29044260544E+02  0.22521254574E+03  0.24091084001E+03  0.41800000000E+01 0. -1.
</event>
<event>
11    1  0.1002087E-008  0.1498429E+03  0.7561462E-02  0.1097039E+00
         22   -1    0    0    0    0  0.00000000000E+00  0.00000000000E+00  0.11968664675E+03  0.11968664675E+03  0.00000000000E+00 0. -1.
         22   -1    0    0    0    0 -0.00000000000E+00 -0.00000000000E+00 -0.13792383395E+04  0.13792383395E+04  0.00000000000E+00 0. -1.
        -24    2    1    2    0    0  0.46292763082E+02 -0.13208597494E+02 -0.78031018642E+03  0.78582289760E+03  0.79474224840E+02 0.  0.
         25    2    1    2    0    0  0.38143976205E+01  0.79874834614E+02 -0.55398652052E+03  0.57353553314E+03  0.12508958400E+03 0.  0.
         24    2    1    2    0    0 -0.50107160702E+02 -0.66666237120E+02  0.74745014203E+02  0.13956655549E+03  0.83288003560E+02 0.  0.
        -13    1    5    5    0    0 -0.24268895454E+02  0.17339853967E+02  0.22021396118E+02  0.37075486634E+02  0.00000000000E+00 0.  1.
         14    1    5    5    0    0 -0.25838265248E+02 -0.84006091087E+02  0.52723618085E+02  0.10249106885E+03  0.00000000000E+00 0. -1.
         11    1    3    3    0    0  0.60382221574E+02 -0.32541327185E+02 -0.60894982402E+03  0.61280081498E+03  0.00000000000E+00 0. -1.
        -12    1    3    3    0    0 -0.14089458492E+02  0.19332729691E+02 -0.17136036239E+03  0.17302208263E+03  0.00000000000E+00 0.  1.
          5    1    4    4  501    0 -0.22159908067E+02 -0.28413707106E+02 -0.16232592288E+03  0.16632972649E+03  0.41800000000E+01 0. -1.
         -5    1    4    4    0  501  0.25974305687E+02  0.10828854172E+03 -0.39166059764E+03  0.40720580665E+03  0.41800000000E+01 0. -1.
</event>
<event>
11    1  0.1002087E-008  0.2131699E+03  0.7561462E-02  0.1045582E+00
         22   -1    0    0    0    0  0.00000000000E+00  0.00000000000E+00  0.18133525376E+03  0.18133525376E+03  0.00000000000E+00 0. -1.
         22   -1    0    0    0    0 -0.00000000000E+00 -0.00000000000E+00 -0.44773195117E+03  0.44773195117E+03  0.00000000000E+00 0. -1.
         24    2    1    2    0    0  0.99958070076E+02 -0.14110368469E+03 -0.22244646399E+03  0.29273736269E+03  0.79440975367E+02 0.  0.
         25    2    1    2    0    0 -0.33491360940E+02  0.18113494311E+03 -0.26313934639E+02  0.22421351870E+03  0.12509092668E+03 0.  0.
        -24    2    1    2    0    0 -0.66466709136E+02 -0.40031258425E+02 -0.17636298781E+02  0.11211632354E+03  0.78985479014E+02 0.  0.
        -13    1    3    3    0    0 -0.12682514812E+01  0.90811116264E+01 -0.11474671321E+02  0.14688197034E+02  0.00000000000E+00 0.  1.
         14    1    3    3    0    0  0.10122632156E+03 -0.15018479631E+03 -0.21097179267E+03  0.27804916565E+03  0.00000000000E+00 0. -1.
         11    1    5    5    0    0 -0.35186110922E+02 -0.13914269749E+02 -0.48128340975E+02  0.61220964624E+02  0.00000000000E+00 0. -1.
        -12    1    5    5    0    0 -0.31280598215E+02 -0.26116988676E+02  0.30492042194E+02  0.50895358917E+02  0.00000000000E+00 0.  1.
          5    1    4    4  501    0 -0.73389222961E+02  0.75825751329E+02 -0.34824298463E+02  0.11120128945E+03  0.41800000000E+01 0.  1.
         -5    1    4    4    0  501  0.39897862021E+02  0.10530919178E+03  0.85103638236E+01  0.11301222925E+03  0.41800000000E+01 0.  1.
</event>
<event>
11    1  0.1002087E-008  0.1452445E+03  0.7561462E-02  0.1101839E+00
         22   -1    0    0    0    0  0.00000000000E+00  0.00000000000E+00  0.22857031564E+04  0.22857031564E+04  0.00000000000E+00 0. -1.
         22   -1    0    0    0    0 -0.00000000000E+00 -0.00000000000E+00 -0.24306430411E+03  0.24306430411E+03  0.00000000000E+00 0. -1.
        -24    2    1    2    0    0 -0.68107515308E+02 -0.25144795530E+02 -0.20593537610E+03  0.23189970389E+03  0.78084564110E+02 0.  0.
         25    2    1    2    0    0  0.97867015557E+02  0.23233839749E+02  0.25701330896E+03  0.30302076565E+03  0.12509188378E+03 0.  0.
         24    2    1    2    0    0 -0.29759500250E+02  0.19109557808E+01  0.19915609195E+04  0.19938469910E+04  0.90673303690E+02 0.  0.
        -11    1    5    5    0    0  0.31851311049E+02 -0.65184965131E+01  0.56973356735E+03  0.57066043719E+03  0.00000000000E+00 0.  1.
         12    1    5    5    0    0 -0.61610811299E+02  0.84294522939E+01  0.14218273521E+04  0.14231865538E+04  0.00000000000E+00 0. -1.
         11    1    3    3    0    0 -0.77535814468E+02 -0.22942516432E+02 -0.11574771176E+03  0.14119381843E+03  0.00000000000E+00 0. -1.
        -12    1    3    3    0    0  0.94282991607E+01 -0.22022790981E+01 -0.90187664335E+02  0.90705885457E+02  0.00000000000E+00 0.  1.
          5    1    4    4  501    0  0.51327484323E+02 -0.40248004631E+02  0.18517557182E+03  0.19637178341E+03  0.41800000000E+01 0. -1.
         -5    1    4    4    0  501  0.46539531234E+02  0.63481844380E+02  0.71837737147E+02  0.10664898223E+03  0.41800000000E+01 0. -1.
</event>
<event>
11    1  0.1002087E-008  0.3289748E+03  0.7561462E-02  0.9886231E-01
         22   -1    0    0    0    0  0.00000000000E+00  0.00000000000E+00  0.30831870332E+03  0.30831870332E+03  0.00000000000E+00 0.  1.
         22   -1    0    0    0    0 -0.00000000000E+00 -0.00000000000E+00 -0.27069817911E+04  0.27069817911E+04  0.00000000000E+00 0.  1.
        -24    2    1    2    0    0 -0.60822077792E+02  0.27739530525E+02 -0.13038309464E+04  0.13080693065E+04  0.81248797487E+02 0.  0.
         25    2    1    2    0    0 -0.15375090445E+03 -0.24542928643E+03 -0.12950990235E+04  0.13329681237E+04  0.12509061801E+03 0.  0.
         24    2    1    2    0    0  0.21457298224E+03  0.21768975591E+03  0.20026688217E+03  0.37426306423E+03  0.80843197728E+02 0.  0.
        -13    1    5    5    0    0  0.20368005094E+03  0.16438055434E+03  0.16398490640E+03  0.30886498559E+03  0.00000000000E+00 0.  1.
         14    1    5    5    0    0  0.10892931297E+02  0.53309201565E+02  0.36281975770E+02  0.65398078638E+02  0.00000000000E+00 0. -1.
         13    1    3    3    0    0  0.48123348018E+01  0.14303340637E+02 -0.45123715396E+02  0.47580393133E+02  0.00000000000E+00 0. -1.
        -14    1    3    3    0    0 -0.65634412594E+02  0.13436189888E+02 -0.12587072310E+04  0.12604889134E+04  0.00000000000E+00 0.  1.
          5    1    4    4  501    0 -0.99570990670E+02 -0.23512186344E+03 -0.96249091836E+03  0.99579260550E+03  0.41800000000E+01 0. -1.
         -5    1    4    4    0  501 -0.54179913776E+02 -0.10307422992E+02 -0.33260810517E+03  0.33717551817E+03  0.41800000000E+01 0. -1.
</event>
<event>
11    1  0.1002087E-008  0.2463667E+03  0.7561462E-02  0.1025853E+00
         22   -1    0    0    0    0  0.00000000000E+00  0.00000000000E+00  0.63539405447E+02  0.63539405447E+02  0.00000000000E+00 0.  1.
         22   -1    0    0    0    0 -0.00000000000E+00 -0.00000000000E+00 -0.31268461012E+04  0.31268461012E+04  0.00000000000E+00 0.  1.
        -24    2    1    2    0    0 -0.65010773687E+02  0.19152530259E+03 -0.21245538948E+04  0.21356743927E+04  0.80420875768E+02 0.  0.
         25    2    1    2    0    0  0.14496545229E+03 -0.21665544125E+03 -0.87967061312E+03  0.92597089769E+03  0.12508858140E+03 0.  0.
         24    2    1    2    0    0 -0.79954678607E+02  0.25130138665E+02 -0.59082187825E+02  0.12874021631E+03  0.77839988927E+02 0.  0.
        -13    1    5    5    0    0  0.10141165872E+02  0.20707289772E+02 -0.19646642497E+02  0.30292336594E+02  0.00000000000E+00 0.  1.
         14    1    5    5    0    0 -0.90095844478E+02  0.44228488931E+01 -0.39435545328E+02  0.98447879712E+02  0.00000000000E+00 0. -1.
         13    1    3    3    0    0 -0.15088145491E+02  0.23308615498E+02 -0.66999073071E+03  0.67056582296E+03  0.00000000000E+00 0. -1.
        -14    1    3    3    0    0 -0.49922628196E+02  0.16821668709E+03 -0.14545631641E+04  0.14651085697E+04  0.00000000000E+00 0.  1.
          5    1    4    4  501    0  0.12422386763E+03 -0.21972760808E+03 -0.86208566485E+03  0.89828779185E+03  0.41800000000E+01 0. -1.
         -5    1    4    4    0  501  0.20741584666E+02  0.30721668265E+01 -0.17584948272E+02  0.27683105844E+02  0.41800000000E+01 0. -1.
</event>
<event>
11    1  0.1002087E-008  0.1554777E+03  0.7561462E-02  0.1091409E+00
         22   -1    0    0    0    0  0.00000000000E+00  0.00000000000E+00  0.10013299181E+04  0.10013299181E+04  0.00000000000E+00 0. -1.
         22   -1    0    0    0    0 -0.00000000000E+00 -0.00000000000E+00 -0.29650830875E+03  0.29650830875E+03  0.00000000000E+00 0.  1.
        -24    2    1    2    0    0  0.44491381236E+02  0.41716758261E+02 -0.25276281747E+03  0.27055786485E+03  0.74784660275E+02 0.  0.
         25    2    1    2    0    0  0.43180790710E+02  0.76440817345E+01  0.11661269699E+03  0.17654622707E+03  0.12508811503E+03 0.  0.
         24    2    1    2    0    0 -0.87672171947E+02 -0.49360839996E+02  0.84097172979E+03  0.85073413488E+03  0.79951333288E+02 0.  0.
        -11    1    5    5    0    0 -0.58142118838E+02 -0.49656522695E+02  0.32321291334E+03  0.33213380372E+03  0.00000000000E+00 0.  1.
         12    1    5    5    0    0 -0.29530053109E+02  0.29568269928E+00  0.51775881645E+03  0.51860033116E+03  0.00000000000E+00 0. -1.
         11    1    3    3    0    0 -0.26495599781E+01  0.28088728961E+02 -0.25408867556E+02  0.37968505543E+02  0.00000000000E+00 0. -1.
        -12    1    3    3    0    0  0.47140941214E+02  0.13628029301E+02 -0.22735394991E+03  0.23258935931E+03  0.00000000000E+00 0.  1.
          5    1    4    4  501    0  0.26280915991E+02 -0.14228634726E+02  0.13805505659E+03  0.14131458397E+03  0.41800000000E+01 0.  1.
         -5    1    4    4    0  501  0.16899874719E+02  0.21872716460E+02 -0.21442359597E+02  0.35231643106E+02  0.41800000000E+01 0.  1.
</event>
<event>
11    1  0.1002087E-008  0.1432249E+03  0.7561462E-02  0.1104010E+00
         22   -1    0    0    0    0  0.00000000000E+00  0.00000000000E+00  0.14420394910E+03  0.14420394910E+03  0.00000000000E+00 0.  1.
         22   -1    0    0    0    0 -0.00000000000E+00 -0.00000000000E+00 -0.20260956094E+04  0.20260956094E+04  0.00000000000E+00 0. -1.
        -24    2    1    2    0    0 -0.64750902538E+02 -0.27028878073E+02 -0.18638199385E+04  0.18668516011E+04  0.79918070241E+02 0.  0.
         25    2    1    2    0    0  0.45253720774E+02  0.47576392546E+02 -0.10756885984E+03  0.17756666651E+03  0.12508976408E+03 0.  0.
         24    2    1    2    0    0  0.19497181764E+02 -0.20547514473E+02  0.89497137982E+02  0.12588129088E+03  0.83869072009E+02 0.  0.
        -13    1    5    5    0    0 -0.30307727506E+02  0.48811142110E+01  0.44718693487E+02  0.54241544684E+02  0.00000000000E+00 0.  1.
         14    1    5    5    0    0  0.49804909270E+02 -0.25428628684E+02  0.44778444496E+02  0.71639746200E+02  0.00000000000E+00 0. -1.
         13    1    3    3    0    0 -0.79613590792E+02 -0.13994107356E+02 -0.11902955296E+04  0.11930371355E+04  0.00000000000E+00 0. -1.
        -14    1    3    3    0    0  0.14862688254E+02 -0.13034770717E+02 -0.67352440887E+03  0.67381446563E+03  0.00000000000E+00 0.  1.
          5    1    4    4  501    0 -0.53897240038E+01  0.37533051463E+02 -0.11861920415E+03  0.12460243605E+03  0.41800000000E+01 0.  1.
         -5    1    4    4    0  501  0.50643444778E+02  0.10043341083E+02  0.11050344312E+02  0.52964230463E+02  0.41800000000E+01 0.  1.
</event>
<event>
11    1  0.1002087E-008  0.1636791E+03  0.7561462E-02  0.1083667E+00
         22   -1    0    0    0    0  0.00000000000E+00  0.00000000000E+00  0.22937982108E+03  0.22937982108E+03  0.00000000000E+00 0. -1.
         22   -1    0    0    0    0 -0.00000000000E+00 -0.00000000000E+00 -0.10493655793E+04  0.10493655793E+04  0.00000000000E+00 0. -1.
        -24    2    1    2    0    0  0.75955065448E+02 -0.35822307053E+02 -0.85564587535E+03  0.86353908863E+03  0.80730935473E+02 0.  0.
         25    2    1    2    0    0 -0.73918613484E+02 -0.74192047423E+02 -0.12412843105E+03  0.20499649998E+03  0.12508907342E+03 0.  0.
         24    2    1    2    0    0 -0.20364519641E+01  0.11001435448E+03  0.15978854822E+03  0.21020981172E+03  0.80922675908E+02 0.  0.
        -11    1    5    5    0    0  0.14409205770E+02  0.84732263744E+02  0.57108462107E+02  0.10319185130E+03  0.00000000000E+00 0.  1.
         12    1    5    5    0    0 -0.16445657734E+02  0.25282090733E+02  0.10268008611E+03  0.10701796043E+03  0.00000000000E+00 0. -1.
         11    1    3    3    0    0  0.70785617425E+02 -0.47053084132E+00 -0.71226616761E+03  0.71577504745E+03  0.00000000000E+00 0. -1.
        -12    1    3    3    0    0  0.51694480229E+01 -0.35351776212E+02 -0.14337970774E+03  0.14776404118E+03  0.00000000000E+00 0.  1.
          5    1    4    4  501    0 -0.55182216557E+01 -0.90889885546E+02 -0.83397229827E+02  0.12354753097E+03  0.41800000000E+01 0.  1.
         -5    1    4    4    0  501 -0.68400391828E+02  0.16697838123E+02 -0.40731201225E+02  0.81448969014E+02  0.41800000000E+01 0.  1.
</event>
<event>
11    1  0.1002087E-008  0.1391587E+03  0.7561462E-02  0.1108502E+00
         22   -1    0    0    0    0  0.00000000000E+00  0.00000000000E+00  0.44445589107E+03  0.44445589107E+03  0.00000000000E+00 0.  1.
         22   -1    0    0    0    0 -0.00000000000E+00 -0.00000000000E+00 -0.21225196069E+04  0.21225196069E+04  0.00000000000E+00 0.  1.
         24    2    1    2    0    0 -0.24335628776E+01  0.57179590487E+02 -0.19443709319E+04  0.19468542238E+04  0.79922590634E+02 0.  0.
         25    2    1    2    0    0 -0.30752539011E+02 -0.10631871105E+03 -0.12959941780E+03  0.21140644308E+03  0.12508912065E+03 0.  0.
        -24    2    1    2    0    0  0.33186101889E+02  0.49139120567E+02  0.39590663386E+03  0.40871483099E+03  0.82400120211E+02 0.  0.
        -13    1    3    3    0    0 -0.24860260957E+02  0.66027711709E+02 -0.11832339124E+04  0.11853354727E+04  0.00000000000E+00 0.  1.
         14    1    3    3    0    0  0.22426698080E+02 -0.88481212221E+01 -0.76113701945E+03  0.76151875119E+03  0.00000000000E+00 0. -1.
         11    1    5    5    0    0  0.53610368177E+02  0.61997740141E+01  0.21092516568E+03  0.21771985277E+03  0.00000000000E+00 0. -1.
        -12    1    5    5    0    0 -0.20424266288E+02  0.42939346553E+02  0.18498146818E+03  0.19099497822E+03  0.00000000000E+00 0.  1.
          5    1    4    4  501    0  0.33278155042E+01 -0.12661529604E+03 -0.92094323066E+02  0.15665677224E+03  0.41800000000E+01 0. -1.
         -5    1    4    4    0  501 -0.34080354515E+02  0.20296584986E+02 -0.37505094735E+02  0.54749670840E+02  0.41800000000E+01 0. -1.
</event>
<event>
11    1  0.1002087E-008  0.1331190E+03  0.7561462E-02  0.1115495E+00
         22   -1    0    0    0    0  0.00000000000E+00  0.00000000000E+00  0.53809256342E+03  0.53809256342E+03  0.00000000000E+00 0.  1.
         22   -1    0    0    0    0 -0.00000000000E+00 -0.00000000000E+00 -0.33498796330E+03  0.33498796330E+03  0.00000000000E+00 0. -1.
        -24    2    1    2    0    0  0.19799510158E+02  0.42260090668E+02 -0.28815391470E+03  0.30278590762E+03  0.80428175571E+02 0.  0.
         25    2    1    2    0    0 -0.15157008092E+02 -0.23126259742E+02  0.80085592298E+02  0.15108553677E+03  0.12509427862E+03 0.  0.
         24    2    1    2    0    0 -0.46425020654E+01 -0.19133830926E+02  0.41117292252E+03  0.41920908234E+03  0.79280679802E+02 0.  0.
        -13    1    5    5    0    0 -0.10489668440E+02 -0.35460723142E+02  0.39040474699E+03  0.39215221853E+03  0.00000000000E+00 0.  1.
         14    1    5    5    0    0  0.58471663749E+01  0.16326892216E+02  0.20768175534E+02  0.27056863807E+02  0.00000000000E+00 0. -1.
         13    1    3    3    0    0  0.22484637311E+02  0.60890685910E+02 -0.15119062190E+03  0.16453522023E+03  0.00000000000E+00 0. -1.
        -14    1    3    3    0    0 -0.26851271527E+01 -0.18630595242E+02 -0.13696329281E+03  0.13825068739E+03  0.00000000000E+00 0.  1.
          5    1    4    4  501    0 -0.28432191383E+02  0.24260545499E+02 -0.17676838365E+02  0.41556065614E+02  0.41800000000E+01 0. -1.
         -5    1    4    4    0  501  0.13275183290E+02 -0.47386805241E+02  0.97762430662E+02  0.10952947115E+03  0.41800000000E+01 0. -1.
</event>
<event>
11    1  0.1002087E-008  0.1588491E+03  0.7561462E-02  0.1088165E+00
         22   -1    0    0    0    0  0.00000000000E+00  0.00000000000E+00  0.21025732369E+04  0.21025732369E+04  0.00000000000E+00 0.  1.
         22   -1    0    0    0    0 -0.00000000000E+00 -0.00000000000E+00 -0.61651025614E+03  0.61651025614E+03  0.00000000000E+00 0. -1.
        -24    2    1    2    0    0  0.82367197423E+01  0.18286099201E+02 -0.59457378798E+03  0.60488472917E+03  0.10938611089E+03 0.  0.
         25    2    1    2    0    0  0.88563128366E+02  0.53331250456E+01  0.39428431669E+03  0.42305958684E+03  0.12508965466E+03 0.  0.
         24    2    1    2    0    0 -0.96799848108E+02 -0.23619224247E+02  0.16863524521E+04  0.16911391770E+04  0.78987627028E+02 0.  0.
        -13    1    5    5    0    0 -0.92935121980E+02 -0.38892925392E+02  0.16115294329E+04  0.16146754192E+04  0.00000000000E+00 0.  1.
         14    1    5    5    0    0 -0.38647261286E+01  0.15273701145E+02  0.74823019201E+02  0.76463757801E+02  0.00000000000E+00 0. -1.
         11    1    3    3    0    0  0.27543315825E+01 -0.14150823740E+01 -0.57942973874E+03  0.57943801302E+03  0.00000000000E+00 0. -1.
        -12    1    3    3    0    0  0.54823881598E+01  0.19701181575E+02 -0.15144049243E+02  0.25446716151E+02  0.00000000000E+00 0.  1.
          5    1    4    4  501    0 -0.14149300543E+02  0.30591074559E+02  0.36118294898E+02  0.49578424489E+02  0.41800000000E+01 0. -1.
         -5    1    4    4    0  501  0.10271242891E+03 -0.25257949513E+02  0.35816602179E+03  0.37348116235E+03  0.41800000000E+01 0. -1.
</event>
<event>
11    1  0.1002087E-008  0.1376070E+03  0.7561462E-02  0.1110260E+00
         22   -1    0    0    0    0  0.00000000000E+00  0.00000000000E+00  0.12000584329E+04  0.12000584329E+04  0.00000000000E+00 0. -1.
         22   -1    0    0    0    0 -0.00000000000E+00 -0.00000000000E+00 -0.65552466982E+03  0.65552466982E+03  0.00000000000E+00 0. -1.
        -24    2    1    2    0    0 -0.37208057015E+02  0.48916991397E+02 -0.52914926692E+03  0.53771518406E+03  0.73221314691E+02 0.  0.
         25    2    1    2    0    0  0.20847305598E+02 -0.15242046331E+02 -0.86457150574E+02  0.15423600855E+03  0.12508787840E+03 0.  0.
         24    2    1    2    0    0  0.16360751417E+02 -0.33674945066E+02  0.11601401805E+04  0.11636319101E+04  0.81928673497E+02 0.  0.
        -13    1    5    5    0    0 -0.26824178408E+02  0.87890223740E+01  0.46620193603E+03  0.46705570184E+03  0.00000000000E+00 0.  1.
         14    1    5    5    0    0  0.43184929825E+02 -0.42463967440E+02  0.69393824451E+03  0.69657620824E+03  0.00000000000E+00 0. -1.
         11    1    3    3    0    0 -0.39024767189E+02  0.43840209496E+02 -0.52907703866E+03  0.53232265522E+03  0.00000000000E+00 0. -1.
        -12    1    3    3    0    0  0.18167101740E+01  0.50767819016E+01 -0.72228263210E-01  0.53925288367E+01  0.00000000000E+00 0.  1.
          5    1    4    4  501    0  0.46898908415E+02 -0.40012694229E+02 -0.14067326650E+01  0.61805943135E+02  0.41800000000E+01 0. -1.
         -5    1    4    4    0  501 -0.26051602817E+02  0.24770647898E+02 -0.85050417909E+02  0.92430065418E+02  0.41800000000E+01 0. -1.
</event>
<event>
11    1  0.1002087E-008  0.1957132E+03  0.7561462E-02  0.1057597E+00
         22   -1    0    0    0    0  0.00000000000E+00  0.00000000000E+00  0.34247416898E+03  0.34247416898E+03  0.00000000000E+00 0. -1.
         22   -1    0    0    0    0 -0.00000000000E+00 -0.00000000000E+00 -0.19768491081E+04  0.19768491081E+04  0.00000000000E+00 0. -1.
         24    2    1    2    0    0  0.14898006326E+03 -0.28972652994E+02 -0.16929618755E+04  0.17016737267E+04  0.80864618723E+02 0.  0.
         25    2    1    2    0    0 -0.13234161872E+03  0.56321282543E+02 -0.24048727744E+03  0.30686679783E+03  0.12508681020E+03 0.  0.
        -24    2    1    2    0    0 -0.16638444533E+02 -0.27348629549E+02  0.29907421379E+03  0.31078275253E+03  0.78203251459E+02 0.  0.
        -11    1    3    3    0    0  0.83776359536E+02 -0.48666365358E+02 -0.12187780982E+04  0.12226229779E+04  0.00000000000E+00 0.  1.
         12    1    3    3    0    0  0.65203703720E+02  0.19693712364E+02 -0.47418377727E+03  0.47905074879E+03  0.00000000000E+00 0. -1.
         13    1    5    5    0    0 -0.32651575023E+02 -0.44700651323E+02  0.25329246352E+03  0.25927079600E+03  0.00000000000E+00 0. -1.
        -14    1    5    5    0    0  0.16013130490E+02  0.17352021775E+02  0.45781750268E+02  0.51511956528E+02  0.00000000000E+00 0.  1.
          5    1    4    4  501    0  0.51453303120E+01  0.45364131179E+02 -0.28681085334E+02  0.54078238485E+02  0.41800000000E+01 0.  1.
         -5    1    4    4    0  501 -0.13748694903E+03  0.10957151364E+02 -0.21180619211E+03  0.25278855935E+03  0.41800000000E+01 0.  1.
</event>
<event>
11    1  0.1002087E-008  0.1723072E+03  0.7561462E-02  0.1076041E+00
         22   -1    0    0    0    0  0.00000000000E+00  0.00000000000E+00  0.80707578047E+03  0.80707578047E+03  0.00000000000E+00 0.  1.
         22   -1    0    0    0    0 -0.00000000000E+00 -0.00000000000E+00 -0.79732881717E+02  0.79732881717E+02  0.00000000000E+00 0. -1.
         24    2    1    2    0    0 -0.24522397663E+02  0.92954779778E+02  0.52157687897E+02  0.13477332140E+03  0.78749505922E+02 0.  0.
         25    2    1    2    0    0  0.88721773435E+02  0.38342791446E+02  0.25876531167E+03  0.30323027000E+03  0.12508951749E+03 0.  0.
        -24    2    1    2    0    0 -0.64199375772E+02 -0.13129757122E+03  0.41641989919E+03  0.44880507079E+03  0.81607886053E+02 0.  0.
        -11    1    3    3    0    0 -0.38838967083E+02  0.64715167343E+02  0.20527134573E+01  0.75503191196E+02  0.00000000000E+00 0.  1.
         12    1    3    3    0    0  0.14316569420E+02  0.28239612435E+02  0.50104974440E+02  0.59270130201E+02  0.00000000000E+00 0. -1.
         11    1    5    5    0    0 -0.72515127883E+02 -0.83263830170E+02  0.34575322474E+03  0.36295537137E+03  0.00000000000E+00 0. -1.
        -12    1    5    5    0    0  0.83157521117E+01 -0.48033741054E+02  0.70666674444E+02  0.85849699417E+02  0.00000000000E+00 0.  1.
          5    1    4    4  501    0 -0.92601970869E+01 -0.13589701757E+02 -0.44809860368E+01  0.17549441011E+02  0.41800000000E+01 0. -1.
         -5    1    4    4    0  501  0.97981970522E+02  0.51932493203E+02  0.26324629770E+03  0.28568082899E+03  0.41800000000E+01 0. -1.
</event>
<event>
11    1  0.1002087E-008  0.1764774E+03  0.7561462E-02  0.1072528E+00
         22   -1    0    0    0    0  0.00000000000E+00  0.00000000000E+00  0.31972228120E+04  0.31972228120E+04  0.00000000000E+00 0. -1.
         22   -1    0    0    0    0 -0.00000000000E+00 -0.00000000000E+00 -0.15584203273E+04  0.15584203273E+04  0.00000000000E+00 0.  1.
        -24    2    1    2    0    0  0.85982252147E+02 -0.90034538630E+02 -0.15484029668E+04  0.15557367329E+04  0.85240065995E+02 0.  0.
         25    2    1    2    0    0 -0.11719241071E+03  0.54873029843E+02  0.16325286327E+04  0.16424195842E+04  0.12508894211E+03 0.  0.
         24    2    1    2    0    0  0.31210158558E+02  0.35161508787E+02  0.15546768188E+04  0.15574868221E+04  0.80838013703E+02 0.  0.
        -13    1    5    5    0    0  0.41276676686E+02 -0.13117120456E+02  0.83472949297E+03  0.83585234900E+03  0.00000000000E+00 0.  1.
         14    1    5    5    0    0 -0.10066518128E+02  0.48278629244E+02  0.71994732583E+03  0.72163447312E+03  0.00000000000E+00 0. -1.
         11    1    3    3    0    0  0.61096664829E+01 -0.29977468457E+02 -0.11986562146E+03  0.12370830145E+03  0.00000000000E+00 0. -1.
        -12    1    3    3    0    0  0.79872585664E+02 -0.60057070174E+02 -0.14285373453E+04  0.14320284315E+04  0.00000000000E+00 0.  1.
          5    1    4    4  501    0 -0.42680737057E+02  0.18147286005E+02  0.13932118603E+03  0.14689736071E+03  0.41800000000E+01 0. -1.
         -5    1    4    4    0  501 -0.74511673648E+02  0.36725743838E+02  0.14932074467E+04  0.14955222235E+04  0.41800000000E+01 0. -1.
</event>
<event>
11    1  0.1002087E-008  0.1510394E+03  0.7561462E-02  0.1095821E+00
         22   -1    0    0    0    0  0.00000000000E+00  0.00000000000E+00  0.17007883294E+04  0.17007883294E+04  0.00000000000E+00 0.  1.
         22   -1    0    0    0    0 -0.00000000000E+00 -0.00000000000E+00 -0.12599481907E+04  0.12599481907E+04  0.00000000000E+00 0.  1.
        -24    2    1    2    0    0 -0.28102700179E+02 -0.25199784158E+01 -0.11931612436E+04  0.11960389801E+04  0.77970357663E+02 0.  0.
         25    2    1    2    0    0 -0.40936197727E+02 -0.47824186543E+02  0.14383924626E+02  0.14077352319E+03  0.12508941778E+03 0.  0.
         24    2    1    2    0    0  0.69038897906E+02  0.50344164959E+02  0.16196174578E+04  0.16239240168E+04  0.81655363727E+02 0.  0.
        -11    1    5    5    0    0  0.61516272914E+02  0.51147229631E+02  0.16084317896E+04  0.16104201665E+04  0.00000000000E+00 0.  1.
         12    1    5    5    0    0  0.75226249915E+01 -0.80306467227E+00  0.11185668141E+02  0.13503850243E+02  0.00000000000E+00 0. -1.
         11    1    3    3    0    0 -0.17242544888E+02 -0.92632646750E+01 -0.66883883679E+02  0.69689076064E+02  0.00000000000E+00 0. -1.
        -12    1    3    3    0    0 -0.10860155291E+02  0.67432862592E+01 -0.11262773600E+04  0.11263499041E+04  0.00000000000E+00 0.  1.
          5    1    4    4  501    0  0.40832788122E+02 -0.70522805798E+01 -0.15668038002E+02  0.44497315222E+02  0.41800000000E+01 0. -1.
         -5    1    4    4    0  501 -0.81768985849E+02 -0.40771905963E+02  0.30051962628E+02  0.96276207966E+02  0.41800000000E+01 0. -1.
</event>
<event>
11    1  0.1002087E-008  0.1515961E+03  0.7561462E-02  0.1095259E+00
         22   -1    0    0    0    0  0.00000000000E+00  0.00000000000E+00  0.81868822320E+02  0.81868822320E+02  0.00000000000E+00 0.  1.
         22   -1    0    0    0    0 -0.00000000000E+00 -0.00000000000E+00 -0.15594166008E+04  0.15594166008E+04  0.00000000000E+00 0. -1.
         24    2    1    2    0    0  0.48743432144E+02  0.66446029646E+02 -0.11916997822E+04  0.11973384357E+04  0.81731031850E+02 0.  0.
         25    2    1    2    0    0 -0.49324814948E+02 -0.99271998097E+02 -0.31494632052E+03  0.35654820722E+03  0.12509025655E+03 0.  0.
        -24    2    1    2    0    0  0.58138280422E+00  0.32825968451E+02  0.29098324226E+02  0.87398780266E+02  0.75590687974E+02 0.  0.
        -11    1    3    3    0    0  0.93543204596E+01  0.47128431080E+02 -0.24754029436E+03  0.25216024599E+03  0.00000000000E+00 0.  1.
         12    1    3    3    0    0  0.39389111684E+02  0.19317598566E+02 -0.94415948787E+03  0.94517818969E+03  0.00000000000E+00 0. -1.
         11    1    5    5    0    0  0.11712341609E+00  0.11381318659E+01 -0.24825521397E+02  0.24851872660E+02  0.00000000000E+00 0. -1.
        -12    1    5    5    0    0  0.46425938814E+00  0.31687836585E+02  0.53923845623E+02  0.62546907606E+02  0.00000000000E+00 0.  1.
          5    1    4    4  501    0 -0.80443645280E+02 -0.62898521092E+02 -0.12945783221E+03  0.16493697809E+03  0.41800000000E+01 0.  1.
         -5    1    4    4    0  501  0.31118830332E+02 -0.36373477005E+02 -0.18548848831E+03  0.19161122912E+03  0.41800000000E+01 0.  1.
</event>
<event>
11    1  0.1002087E-008  0.3769024E+03  0.7561462E-02  0.9720479E-01
         22   -1    0    0    0    0  0.00000000000E+00  0.00000000000E+00  0.52058426069E+03  0.52058426069E+03  0.00000000000E+00 0.  1.
         22   -1    0    0    0    0 -0.00000000000E+00 -0.00000000000E+00 -0.66034128057E+03  0.66034128057E+03  0.00000000000E+00 0.  1.
         24    2    1    2    0    0 -0.76547730425E+02  0.14591120010E+03 -0.31049300975E+03  0.36152056403E+03  0.84507844409E+02 0.  0.
         25    2    1    2    0    0  0.36762184063E+03 -0.25930408765E+03  0.35317530737E+02  0.46827275908E+03  0.12509045262E+03 0.  0.
        -24    2    1    2    0    0 -0.29107411021E+03  0.11339288755E+03  0.13541845913E+03  0.35113221815E+03  0.85869616117E+02 0.  0.
        -13    1    3    3    0    0 -0.28404372670E+02  0.10849667921E+03 -0.13371126154E+03  0.17451945235E+03  0.00000000000E+00 0.  1.
         14    1    3    3    0    0 -0.48143357755E+02  0.37414520886E+02 -0.17678174821E+03  0.18700111168E+03  0.00000000000E+00 0. -1.
         11    1    5    5    0    0 -0.11312689948E+03  0.70484646557E+02  0.94991001228E+02  0.16367367260E+03  0.00000000000E+00 0. -1.
        -12    1    5    5    0    0 -0.17794721073E+03  0.42908240997E+02  0.40427457900E+02  0.18745854556E+03  0.00000000000E+00 0.  1.
          5    1    4    4  501    0  0.14415221013E+01 -0.24807440230E+02  0.21628571155E+02  0.33207748598E+02  0.41800000000E+01 0. -1.
         -5    1    4    4    0  501  0.36618031853E+03 -0.23449664742E+03  0.13688959583E+02  0.43506501048E+03  0.41800000000E+01 0. -1.
</event>
<event>
11    1  0.1002087E-008  0.2234619E+03  0.7561462E-02  0.1039070E+00
         22   -1    0    0    0    0  0.00000000000E+00  0.00000000000E+00  0.53740993468E+03  0.53740993468E+03  0.00000000000E+00 0.  1.
         22   -1    0    0    0    0 -0.00000000000E+00 -0.00000000000E+00 -0.78819603890E+03  0.78819603890E+03  0.00000000000E+00 0.  1.
        -24    2    1    2    0    0  0.21948070184E+02 -0.34622432954E+02 -0.49923725120E+03  0.50709819818E+03  0.78932369577E+02 0.  0.
         25    2    1    2    0    0 -0.19791646384E+03  0.84377842368E+02 -0.20489759301E+03  0.32236682398E+03  0.12508716416E+03 0.  0.
         24    2    1    2    0    0  0.17596839365E+03 -0.49755409414E+02  0.45334873999E+03  0.49614095141E+03  0.84795561703E+02 0.  0.
        -11    1    5    5    0    0  0.66211847400E+02 -0.55267373706E+02  0.14400495578E+03  0.16785683966E+03  0.00000000000E+00 0.  1.
         12    1    5    5    0    0  0.10975654625E+03  0.55119642924E+01  0.30934378422E+03  0.32828411175E+03  0.00000000000E+00 0. -1.
         11    1    3    3    0    0 -0.16313513407E+02  0.17663608907E+02 -0.14649158806E+03  0.14845174022E+03  0.00000000000E+00 0. -1.
        -12    1    3    3    0    0  0.38261583591E+02 -0.52286041861E+02 -0.35274566313E+03  0.35864645797E+03  0.00000000000E+00 0.  1.
          5    1    4    4  501    0 -0.86039223479E+02  0.49424816106E+02 -0.17518449244E+03  0.20137685869E+03  0.41800000000E+01 0.  1.
         -5    1    4    4    0  501 -0.11187724036E+03  0.34953026262E+02 -0.29713100577E+02  0.12098996529E+03  0.41800000000E+01 0.  1.
</event>
<event>
11    1  0.1002087E-008  0.2057605E+03  0.7561462E-02  0.1050523E+00
         22   -1    0    0    0    0  0.00000000000E+00  0.00000000000E+00  0.40976444319E+03  0.40976444319E+03  0.00000000000E+00 0. -1.
         22   -1    0    0    0    0 -0.00000000000E+00 -0.00000000000E+00 -0.18297345938E+04  0.18297345938E+04  0.00000000000E+00 0. -1.
        -24    2    1    2    0    0  0.18091271839E+02 -0.15894921606E+02 -0.14994169351E+04  0.15017663249E+04  0.80442567447E+02 0.  0.
         25    2    1    2    0    0 -0.10045208562E+03 -0.12552874160E+03 -0.27303888375E+03  0.34066368642E+03  0.12511366326E+03 0.  0.
         24    2    1    2    0    0  0.82360813779E+02  0.14142366320E+03  0.35248566824E+03  0.39706902567E+03  0.81447582344E+02 0.  0.
        -13    1    5    5    0    0  0.58161246550E+02  0.37524335904E+02  0.19440636686E+03  0.20636046584E+03  0.00000000000E+00 0.  1.
         14    1    5    5    0    0  0.24199567229E+02  0.10389932730E+03  0.15807930138E+03  0.19070855983E+03  0.00000000000E+00 0. -1.
         11    1    3    3    0    0  0.41207023218E+01 -0.48154444224E+02 -0.94623817697E+03  0.94747164508E+03  0.00000000000E+00 0. -1.
        -12    1    3    3    0    0  0.13970569517E+02  0.32259522619E+02 -0.55317875815E+03  0.55429467982E+03  0.00000000000E+00 0.  1.
          5    1    4    4  501    0 -0.47527494473E+02 -0.96024658710E+02 -0.68356812108E+02  0.12716022952E+03  0.41800000000E+01 0.  1.
         -5    1    4    4    0  501 -0.52924591145E+02 -0.29504082888E+02 -0.20468207164E+03  0.21350345690E+03  0.41800000000E+01 0.  1.
</event>
<event>
11    1  0.1002087E-008  0.1522987E+03  0.7561462E-02  0.1094553E+00
         22   -1    0    0    0    0  0.00000000000E+00  0.00000000000E+00  0.30795912668E+03  0.30795912668E+03  0.00000000000E+00 0. -1.
         22   -1    0    0    0    0 -0.00000000000E+00 -0.00000000000E+00 -0.27112568855E+04  0.27112568855E+04  0.00000000000E+00 0. -1.
        -24    2    1    2    0    0  0.79917043344E+02  0.31188035245E+02 -0.22117029072E+04  0.22151032867E+04  0.87711994565E+02 0.  0.
         25    2    1    2    0    0 -0.10038628397E+03 -0.27107529659E+01 -0.47818909991E+03  0.50437778784E+03  0.12508950158E+03 0.  0.
         24    2    1    2    0    0  0.20469240627E+02 -0.28477282279E+02  0.28659424829E+03  0.29973493757E+03  0.80466292510E+02 0.  0.
        -11    1    5    5    0    0  0.83093413178E+01 -0.52044409322E+02  0.12028467731E+03  0.13132429056E+03  0.00000000000E+00 0.  1.
         12    1    5    5    0    0  0.12159899309E+02  0.23567127043E+02  0.16630957098E+03  0.16841064701E+03  0.00000000000E+00 0. -1.
         11    1    3    3    0    0  0.95859168545E+02  0.10849906878E+02 -0.18114515769E+04  0.18140186097E+04  0.00000000000E+00 0. -1.
        -12    1    3    3    0    0 -0.15942125201E+02  0.20338128367E+02 -0.40025133025E+03  0.40108467708E+03  0.00000000000E+00 0.  1.
          5    1    4    4  501    0 -0.88857530603E+02  0.16849004509E+02 -0.14879122783E+03  0.17417190237E+03  0.41800000000E+01 0.  1.
         -5    1    4    4    0  501 -0.11528753368E+02 -0.19559757475E+02 -0.32939787208E+03  0.33020588547E+03  0.41800000000E+01 0.  1.
</event>
<event>
11    1  0.1002087E-008  0.1479768E+03  0.7561462E-02  0.1098964E+00
         22   -1    0    0    0    0  0.00000000000E+00  0.00000000000E+00  0.16724473470E+04  0.16724473470E+04  0.00000000000E+00 0. -1.
         22   -1    0    0    0    0 -0.00000000000E+00 -0.00000000000E+00 -0.94048971926E+03  0.94048971926E+03  0.00000000000E+00 0.  1.
         24    2    1    2    0    0 -0.14030482375E+02  0.74414399608E+02 -0.85666412926E+03  0.86348540317E+03  0.77454850120E+02 0.  0.
         25    2    1    2    0    0 -0.34892451659E+02 -0.13494953944E+03  0.33364578028E+02  0.19023615616E+03  0.12509092160E+03 0.  0.
        -24    2    1    2    0    0  0.48922934034E+02  0.60535139830E+02  0.15552571789E+04  0.15592155069E+04  0.79184264066E+02 0.  0.
        -11    1    3    3    0    0  0.22045619512E+02  0.58214319026E+02 -0.36837479043E+03  0.37359724638E+03  0.00000000000E+00 0.  1.
         12    1    3    3    0    0 -0.36076101887E+02  0.16200080581E+02 -0.48828933883E+03  0.48988815678E+03  0.00000000000E+00 0. -1.
         11    1    5    5    0    0  0.59104576019E+02  0.41912995103E+02  0.14516317253E+04  0.14534389275E+04  0.00000000000E+00 0. -1.
        -12    1    5    5    0    0 -0.10181641985E+02  0.18622144727E+02  0.10362545367E+03  0.10577657943E+03  0.00000000000E+00 0.  1.
          5    1    4    4  501    0 -0.18761309051E+02 -0.12976302760E+03 -0.21260717140E+02  0.13289063376E+03  0.41800000000E+01 0.  1.
         -5    1    4    4    0  501 -0.16131142608E+02 -0.51865118419E+01  0.54625295168E+02  0.57345522398E+02  0.41800000000E+01 0.  1.
</event>
<event>
11    1  0.1002087E-008  0.6166330E+03  0.7561462E-02  0.9165068E-01
         22   -1    0    0    0    0  0.00000000000E+00  0.00000000000E+00  0.33395663544E+04  0.33395663544E+04  0.00000000000E+00 0. -1.
         22   -1    0    0    0    0 -0.00000000000E+00 -0.00000000000E+00 -0.28464491729E+02  0.28464491729E+02  0.00000000000E+00 0. -1.
         24    2    1    2    0    0 -0.16039543268E+03  0.87171610398E+02  0.10998070753E+04  0.11166126693E+04  0.62631189780E+02 0.  0.
         25    2    1    2    0    0  0.24679203011E+03 -0.57727059594E+02  0.11997149754E+04  0.12325592937E+04  0.12509064989E+03 0.  0.
        -24    2    1    2    0    0 -0.86396597433E+02 -0.29444550804E+02  0.10115798120E+04  0.10188588831E+04  0.80301644572E+02 0.  0.
        -13    1    3    3    0    0 -0.73936668403E+02  0.75637112919E+02  0.60034299024E+03  0.60958945998E+03  0.00000000000E+00 0.  1.
         14    1    3    3    0    0 -0.86458764275E+02  0.11534497479E+02  0.49946408505E+03  0.50702320934E+03  0.00000000000E+00 0. -1.
         11    1    5    5    0    0 -0.56361579029E+02  0.21849042820E+02  0.42545046552E+03  0.42972329105E+03  0.00000000000E+00 0. -1.
        -12    1    5    5    0    0 -0.30035018405E+02 -0.51293593625E+02  0.58612934644E+03  0.58913559206E+03  0.00000000000E+00 0.  1.
          5    1    4    4  501    0  0.21913289996E+03 -0.91884401646E+02  0.10438784834E+04  0.10705894318E+04  0.41800000000E+01 0.  1.
         -5    1    4    4    0  501  0.27659130153E+02  0.34157342052E+02  0.15583649200E+03  0.16196986181E+03  0.41800000000E+01 0.  1.
</event>
<event>
11    1  0.1002087E-008  0.1312109E+03  0.7561462E-02  0.1117790E+00
         22   -1    0    0    0    0  0.00000000000E+00  0.00000000000E+00  0.15304882520E+03  0.15304882520E+03  0.00000000000E+00 0. -1.
         22   -1    0    0    0    0 -0.00000000000E+00 -0.00000000000E+00 -0.30031428313E+04  0.30031428313E+04  0.00000000000E+00 0. -1.
        -24    2    1    2    0    0 -0.92429916242E+01  0.38654812171E+02 -0.28123513712E+04  0.28137738157E+04  0.80145016509E+02 0.  0.
         25    2    1    2    0    0  0.35648399808E+02 -0.26974885132E+02 -0.15130766237E+03  0.20134536050E+03  0.12508993831E+03 0.  0.
         24    2    1    2    0    0 -0.26405408183E+02 -0.11679927039E+02  0.11356502748E+03  0.14107248025E+03  0.78554203838E+02 0.  0.
        -11    1    5    5    0    0  0.43844384416E+01 -0.39188181592E+02  0.36944041698E+02  0.54035165346E+02  0.00000000000E+00 0.  1.
         12    1    5    5    0    0 -0.30789846625E+02  0.27508254553E+02  0.76620985780E+02  0.87037314904E+02  0.00000000000E+00 0. -1.
         11    1    3    3    0    0  0.32372572406E+02 -0.28700303557E+00 -0.10804866093E+04  0.10809714976E+04  0.00000000000E+00 0. -1.
        -12    1    3    3    0    0 -0.41615564031E+02  0.38941815207E+02 -0.17318647619E+04  0.17328023181E+04  0.00000000000E+00 0.  1.
          5    1    4    4  501    0 -0.16619140899E+02 -0.63705594431E+02 -0.56007922108E+02  0.86538767872E+02  0.41800000000E+01 0.  1.
         -5    1    4    4    0  501  0.52267540706E+02  0.36730709299E+02 -0.95299740257E+02  0.11480659263E+03  0.41800000000E+01 0.  1.
</event>
<event>
11    1  0.1002087E-008  0.1421838E+03  0.7561462E-02  0.1105144E+00
         22   -1    0    0    0    0  0.00000000000E+00  0.00000000000E+00  0.24160001623E+03  0.24160001623E+03  0.00000000000E+00 0. -1.
         22   -1    0    0    0    0 -0.00000000000E+00 -0.00000000000E+00 -0.27465765833E+03  0.27465765833E+03  0.00000000000E+00 0.  1.
        -24    2    1    2    0    0 -0.50731099424E+02  0.57391655074E+02 -0.12652194645E+03  0.16949052416E+03  0.82775529738E+02 0.  0.
         25    2    1    2    0    0 -0.90203002473E+01 -0.65268098209E+02 -0.68919754178E+02  0.15728599309E+03  0.12509060974E+03 0.  0.
         24    2    1    2    0    0  0.59751399671E+02  0.78764431344E+01  0.16238405854E+03  0.18948115732E+03  0.76826156951E+02 0.  0.
        -11    1    5    5    0    0 -0.89367541124E+00 -0.27233535038E+02  0.38795137079E+02  0.47408087363E+02  0.00000000000E+00 0.  1.
         12    1    5    5    0    0  0.60645075082E+02  0.35109978172E+02  0.12358892146E+03  0.14207306995E+03  0.00000000000E+00 0. -1.
         13    1    3    3    0    0 -0.64018628375E+02  0.17700335294E+02 -0.53352004446E+02  0.85194618533E+02  0.00000000000E+00 0. -1.
        -14    1    3    3    0    0  0.13287528951E+02  0.39691319780E+02 -0.73169942007E+02  0.84295905623E+02  0.00000000000E+00 0.  1.
          5    1    4    4  501    0 -0.59350966024E+02 -0.11339442950E+01 -0.33611698099E+02  0.68345019180E+02  0.41800000000E+01 0.  1.
         -5    1    4    4    0  501  0.50330665777E+02 -0.64134153914E+02 -0.35308056080E+02  0.88940973909E+02  0.41800000000E+01 0.  1.
</event>
<event>
11    1  0.1002087E-008  0.1984495E+03  0.7561462E-02  0.1055626E+00
         22   -1    0    0    0    0  0.00000000000E+00  0.00000000000E+00  0.10755861040E+04  0.10755861040E+04  0.00000000000E+00 0.  1.
         22   -1    0    0    0    0 -0.00000000000E+00 -0.00000000000E+00 -0.20488909003E+03  0.20488909003E+03  0.00000000000E+00 0.  1.
        -24    2    1    2    0    0 -0.12355263130E+03  0.91204417524E+02 -0.10824280020E+03  0.20481134689E+03  0.81533340074E+02 0.  0.
         25    2    1    2    0    0  0.16270884539E+03 -0.39305253470E+02  0.19806609216E+03  0.28791874277E+03  0.12509178334E+03 0.  0.
         24    2    1    2    0    0 -0.39156214097E+02 -0.51899164053E+02  0.78087372197E+03  0.78774510434E+03  0.80943482832E+02 0.  0.
        -13    1    5    5    0    0 -0.39924760468E+02 -0.50119186116E+02  0.78255791901E+03  0.78517693288E+03  0.00000000000E+00 0.  1.
         14    1    5    5    0    0  0.76854637183E+00 -0.17799779374E+01 -0.16841970405E+01  0.25681714612E+01  0.00000000000E+00 0. -1.
         13    1    3    3    0    0  0.11661584359E+02  0.35815496311E+01 -0.12108125532E+02  0.17187982762E+02  0.00000000000E+00 0. -1.
        -14    1    3    3    0    0 -0.13521421565E+03  0.87622867893E+02 -0.96134674664E+02  0.18762336412E+03  0.00000000000E+00 0.  1.
          5    1    4    4  501    0  0.17873493915E+03 -0.16895007289E+02  0.15849138543E+03  0.23951745532E+03  0.41800000000E+01 0.  1.
         -5    1    4    4    0  501 -0.16026093762E+02 -0.22410246182E+02  0.39574706723E+02  0.48401287456E+02  0.41800000000E+01 0.  1.
</event>
<event>
11    1  0.1002087E-008  0.1417138E+03  0.7561462E-02  0.1105660E+00
         22   -1    0    0    0    0  0.00000000000E+00  0.00000000000E+00  0.12703565494E+04  0.12703565494E+04  0.00000000000E+00 0. -1.
         22   -1    0    0    0    0 -0.00000000000E+00 -0.00000000000E+00 -0.87113707954E+02  0.87113707954E+02  0.00000000000E+00 0. -1.
         24    2    1    2    0    0  0.42511131275E+02 -0.34393133187E+02 -0.29926904411E+02  0.10314636498E+03  0.82179493239E+02 0.  0.
         25    2    1    2    0    0 -0.84918952952E+02 -0.16140350067E+02  0.31157949280E+03  0.34670013371E+03  0.12508981939E+03 0.  0.
        -24    2    1    2    0    0  0.42407821677E+02  0.50533483253E+02  0.90159025310E+03  0.90762375870E+03  0.81017569683E+02 0.  0.
        -11    1    3    3    0    0  0.30389605093E+02 -0.27097122716E+02  0.24089145251E+02  0.47308234760E+02  0.00000000000E+00 0.  1.
         12    1    3    3    0    0  0.12121526183E+02 -0.72960104709E+01 -0.54016049662E+02  0.55838130224E+02  0.00000000000E+00 0. -1.
         11    1    5    5    0    0 -0.24066682823E+02  0.10367127258E+02  0.18751797779E+03  0.18934010284E+03  0.00000000000E+00 0. -1.
        -12    1    5    5    0    0  0.66474504500E+02  0.40166355995E+02  0.71407227531E+03  0.71828365585E+03  0.00000000000E+00 0.  1.
          5    1    4    4  501    0  0.11166103441E+02  0.34427160564E+02  0.13078842210E+03  0.13576816639E+03  0.41800000000E+01 0. -1.
         -5    1    4    4    0  501 -0.96085056393E+02 -0.50567510631E+02  0.18079107070E+03  0.21093196732E+03  0.41800000000E+01 0. -1.
</event>
<event>
11    1  0.1002087E-008  0.1465837E+03  0.7561462E-02  0.1100422E+00
         22   -1    0    0    0    0  0.00000000000E+00  0.00000000000E+00  0.54659533246E+03  0.54659533246E+03  0.00000000000E+00 0.  1.
         22   -1    0    0    0    0 -0.00000000000E+00 -0.00000000000E+00 -0.42505736712E+03  0.42505736712E+03  0.00000000000E+00 0.  1.
         24    2    1    2    0    0 -0.70193134631E+01 -0.76883735840E+02 -0.39483617296E+03  0.41021055196E+03  0.80104393536E+02 0.  0.
         25    2    1    2    0    0  0.26521600811E+01  0.46449302422E+02  0.27663034975E+03  0.30714223054E+03  0.12508967875E+03 0.  0.
        -24    2    1    2    0    0  0.43671533820E+01  0.30434433418E+02  0.23974378854E+03  0.25429991708E+03  0.79031872775E+02 0.  0.
        -11    1    3    3    0    0 -0.16783297045E+02 -0.91844582942E+02 -0.32838379058E+03  0.34139862389E+03  0.00000000000E+00 0.  1.
         12    1    3    3    0    0  0.97639835820E+01  0.14960847101E+02 -0.66452382375E+02  0.68811928070E+02  0.00000000000E+00 0. -1.
         11    1    5    5    0    0  0.24485432068E+02  0.31512913071E+02  0.52351272714E+02  0.65827470167E+02  0.00000000000E+00 0. -1.
        -12    1    5    5    0    0 -0.20118278686E+02 -0.10784796528E+01  0.18739251583E+03  0.18847244691E+03  0.00000000000E+00 0.  1.
          5    1    4    4  501    0  0.27836457967E+02 -0.18903458843E+02  0.16485846695E+02  0.37702316767E+02  0.41800000000E+01 0.  1.
         -5    1    4    4    0  501 -0.25184297886E+02  0.65352761265E+02  0.26014450306E+03  0.26943991378E+03  0.41800000000E+01 0.  1.
</event>
<event>
11    1  0.1002087E-008  0.1433511E+03  0.7561462E-02  0.1103873E+00
         22   -1    0    0    0    0  0.00000000000E+00  0.00000000000E+00  0.60057236499E+03  0.60057236499E+03  0.00000000000E+00 0. -1.
         22   -1    0    0    0    0 -0.00000000000E+00 -0.00000000000E+00 -0.57874461245E+03  0.57874461245E+03  0.00000000000E+00 0. -1.
         24    2    1    2    0    0  0.49863921775E+02  0.36652958818E+02 -0.46337119587E+03  0.47447097265E+03  0.81117129169E+02 0.  0.
         25    2    1    2    0    0 -0.10778936696E+03  0.68623017100E+00 -0.39506548695E+02  0.16978805311E+03  0.12509275377E+03 0.  0.
        -24    2    1    2    0    0  0.57925445186E+02 -0.37339188989E+02  0.52470549710E+03  0.53505795168E+03  0.78876997505E+02 0.  0.
        -13    1    3    3    0    0  0.38899113176E+02  0.23805566749E+02 -0.91683967934E+02  0.10240017573E+03  0.00000000000E+00 0.  1.
         14    1    3    3    0    0  0.10964808599E+02  0.12847392069E+02 -0.37168722794E+03  0.37207079692E+03  0.00000000000E+00 0. -1.
         13    1    5    5    0    0  0.11762985141E+02 -0.54165551956E+02  0.29381360672E+03  0.29899617110E+03  0.00000000000E+00 0. -1.
        -14    1    5    5    0    0  0.46162460045E+02  0.16826362967E+02  0.23089189038E+03  0.23606178059E+03  0.00000000000E+00 0.  1.
          5    1    4    4  501    0 -0.10565725012E+02  0.50630340066E+02  0.40627532052E+01  0.52048479746E+02  0.41800000000E+01 0. -1.
         -5    1    4    4    0  501 -0.97223641949E+02 -0.49944109895E+02 -0.43569301901E+02  0.11773957336E+03  0.41800000000E+01 0. -1.
</event>
<event>
11    1  0.1002087E-008  0.1747536E+03  0.7561462E-02  0.1073967E+00
         22   -1    0    0    0    0  0.00000000000E+00  0.00000000000E+00  0.10664599790E+03  0.10664599790E+03  0.00000000000E+00 0. -1.
         22   -1    0    0    0    0 -0.00000000000E+00 -0.00000000000E+00 -0.16366742936E+04  0.16366742936E+04  0.00000000000E+00 0.  1.
        -24    2    1    2    0    0  0.13330092573E+02 -0.24331509057E+02 -0.12815344178E+04  0.12853903283E+04  0.95541187912E+02 0.  0.
         25    2    1    2    0    0 -0.11715743376E+03  0.79124256166E+02 -0.25162700983E+03  0.31456314605E+03  0.12508920249E+03 0.  0.
         24    2    1    2    0    0  0.10382734118E+03 -0.54792747109E+02  0.31331318794E+01  0.14336681712E+03  0.82230565019E+02 0.  0.
        -13    1    5    5    0    0  0.19308477083E+02 -0.40590207176E+02 -0.27100708500E+02  0.52486480231E+02  0.00000000000E+00 0.  1.
         14    1    5    5    0    0  0.84518864101E+02 -0.14202539933E+02  0.30233840379E+02  0.90880336891E+02  0.00000000000E+00 0. -1.
         11    1    3    3    0    0 -0.13897147853E+02 -0.18403755510E+02 -0.73464780830E+02  0.76999369853E+02  0.00000000000E+00 0. -1.
        -12    1    3    3    0    0  0.27227240426E+02 -0.59277535468E+01 -0.12080696369E+04  0.12083909585E+04  0.00000000000E+00 0.  1.
          5    1    4    4  501    0 -0.30192151283E+02  0.94873225362E+02 -0.12030145994E+03  0.15621270292E+03  0.41800000000E+01 0. -1.
         -5    1    4    4    0  501 -0.86965282474E+02 -0.15748969196E+02 -0.13132554989E+03  0.15835044313E+03  0.41800000000E+01 0. -1.
</event>
<event>
11    1  0.1002087E-008  0.1471257E+03  0.7561462E-02  0.1099852E+00
         22   -1    0    0    0    0  0.00000000000E+00  0.00000000000E+00  0.10434393518E+04  0.10434393518E+04  0.00000000000E+00 0.  1.
         22   -1    0    0    0    0 -0.00000000000E+00 -0.00000000000E+00 -0.11082483646E+03  0.11082483646E+03  0.00000000000E+00 0. -1.
         24    2    1    2    0    0  0.35300963045E+01 -0.76672687443E+02 -0.61937684247E+02  0.12508953040E+03  0.76941219817E+02 0.  0.
         25    2    1    2    0    0 -0.36025883585E+02  0.85119008285E+02  0.41345408959E+03  0.44173752539E+03  0.12507856443E+03 0.  0.
        -24    2    1    2    0    0  0.32495787280E+02 -0.84463208420E+01  0.58109810999E+03  0.58743713245E+03  0.79246795660E+02 0.  0.
        -13    1    3    3    0    0  0.25306218888E+02 -0.33636765764E+02  0.52104954230E+01  0.42414454942E+02  0.00000000000E+00 0.  1.
         14    1    3    3    0    0 -0.21776122583E+02 -0.43035921678E+02 -0.67148179670E+02  0.82675075461E+02  0.00000000000E+00 0. -1.
         13    1    5    5    0    0 -0.40958478278E+01  0.24216615623E+02  0.73934147469E+02  0.77906858515E+02  0.00000000000E+00 0. -1.
        -14    1    5    5    0    0  0.36591635108E+02 -0.32662936465E+02  0.50716396252E+03  0.50953027394E+03  0.00000000000E+00 0.  1.
          5    1    4    4  501    0  0.20337379517E+01  0.29675116051E+02  0.85005962970E+01  0.31216680479E+02  0.41800000000E+01 0. -1.
         -5    1    4    4    0  501 -0.38059621536E+02  0.55443892234E+02  0.40495349329E+03  0.41052084491E+03  0.41800000000E+01 0. -1.
</event>
<event>
11    1  0.1002087E-008  0.1739542E+03  0.7561462E-02  0.1074641E+00
         22   -1    0    0    0    0  0.00000000000E+00  0.00000000000E+00  0.82535070836E+02  0.82535070836E+02  0.00000000000E+00 0. -1.
         22   -1    0    0    0    0 -0.00000000000E+00 -0.00000000000E+00 -0.74228119519E+03  0.74228119519E+03  0.00000000000E+00 0. -1.
         24    2    1    2    0    0 -0.33062874478E+02 -0.34083903146E-01 -0.33510843912E+03  0.34632030543E+03  0.80913121003E+02 0.  0.
         25    2    1    2    0    0  0.41328262336E+01  0.11915027629E+03 -0.27443359667E+03  0.32430865446E+03  0.12509370800E+03 0.  0.
        -24    2    1    2    0    0  0.28930048245E+02 -0.11911619239E+03 -0.50204088564E+02  0.15418730614E+03  0.78915523733E+02 0.  0.
        -13    1    3    3    0    0 -0.13175840510E+02  0.18916232144E+02 -0.21536892069E+02  0.31547810251E+02  0.00000000000E+00 0.  1.
         14    1    3    3    0    0 -0.19887033968E+02 -0.18950316048E+02 -0.31357154705E+03  0.31477249517E+03  0.00000000000E+00 0. -1.
         13    1    5    5    0    0  0.55006047433E+02 -0.97278633660E+02 -0.37421170738E+02  0.11785220337E+03  0.00000000000E+00 0. -1.
        -14    1    5    5    0    0 -0.26075999189E+02 -0.21837558731E+02 -0.12782917826E+02  0.36335102768E+02  0.00000000000E+00 0.  1.
          5    1    4    4  501    0 -0.52854221053E+02  0.53945175526E+02 -0.18443727008E+03  0.19934449990E+03  0.41800000000E+01 0.  1.
         -5    1    4    4    0  501  0.56987047286E+02  0.65205100768E+02 -0.89996326590E+02  0.12496415456E+03  0.41800000000E+01 0.  1.
</event>
<event>
11    1  0.1002087E-008  0.1364474E+03  0.7561462E-02  0.1111592E+00
         22   -1    0    0    0    0  0.00000000000E+00  0.00000000000E+00  0.16455014753E+04  0.16455014753E+04  0.00000000000E+00 0.  1.
         22   -1    0    0    0    0 -0.00000000000E+00 -0.00000000000E+00 -0.13502450893E+03  0.13502450893E+03  0.00000000000E+00 0.  1.
         24    2    1    2    0    0 -0.20572299566E+02  0.22734933745E+02 -0.64054848848E+02  0.10827754004E+03  0.81736805018E+02 0.  0.
         25    2    1    2    0    0 -0.34356026269E+02 -0.27111139906E+02  0.45657095190E+02  0.14017157829E+03  0.12509256801E+03 0.  0.
        -24    2    1    2    0    0  0.54928325835E+02  0.43762061603E+01  0.15288747201E+04  0.15320768659E+04  0.82251695003E+02 0.  0.
        -11    1    3    3    0    0 -0.37245237122E+02  0.13933961095E+02 -0.76129001491E+02  0.85889392990E+02  0.00000000000E+00 0.  1.
         12    1    3    3    0    0  0.16672937556E+02  0.88009726508E+01  0.12074152643E+02  0.22388147051E+02  0.00000000000E+00 0. -1.
         13    1    5    5    0    0  0.18256927992E+02 -0.27259135419E+02  0.23311485999E+03  0.23541222107E+03  0.00000000000E+00 0. -1.
        -14    1    5    5    0    0  0.36671397844E+02  0.31635341579E+02  0.12957598601E+04  0.12966646449E+04  0.00000000000E+00 0.  1.
          5    1    4    4  501    0 -0.36139394277E+02  0.31074452216E+02  0.63164415109E+02  0.79239467031E+02  0.41800000000E+01 0.  1.
         -5    1    4    4    0  501  0.17833680082E+01 -0.58185592122E+02 -0.17507319919E+02  0.60932111261E+02  0.41800000000E+01 0.  1.
</event>
<event>
11    1  0.1614329E-008  0.1489894E+03  0.7561462E-02  0.1097916E+00
         22   -1    0    0    0    0  0.00000000000E+00  0.00000000000E+00  0.13800007975E+04  0.13800007975E+04  0.00000000000E+00 0. -1.
         22   -1    0    0    0    0 -0.00000000000E+00 -0.00000000000E+00 -0.10647936112E+04  0.10647936112E+04  0.00000000000E+00 0.  1.
        -24    2    1    2    0    0 -0.72001947205E+01 -0.18204943649E+02 -0.74679626068E+03  0.75146240401E+03  0.81288540995E+02 0.  0.
         25    2    1    2    0    0 -0.12651926000E+02  0.96542272902E+02 -0.29318475667E+03  0.33329421015E+03  0.12508895748E+03 0.  0.
         24    2    1    2    0    0  0.19852120721E+02 -0.78337329252E+02  0.13551882036E+04  0.13600377945E+04  0.81467119856E+02 0.  0.
        -13    1    5    5    0    0  0.21098024425E+02 -0.63513240490E+02  0.13217080311E+04  0.13234013669E+04  0.00000000000E+00 0.  1.
         14    1    5    5    0    0 -0.12459037045E+01 -0.14824088763E+02  0.33480172476E+02  0.36636427674E+02  0.00000000000E+00 0. -1.
         11    1    3    3    0    0 -0.11869495644E+02  0.23819379334E+02 -0.10661603305E+03  0.10988733440E+03  0.00000000000E+00 0. -1.
        -12    1    3    3    0    0  0.46693009239E+01 -0.42024322983E+02 -0.64018022763E+03  0.64157506961E+03  0.00000000000E+00 0.  1.
          5    1    4    4  501    0  0.23008489293E+02  0.86149219535E+02 -0.27963179667E+03  0.29353448301E+03  0.41800000000E+01 0.  1.
         -5    1    4    4    0  501 -0.35660415293E+02  0.10393053366E+02 -0.13552959999E+02  0.39759727135E+02  0.41800000000E+01 0.  1.
</event>
<event>
11    1  0.1002087E-008  0.2027939E+03  0.7561462E-02  0.1052565E+00
         22   -1    0    0    0    0  0.00000000000E+00  0.00000000000E+00  0.39907321268E+03  0.39907321268E+03  0.00000000000E+00 0. -1.
         22   -1    0    0    0    0 -0.00000000000E+00 -0.00000000000E+00 -0.20702526793E+03  0.20702526793E+03  0.00000000000E+00 0.  1.
        -24    2    1    2    0    0 -0.11696240926E+03  0.49004996839E+02  0.65534745507E+02  0.16691565515E+03  0.86512069515E+02 0.  0.
         25    2    1    2    0    0  0.45394608497E+02 -0.17797920359E+03 -0.10438578251E+02  0.22247120174E+03  0.12508878567E+03 0.  0.
         24    2    1    2    0    0  0.71567800760E+02  0.12897420675E+03  0.13695177750E+03  0.21671162372E+03  0.80323361372E+02 0.  0.
        -13    1    5    5    0    0  0.71405836130E+02  0.83159274482E+02  0.54558934895E+02  0.12243747687E+03  0.00000000000E+00 0.  1.
         14    1    5    5    0    0  0.16196463057E+00  0.45814932266E+02  0.82392842605E+02  0.94274146846E+02  0.00000000000E+00 0. -1.
         13    1    3    3    0    0 -0.94611824917E+02  0.30657614045E+02  0.86006920380E+02  0.13148565346E+03  0.00000000000E+00 0. -1.
        -14    1    3    3    0    0 -0.22350584341E+02  0.18347382794E+02 -0.20472174873E+02  0.35430001691E+02  0.00000000000E+00 0.  1.
          5    1    4    4  501    0  0.14990151487E+02 -0.12648311611E+03 -0.63528962751E+02  0.14239411789E+03  0.41800000000E+01 0. -1.
         -5    1    4    4    0  501  0.30404457010E+02 -0.51496087476E+02  0.53090384500E+02  0.80077083849E+02  0.41800000000E+01 0. -1.
</event>
<event>
11    1  0.1002087E-008  0.1447927E+03  0.7561462E-02  0.1102322E+00
         22   -1    0    0    0    0  0.00000000000E+00  0.00000000000E+00  0.10518275629E+04  0.10518275629E+04  0.00000000000E+00 0.  1.
         22   -1    0    0    0    0 -0.00000000000E+00 -0.00000000000E+00 -0.73662959717E+03  0.73662959717E+03  0.00000000000E+00 0.  1.
         24    2    1    2    0    0  0.15411894991E+02  0.25637060454E+02 -0.65851160643E+03  0.66429364217E+03  0.82181030991E+02 0.  0.
         25    2    1    2    0    0  0.43219750138E+02  0.19595676143E+02 -0.10133512308E+02  0.13417505284E+03  0.12509324285E+03 0.  0.
        -24    2    1    2    0    0 -0.58631645129E+02 -0.45232736597E+02  0.98384308446E+03  0.98998846506E+03  0.81524694675E+02 0.  0.
        -11    1    3    3    0    0  0.29248618785E+02  0.75898643296E+01 -0.60965845708E+03  0.61040684959E+03  0.00000000000E+00 0.  1.
         12    1    3    3    0    0 -0.13836723794E+02  0.18047196124E+02 -0.48853149351E+02  0.53886792582E+02  0.00000000000E+00 0. -1.
         11    1    5    5    0    0  0.22030661724E+01  0.20220718345E+02  0.15055493342E+03  0.15192274000E+03  0.00000000000E+00 0. -1.
        -12    1    5    5    0    0 -0.60834711301E+02 -0.65453454942E+02  0.83328815103E+03  0.83806572506E+03  0.00000000000E+00 0.  1.
          5    1    4    4  501    0  0.86070464754E+01  0.63482431880E+02  0.24012748383E+02  0.68543306685E+02  0.41800000000E+01 0. -1.
         -5    1    4    4    0  501  0.34612703663E+02 -0.43886755738E+02 -0.34146260691E+02  0.65631746154E+02  0.41800000000E+01 0. -1.
</event>
<event>
11    1  0.1002087E-008  0.1630700E+03  0.7561462E-02  0.1084225E+00
         22   -1    0    0    0    0  0.00000000000E+00  0.00000000000E+00  0.12377401002E+04  0.12377401002E+04  0.00000000000E+00 0.  1.
         22   -1    0    0    0    0 -0.00000000000E+00 -0.00000000000E+00 -0.22764234316E+03  0.22764234316E+03  0.00000000000E+00 0.  1.
        -24    2    1    2    0    0 -0.48100151024E+02 -0.21564686134E+01 -0.15717366094E+03  0.18255423690E+03  0.79399085843E+02 0.  0.
         25    2    1    2    0    0  0.10596872386E+03  0.86833201641E+02  0.10634839504E+03  0.21383837797E+03  0.12508994932E+03 0.  0.
         24    2    1    2    0    0 -0.57868572840E+02 -0.84676733027E+02  0.10609230229E+04  0.10689898284E+04  0.81625192152E+02 0.  0.
        -13    1    5    5    0    0 -0.41538982441E+02 -0.96708828450E+02  0.74268601684E+03  0.75010706181E+03  0.00000000000E+00 0.  1.
         14    1    5    5    0    0 -0.16329590399E+02  0.12032095423E+02  0.31823700604E+03  0.31888276664E+03  0.00000000000E+00 0. -1.
         11    1    3    3    0    0 -0.17466269588E+02 -0.14184201130E+02 -0.54656648766E+00  0.22506907161E+02  0.00000000000E+00 0. -1.
        -12    1    3    3    0    0 -0.30633881436E+02  0.12027732516E+02 -0.15662709445E+03  0.16004732974E+03  0.00000000000E+00 0.  1.
          5    1    4    4  501    0  0.65671264379E+02  0.49542217354E+02  0.13000986656E+03  0.15390641335E+03  0.41800000000E+01 0.  1.
         -5    1    4    4    0  501  0.40297459484E+02  0.37290984287E+02 -0.23661471518E+02  0.59931964630E+02  0.41800000000E+01 0.  1.
</event>
<event>
11    1  0.1002087E-008  0.1429952E+03  0.7561462E-02  0.1104259E+00
         22   -1    0    0    0    0  0.00000000000E+00  0.00000000000E+00  0.32737673526E+03  0.32737673526E+03  0.00000000000E+00 0.  1.
         22   -1    0    0    0    0 -0.00000000000E+00 -0.00000000000E+00 -0.57003919165E+03  0.57003919165E+03  0.00000000000E+00 0. -1.
        -24    2    1    2    0    0 -0.61687781150E+02  0.24673776474E+02 -0.48439592511E+03  0.49451385915E+03  0.74097011015E+02 0.  0.
         25    2    1    2    0    0 -0.14204763960E+02 -0.39781979221E+02 -0.49614373423E+01  0.13212759655E+03  0.12509478294E+03 0.  0.
         24    2    1    2    0    0  0.75892545109E+02  0.15108202746E+02  0.24669490606E+03  0.27077447120E+03  0.80451857560E+02 0.  0.
        -13    1    5    5    0    0  0.16051797989E+02  0.25305158932E+02  0.17167690684E+03  0.17427269330E+03  0.00000000000E+00 0.  1.
         14    1    5    5    0    0  0.59840747121E+02 -0.10196956186E+02  0.75017999220E+02  0.96501777903E+02  0.00000000000E+00 0. -1.
         13    1    3    3    0    0 -0.59175229616E+02  0.20205918228E+01 -0.44561309481E+03  0.44952955504E+03  0.00000000000E+00 0. -1.
        -14    1    3    3    0    0 -0.25125515338E+01  0.22653184651E+02 -0.38782830302E+02  0.44984304111E+02  0.00000000000E+00 0.  1.
          5    1    4    4  501    0 -0.14390790428E+02  0.23669747227E+02 -0.47835100316E+02  0.55434835665E+02  0.41800000000E+01 0. -1.
         -5    1    4    4    0  501  0.18602646832E+00 -0.63451726448E+02  0.42873662974E+02  0.76692760883E+02  0.41800000000E+01 0. -1.
</event>
<event>
11    1  0.1002087E-008  0.2389705E+03  0.7561462E-02  0.1029944E+00
         22   -1    0    0    0    0  0.00000000000E+00  0.00000000000E+00  0.95070983790E+02  0.95070983790E+02  0.00000000000E+00 0. -1.
         22   -1    0    0    0    0 -0.00000000000E+00 -0.00000000000E+00 -0.33177191867E+04  0.33177191867E+04  0.00000000000E+00 0.  1.
         24    2    1    2    0    0  0.17287061053E+03  0.12856804685E+03 -0.25972491922E+04  0.26078298166E+04  0.93053721147E+02 0.  0.
         25    2    1    2    0    0 -0.90544396291E+02 -0.15011780027E+03 -0.64981140179E+03  0.68457013748E+03  0.12509106115E+03 0.  0.
        -24    2    1    2    0    0 -0.82326214237E+02  0.21549753419E+02  0.24412391109E+02  0.12039021643E+03  0.81583343584E+02 0.  0.
        -11    1    3    3    0    0  0.10642868422E+03  0.12402311580E+03 -0.15885452895E+04  0.15969298466E+04  0.00000000000E+00 0.  1.
         12    1    3    3    0    0  0.66441926311E+02  0.45449310510E+01 -0.10087039027E+04  0.10108999700E+04  0.00000000000E+00 0. -1.
         11    1    5    5    0    0 -0.22510595306E+02  0.34513661333E+01  0.48368941999E+02  0.53462074214E+02  0.00000000000E+00 0. -1.
        -12    1    5    5    0    0 -0.59815618931E+02  0.18098387286E+02 -0.23956550890E+02  0.66928142220E+02  0.00000000000E+00 0.  1.
          5    1    4    4  501    0  0.75289507602E+01 -0.56492319607E+02 -0.36091232067E+03  0.36540832351E+03  0.41800000000E+01 0. -1.
         -5    1    4    4    0  501 -0.98073347052E+02 -0.93625480662E+02 -0.28889908112E+03  0.31916181398E+03  0.41800000000E+01 0. -1.
</event>
<event>
11    1  0.1002087E-008  0.1538181E+03  0.7561462E-02  0.1093040E+00
         22   -1    0    0    0    0  0.00000000000E+00  0.00000000000E+00  0.55325313832E+03  0.55325313832E+03  0.00000000000E+00 0. -1.
         22   -1    0    0    0    0 -0.00000000000E+00 -0.00000000000E+00 -0.41989469978E+03  0.41989469978E+03  0.00000000000E+00 0.  1.
        -24    2    1    2    0    0 -0.42896623292E+02  0.73922414220E+02 -0.29037213174E+03  0.31323654919E+03  0.80600975456E+02 0.  0.
         25    2    1    2    0    0  0.33422438443E+00 -0.12901456021E+03 -0.40470448255E+02  0.18420122952E+03  0.12508943730E+03 0.  0.
         24    2    1    2    0    0  0.42562398907E+02  0.55092145989E+02  0.46420101853E+03  0.47571005940E+03  0.77270774919E+02 0.  0.
        -11    1    5    5    0    0  0.57445696216E+02  0.29377490637E+02  0.20762161478E+03  0.21741614451E+03  0.00000000000E+00 0.  1.
         12    1    5    5    0    0 -0.14883297308E+02  0.25714655352E+02  0.25657940376E+03  0.25829391489E+03  0.00000000000E+00 0. -1.
         11    1    3    3    0    0 -0.39389844489E+02  0.15542606169E+01 -0.15218042269E+03  0.15720323350E+03  0.00000000000E+00 0. -1.
        -12    1    3    3    0    0 -0.35067788029E+01  0.72368153603E+02 -0.13819170905E+03  0.15603331568E+03  0.00000000000E+00 0.  1.
          5    1    4    4  501    0  0.61552874007E+02 -0.74003828810E+02 -0.31192682216E+02  0.10127081910E+03  0.41800000000E+01 0.  1.
         -5    1    4    4    0  501 -0.61218649622E+02 -0.55010731400E+02 -0.92777660382E+01  0.82930410425E+02  0.41800000000E+01 0.  1.
</event>
<event>
11    1  0.1002087E-008  0.1936704E+03  0.7561462E-02  0.1059092E+00
         22   -1    0    0    0    0  0.00000000000E+00  0.00000000000E+00  0.41330741076E+03  0.41330741076E+03  0.00000000000E+00 0. -1.
         22   -1    0    0    0    0 -0.00000000000E+00 -0.00000000000E+00 -0.20023964109E+04  0.20023964109E+04  0.00000000000E+00 0. -1.
         24    2    1    2    0    0 -0.69534300314E+01 -0.13715958204E+03 -0.13633537168E+04  0.13723631435E+04  0.76066677249E+02 0.  0.
         25    2    1    2    0    0  0.16180230727E+02  0.19882386979E+03 -0.60567776215E+03  0.64983503457E+03  0.12508912631E+03 0.  0.
        -24    2    1    2    0    0 -0.92268006959E+01 -0.61664287756E+02  0.37994247881E+03  0.39350564361E+03  0.81257529570E+02 0.  0.
        -11    1    3    3    0    0  0.79944121831E+01 -0.80555251847E+02 -0.45652438208E+03  0.46364595400E+03  0.00000000000E+00 0.  1.
         12    1    3    3    0    0 -0.14947842215E+02 -0.56604330190E+02 -0.90682933475E+03  0.90871718953E+03  0.00000000000E+00 0. -1.
         11    1    5    5    0    0 -0.24009336206E+02 -0.76105123116E+02  0.26632895628E+03  0.27802796792E+03  0.00000000000E+00 0. -1.
        -12    1    5    5    0    0  0.14782535510E+02  0.14440835360E+02  0.11361352252E+03  0.11547767569E+03  0.00000000000E+00 0.  1.
          5    1    4    4  501    0 -0.35609742797E+02  0.85146949707E+02 -0.38779020953E+03  0.39864367025E+03  0.41800000000E+01 0. -1.
         -5    1    4    4    0  501  0.51789973525E+02  0.11367692009E+03 -0.21788755262E+03  0.25119136431E+03  0.41800000000E+01 0. -1.
</event>
<event>
11    1  0.1002087E-008  0.1755811E+03  0.7561462E-02  0.1073274E+00
         22   -1    0    0    0    0  0.00000000000E+00  0.00000000000E+00  0.23713370846E+03  0.23713370846E+03  0.00000000000E+00 0.  1.
         22   -1    0    0    0    0 -0.00000000000E+00 -0.00000000000E+00 -0.19219233927E+04  0.19219233927E+04  0.00000000000E+00 0. -1.
         24    2    1    2    0    0 -0.46967986458E+02 -0.12029986649E+02 -0.17462946604E+04  0.17488454326E+04  0.81022179440E+02 0.  0.
         25    2    1    2    0    0  0.16196506162E+03  0.57702631424E+01 -0.71408238082E+02  0.21682325488E+03  0.12508880951E+03 0.  0.
        -24    2    1    2    0    0 -0.11499707517E+03  0.62597235063E+01  0.13291321428E+03  0.19338841374E+03  0.80434101005E+02 0.  0.
        -13    1    3    3    0    0 -0.16398294979E+02 -0.23360548788E+02 -0.18312840691E+03  0.18533923690E+03  0.00000000000E+00 0.  1.
         14    1    3    3    0    0 -0.30569691479E+02  0.11330562139E+02 -0.15631662535E+04  0.15635061957E+04  0.00000000000E+00 0. -1.
         11    1    5    5    0    0 -0.40685551136E+02  0.37823255982E+02  0.31844989893E+02  0.64031368450E+02  0.00000000000E+00 0. -1.
        -12    1    5    5    0    0 -0.74311524030E+02 -0.31563532476E+02  0.10106822438E+03  0.12935704529E+03  0.00000000000E+00 0.  1.
          5    1    4    4  501    0  0.13221934136E+03 -0.48432760701E+02 -0.35795981747E+02  0.14534961729E+03  0.41800000000E+01 0. -1.
         -5    1    4    4    0  501  0.29745720266E+02  0.54203023843E+02 -0.35612256336E+02  0.71473637582E+02  0.41800000000E+01 0. -1.
</event>
<event>
11    1  0.1040797E-008  0.1400621E+03  0.7561462E-02  0.1107489E+00
         22   -1    0    0    0    0  0.00000000000E+00  0.00000000000E+00  0.27108084472E+03  0.27108084472E+03  0.00000000000E+00 0.  1.
         22   -1    0    0    0    0 -0.00000000000E+00 -0.00000000000E+00 -0.17181500829E+04  0.17181500829E+04  0.00000000000E+00 0. -1.
        -24    2    1    2    0    0  0.32615470097E+01 -0.41800454156E+02 -0.10204804702E+04  0.10242123402E+04  0.76632970028E+02 0.  0.
         25    2    1    2    0    0 -0.18725724425E+02  0.10223667893E+03 -0.67572189007E+03  0.69501877999E+03  0.12509212824E+03 0.  0.
         24    2    1    2    0    0  0.15464177415E+02 -0.60436224776E+02  0.24913312204E+03  0.26999980747E+03  0.83312096893E+02 0.  0.
        -11    1    5    5    0    0 -0.40679858053E+01 -0.77071983282E+02  0.20357517496E+03  0.21771424156E+03  0.00000000000E+00 0.  1.
         12    1    5    5    0    0  0.19532163220E+02  0.16635758506E+02  0.45557947082E+02  0.52285565919E+02  0.00000000000E+00 0. -1.
         11    1    3    3    0    0 -0.20866186059E+02 -0.49960027641E+02 -0.86195661266E+03  0.86365537351E+03  0.00000000000E+00 0. -1.
        -12    1    3    3    0    0  0.24127733069E+02  0.81595734854E+01 -0.15852385749E+03  0.16055696664E+03  0.00000000000E+00 0.  1.
          5    1    4    4  501    0 -0.15813066080E+01  0.11810006178E+03 -0.64726784504E+03  0.65796904239E+03  0.41800000000E+01 0. -1.
         -5    1    4    4    0  501 -0.17144417817E+02 -0.15863382848E+02 -0.28454045026E+02  0.37049737597E+02  0.41800000000E+01 0. -1.
</event>
<event>
11    1  0.1002087E-008  0.1695084E+03  0.7561462E-02  0.1078460E+00
         22   -1    0    0    0    0  0.00000000000E+00  0.00000000000E+00  0.20248635406E+03  0.20248635406E+03  0.00000000000E+00 0. -1.
         22   -1    0    0    0    0 -0.00000000000E+00 -0.00000000000E+00 -0.81259408463E+03  0.81259408463E+03  0.00000000000E+00 0. -1.
         24    2    1    2    0    0 -0.67260876170E+02 -0.81898675077E+02 -0.56510465205E+03  0.58049989905E+03  0.80034033919E+02 0.  0.
         25    2    1    2    0    0  0.65869584120E+02  0.17960990065E+03 -0.14720780807E+03  0.27187557566E+03  0.12509065256E+03 0.  0.
        -24    2    1    2    0    0  0.13912920498E+01 -0.97711225575E+02  0.10220472954E+03  0.16270496398E+03  0.80484031123E+02 0.  0.
        -13    1    3    3    0    0 -0.41403150896E+02 -0.34651271747E+02 -0.11341181485E+03  0.12560721032E+03  0.00000000000E+00 0.  1.
         14    1    3    3    0    0 -0.25857725274E+02 -0.47247403330E+02 -0.45169283721E+03  0.45489268873E+03  0.00000000000E+00 0. -1.
         11    1    5    5    0    0 -0.13314198008E+02 -0.58102856275E+02  0.10459396529E+03  0.12038732222E+03  0.00000000000E+00 0. -1.
        -12    1    5    5    0    0  0.14705490058E+02 -0.39608369300E+02 -0.23892357508E+01  0.42317641758E+02  0.00000000000E+00 0.  1.
          5    1    4    4  501    0  0.59323255300E+02  0.11379879808E+03 -0.22083748234E+02  0.13028652809E+03  0.41800000000E+01 0.  1.
         -5    1    4    4    0  501  0.65463288199E+01  0.65811102570E+02 -0.12512405983E+03  0.14158904757E+03  0.41800000000E+01 0.  1.
</event>
<event>
11    1  0.1002087E-008  0.1295753E+03  0.7561462E-02  0.1119792E+00
         22   -1    0    0    0    0  0.00000000000E+00  0.00000000000E+00  0.14784834618E+04  0.14784834618E+04  0.00000000000E+00 0.  1.
         22   -1    0    0    0    0 -0.00000000000E+00 -0.00000000000E+00 -0.63315726165E+03  0.63315726165E+03  0.00000000000E+00 0. -1.
         24    2    1    2    0    0 -0.24403882145E+02  0.22362872371E+02 -0.61884290183E+03  0.62497127010E+03  0.80789255310E+02 0.  0.
         25    2    1    2    0    0 -0.42305897623E+01 -0.41863508385E+02  0.45759105392E+03  0.47624300396E+03  0.12508946785E+03 0.  0.
        -24    2    1    2    0    0  0.28634471908E+02  0.19500636013E+02  0.10065780481E+04  0.10104264494E+04  0.81006388628E+02 0.  0.
        -13    1    3    3    0    0 -0.34401155061E+02 -0.71437505447E+01 -0.11698487336E+03  0.12214717858E+03  0.00000000000E+00 0.  1.
         14    1    3    3    0    0  0.99972729157E+01  0.29506622916E+02 -0.50185802848E+03  0.50282409152E+03  0.00000000000E+00 0. -1.
         13    1    5    5    0    0 -0.12281312432E+02  0.11016687222E+02  0.44804476525E+02  0.47745566800E+02  0.00000000000E+00 0. -1.
        -14    1    5    5    0    0  0.40915784339E+02  0.84839487917E+01  0.96177357157E+03  0.96268088262E+03  0.00000000000E+00 0.  1.
          5    1    4    4  501    0 -0.46395781627E+02  0.21078306551E+02  0.25110248033E+03  0.25625532500E+03  0.41800000000E+01 0.  1.
         -5    1    4    4    0  501  0.42165191864E+02 -0.62941814936E+02  0.20648857359E+03  0.21998767896E+03  0.41800000000E+01 0.  1.
</event>
<event>
11    1  0.1002087E-008  0.1390984E+03  0.7561462E-02  0.1108569E+00
         22   -1    0    0    0    0  0.00000000000E+00  0.00000000000E+00  0.53799582918E+03  0.53799582918E+03  0.00000000000E+00 0.  1.
         22   -1    0    0    0    0 -0.00000000000E+00 -0.00000000000E+00 -0.72019707209E+03  0.72019707209E+03  0.00000000000E+00 0.  1.
        -24    2    1    2    0    0 -0.60224851513E+02 -0.59447712960E+01 -0.65501199981E+03  0.66290658357E+03  0.82109960441E+02 0.  0.
         25    2    1    2    0    0  0.67466709415E+02  0.85246970256E+01  0.30578273337E+02  0.14562497163E+03  0.12508866544E+03 0.  0.
         24    2    1    2    0    0 -0.72418579020E+01 -0.25799257296E+01  0.44223248355E+03  0.44966134608E+03  0.81034906819E+02 0.  0.
        -11    1    5    5    0    0 -0.40846336562E+02 -0.12831739313E+02  0.30557736053E+03  0.30856214936E+03  0.00000000000E+00 0.  1.
         12    1    5    5    0    0  0.33604478660E+02  0.10251813584E+02  0.13665512302E+03  0.14109919672E+03  0.00000000000E+00 0. -1.
         11    1    3    3    0    0 -0.25800466985E+01 -0.32107736927E+02 -0.12324542560E+03  0.12738523597E+03  0.00000000000E+00 0. -1.
        -12    1    3    3    0    0 -0.57644804815E+02  0.26162965631E+02 -0.53176657420E+03  0.53552134760E+03  0.00000000000E+00 0.  1.
          5    1    4    4  501    0  0.73041260705E+02  0.50943564943E+02 -0.57608604650E+01  0.89336064877E+02  0.41800000000E+01 0.  1.
         -5    1    4    4    0  501 -0.55745512896E+01 -0.42418867917E+02  0.36339133802E+02  0.56288906748E+02  0.41800000000E+01 0.  1.
</event>
<event>
11    1  0.1002087E-008  0.1441587E+03  0.7561462E-02  0.1103001E+00
         22   -1    0    0    0    0  0.00000000000E+00  0.00000000000E+00  0.10713893481E+04  0.10713893481E+04  0.00000000000E+00 0. -1.
         22   -1    0    0    0    0 -0.00000000000E+00 -0.00000000000E+00 -0.49215509596E+03  0.49215509596E+03  0.00000000000E+00 0.  1.
        -24    2    1    2    0    0 -0.48043418368E+02  0.21667143680E+02 -0.40871651938E+03  0.41965275215E+03  0.79256570772E+02 0.  0.
         25    2    1    2    0    0  0.94790662609E+02 -0.73618146957E+02  0.24877022659E+02  0.17513362366E+03  0.12509204052E+03 0.  0.
         24    2    1    2    0    0 -0.46747244240E+02  0.51951003278E+02  0.96307374889E+03  0.96875806827E+03  0.78082888384E+02 0.  0.
        -13    1    5    5    0    0 -0.24837900314E+02 -0.17325221070E+02  0.37311379061E+03  0.37434073425E+03  0.00000000000E+00 0.  1.
         14    1    5    5    0    0 -0.21909343927E+02  0.69276224348E+02  0.58995995828E+03  0.59441733402E+03  0.00000000000E+00 0. -1.
         13    1    3    3    0    0  0.70051361314E+00 -0.18450437621E+02 -0.26743706446E+02  0.32498233832E+02  0.00000000000E+00 0. -1.
        -14    1    3    3    0    0 -0.48743931982E+02  0.40117581301E+02 -0.38197281294E+03  0.38715451832E+03  0.00000000000E+00 0.  1.
          5    1    4    4  501    0 -0.84481114449E+01  0.18012844576E+02 -0.21369112667E+02  0.29494822136E+02  0.41800000000E+01 0.  1.
         -5    1    4    4    0  501  0.10323877405E+03 -0.91630991533E+02  0.46246135325E+02  0.14563880153E+03  0.41800000000E+01 0.  1.
</event>
<event>
11    1  0.1002087E-008  0.1460634E+03  0.7561462E-02  0.1100970E+00
         22   -1    0    0    0    0  0.00000000000E+00  0.00000000000E+00  0.74297101895E+03  0.74297101895E+03  0.00000000000E+00 0. -1.
         22   -1    0    0    0    0 -0.00000000000E+00 -0.00000000000E+00 -0.11746065625E+04  0.11746065625E+04  0.00000000000E+00 0. -1.
        -24    2    1    2    0    0 -0.57859737931E+02  0.51531806004E+02 -0.11092584753E+04  0.11152533704E+04  0.85629660204E+02 0.  0.
         25    2    1    2    0    0  0.41121167036E+02  0.15715944913E+02  0.17771186127E+02  0.13384821376E+03  0.12514626629E+03 0.  0.
         24    2    1    2    0    0  0.16738570895E+02 -0.67247750917E+02  0.65985174564E+03  0.66847599735E+03  0.81568333601E+02 0.  0.
        -13    1    5    5    0    0 -0.10848666196E+02 -0.18518263172E+02  0.34559451601E+02  0.40681387932E+02  0.00000000000E+00 0.  1.
         14    1    5    5    0    0  0.27587237091E+02 -0.48729487745E+02  0.62529229404E+03  0.62779460941E+03  0.00000000000E+00 0. -1.
         13    1    3    3    0    0 -0.66910091410E+02  0.38871591725E+02 -0.10731212724E+04  0.10759076290E+04  0.00000000000E+00 0. -1.
        -14    1    3    3    0    0  0.90503534793E+01  0.12660214279E+02 -0.36137202958E+02  0.39345741337E+02  0.00000000000E+00 0.  1.
          5    1    4    4  501    0  0.64171131406E+02 -0.89504003162E+01  0.53783079395E+02  0.84309761006E+02  0.41800000000E+01 0. -1.
         -5    1    4    4    0  501 -0.23049964370E+02  0.24666345229E+02 -0.36011893268E+02  0.49538452753E+02  0.41800000000E+01 0. -1.
</event>
<event>
11    1  0.1002087E-008  0.1804368E+03  0.7561462E-02  0.1069290E+00
         22   -1    0    0    0    0  0.00000000000E+00  0.00000000000E+00  0.47706601295E+03  0.47706601295E+03  0.00000000000E+00 0.  1.
         22   -1    0    0    0    0 -0.00000000000E+00 -0.00000000000E+00 -0.68499045001E+03  0.68499045001E+03  0.00000000000E+00 0. -1.
        -24    2    1    2    0    0 -0.26333998588E+02 -0.15250283096E+02 -0.53728019690E+03  0.54426847336E+03  0.81437770705E+02 0.  0.
         25    2    1    2    0    0  0.91073008720E+02 -0.97500461399E+02 -0.65577211285E+02  0.19428945125E+03  0.12508951729E+03 0.  0.
         24    2    1    2    0    0 -0.64739010132E+02  0.11275074449E+03  0.39493297112E+03  0.42349853835E+03  0.80467946977E+02 0.  0.
        -11    1    5    5    0    0 -0.68543368329E+02  0.12327021420E+03  0.35398241984E+03  0.38104762511E+03  0.00000000000E+00 0.  1.
         12    1    5    5    0    0  0.38043581971E+01 -0.10519469708E+02  0.40950551287E+02  0.42450913240E+02  0.00000000000E+00 0. -1.
         13    1    3    3    0    0  0.11080102599E+02  0.10161100997E+02 -0.38790843695E+03  0.38819965495E+03  0.00000000000E+00 0. -1.
        -14    1    3    3    0    0 -0.37414101187E+02 -0.25411384093E+02 -0.14937175995E+03  0.15606881841E+03  0.00000000000E+00 0.  1.
          5    1    4    4  501    0  0.58195803787E+02 -0.11761514536E+03 -0.17383158478E+02  0.13243761020E+03  0.41800000000E+01 0. -1.
         -5    1    4    4    0  501  0.32877204933E+02  0.20114683960E+02 -0.48194052807E+02  0.61851841048E+02  0.41800000000E+01 0. -1.
</event>
<event>
11    1  0.1002087E-008  0.1309954E+03  0.7561462E-02  0.1118052E+00
         22   -1    0    0    0    0  0.00000000000E+00  0.00000000000E+00  0.38982005755E+03  0.38982005755E+03  0.00000000000E+00 0. -1.
         22   -1    0    0    0    0 -0.00000000000E+00 -0.00000000000E+00 -0.44081939647E+03  0.44081939647E+03  0.00000000000E+00 0. -1.
         24    2    1    2    0    0  0.13367408498E+02 -0.23833070808E+02 -0.37122481689E+03  0.38075953142E+03  0.80145200844E+02 0.  0.
         25    2    1    2    0    0 -0.85451216369E+01 -0.17132002679E+02  0.95158330152E+01  0.12690812297E+03  0.12509434831E+03 0.  0.
        -24    2    1    2    0    0 -0.48222868614E+01  0.40965073487E+02  0.31070964496E+03  0.32297179963E+03  0.77903197560E+02 0.  0.
        -13    1    3    3    0    0 -0.57296654613E+01 -0.50959822546E+02 -0.21180138181E+03  0.21792099008E+03  0.00000000000E+00 0.  1.
         14    1    3    3    0    0  0.19097073960E+02  0.27126751738E+02 -0.15942343508E+03  0.16283854134E+03  0.00000000000E+00 0. -1.
         13    1    5    5    0    0 -0.15950396415E+02  0.43787266700E+02  0.30755533713E+03  0.31106595003E+03  0.00000000000E+00 0. -1.
        -14    1    5    5    0    0  0.11128109553E+02 -0.28221932127E+01  0.31543078237E+01  0.11905849596E+02  0.00000000000E+00 0.  1.
          5    1    4    4  501    0 -0.51165630161E+02 -0.50226828352E+02  0.11572755864E+02  0.72746526202E+02  0.41800000000E+01 0. -1.
         -5    1    4    4    0  501  0.42620508524E+02  0.33094825673E+02 -0.20569228492E+01  0.54161596771E+02  0.41800000000E+01 0. -1.
</event>
<event>
11    1  0.1002087E-008  0.1469536E+03  0.7561462E-02  0.1100033E+00
         22   -1    0    0    0    0  0.00000000000E+00  0.00000000000E+00  0.33656664794E+03  0.33656664794E+03  0.00000000000E+00 0. -1.
         22   -1    0    0    0    0 -0.00000000000E+00 -0.00000000000E+00 -0.22368612131E+04  0.22368612131E+04  0.00000000000E+00 0.  1.
         24    2    1    2    0    0 -0.38561829313E+02  0.65467783581E+02 -0.19517598624E+04  0.19548871137E+04  0.80274663721E+02 0.  0.
         25    2    1    2    0    0  0.47573431552E+02 -0.80027379497E+02 -0.25475967946E+03  0.29869427263E+03  0.12509261116E+03 0.  0.
        -24    2    1    2    0    0 -0.90116022388E+01  0.14559595916E+02  0.30622497667E+03  0.31984647470E+03  0.90746020507E+02 0.  0.
        -11    1    3    3    0    0 -0.15836725125E+01  0.72523809186E+02 -0.13561733982E+04  0.13581121076E+04  0.00000000000E+00 0.  1.
         12    1    3    3    0    0 -0.36978156801E+02 -0.70560256048E+01 -0.59558646418E+03  0.59677500609E+03  0.00000000000E+00 0. -1.
         13    1    5    5    0    0  0.89777963976E+01  0.27445301634E+02  0.29225348212E+03  0.29367659631E+03  0.00000000000E+00 0. -1.
        -14    1    5    5    0    0 -0.17989398636E+02 -0.12885705719E+02  0.13971494546E+02  0.26169878391E+02  0.00000000000E+00 0.  1.
          5    1    4    4  501    0  0.26809813512E+01  0.33439063210E+02 -0.57819115177E+02  0.66976720502E+02  0.41800000000E+01 0.  1.
         -5    1    4    4    0  501  0.44892450201E+02 -0.11346644271E+03 -0.19694056428E+03  0.23171755213E+03  0.41800000000E+01 0.  1.
</event>
<event>
11    1  0.1137660E-008  0.2043651E+03  0.7561462E-02  0.1051479E+00
         22   -1    0    0    0    0  0.00000000000E+00  0.00000000000E+00  0.14725897128E+04  0.14725897128E+04  0.00000000000E+00 0.  1.
         22   -1    0    0    0    0 -0.00000000000E+00 -0.00000000000E+00 -0.13693493641E+04  0.13693493641E+04  0.00000000000E+00 0.  1.
         24    2    1    2    0    0 -0.31108460377E+02 -0.51475835425E+02 -0.57599049768E+03  0.58463631733E+03  0.80106630038E+02 0.  0.
         25    2    1    2    0    0 -0.12881553246E+03  0.26369750975E+02 -0.77294136581E+03  0.79396145300E+03  0.12509048208E+03 0.  0.
        -24    2    1    2    0    0  0.15992399283E+03  0.25106084449E+02  0.14521722121E+04  0.14633413065E+04  0.79734853144E+02 0.  0.
        -13    1    3    3    0    0  0.14916968451E+02 -0.25933415221E+02 -0.39541572002E+03  0.39654589850E+03  0.00000000000E+00 0.  1.
         14    1    3    3    0    0 -0.46025428829E+02 -0.25542420204E+02 -0.18057477766E+03  0.18809041883E+03  0.00000000000E+00 0. -1.
         13    1    5    5    0    0  0.42276594248E+02 -0.19806623387E+02  0.22945105168E+03  0.23415250985E+03  0.00000000000E+00 0. -1.
        -14    1    5    5    0    0  0.11764739859E+03  0.44912707836E+02  0.12227211604E+04  0.12291887967E+04  0.00000000000E+00 0.  1.
          5    1    4    4  501    0 -0.96558734699E+02  0.55554538586E+02 -0.70083891968E+03  0.70964960349E+03  0.41800000000E+01 0. -1.
         -5    1    4    4    0  501 -0.32256797758E+02 -0.29184787611E+02 -0.72102446130E+02  0.84311849508E+02  0.41800000000E+01 0. -1.
</event>
<event>
11    1  0.1002087E-008  0.1485866E+03  0.7561462E-02  0.1098332E+00
         22   -1    0    0    0    0  0.00000000000E+00  0.00000000000E+00  0.31919043164E+04  0.31919043164E+04  0.00000000000E+00 0.  1.
         22   -1    0    0    0    0 -0.00000000000E+00 -0.00000000000E+00 -0.13507698622E+03  0.13507698622E+03  0.00000000000E+00 0.  1.
        -24    2    1    2    0    0 -0.63795963706E+01  0.25265107767E+02 -0.74856152879E+02  0.11287686195E+03  0.80366145979E+02 0.  0.
         25    2    1    2    0    0 -0.73980469135E+02 -0.24866025089E+02  0.95234077793E+02  0.17552106924E+03  0.12508671854E+03 0.  0.
         24    2    1    2    0    0  0.80360065505E+02 -0.39908267833E+00  0.30364494052E+04  0.30385833714E+04  0.80659872570E+02 0.  0.
        -11    1    5    5    0    0  0.44819971387E+02 -0.33248341076E+00  0.26782785109E+04  0.26786535278E+04  0.00000000000E+00 0.  1.
         12    1    5    5    0    0  0.35540094118E+02 -0.66599267576E-01  0.35817089438E+03  0.35992984359E+03  0.00000000000E+00 0. -1.
         13    1    3    3    0    0  0.72051357085E+00 -0.28938515366E+02 -0.18451941407E+02  0.34328282117E+02  0.00000000000E+00 0. -1.
        -14    1    3    3    0    0 -0.71001099415E+01  0.54203623134E+02 -0.56404211472E+02  0.78548579833E+02  0.00000000000E+00 0.  1.
          5    1    4    4  501    0 -0.46066932733E+02 -0.24204582472E+01  0.12207479725E+03  0.13056703042E+03  0.41800000000E+01 0. -1.
         -5    1    4    4    0  501 -0.27913536402E+02 -0.22445566842E+02 -0.26840719453E+02  0.44954038818E+02  0.41800000000E+01 0. -1.
</event>
<event>
11    1  0.1002087E-008  0.1872440E+03  0.7561462E-02  0.1063929E+00
         22   -1    0    0    0    0  0.00000000000E+00  0.00000000000E+00  0.17681788988E+03  0.17681788988E+03  0.00000000000E+00 0. -1.
         22   -1    0    0    0    0 -0.00000000000E+00 -0.00000000000E+00 -0.24051174582E+04  0.24051174582E+04  0.00000000000E+00 0. -1.
        -24    2    1    2    0    0 -0.13197956879E+03 -0.24906269942E+02 -0.17649827877E+04  0.17718608848E+04  0.79295808633E+02 0.  0.
         25    2    1    2    0    0  0.14305640230E+03  0.14932382022E+03 -0.57791943031E+03  0.62641953004E+03  0.12509125535E+03 0.  0.
         24    2    1    2    0    0 -0.11076833506E+02 -0.12441755028E+03  0.11460264972E+03  0.18365493323E+03  0.70660767889E+02 0.  0.
        -13    1    5    5    0    0  0.19249291124E+02 -0.83517308345E+01  0.59706516250E+01  0.21815941363E+02  0.00000000000E+00 0.  1.
         14    1    5    5    0    0 -0.30326124630E+02 -0.11606581944E+03  0.10863199810E+03  0.16183899187E+03  0.00000000000E+00 0. -1.
         13    1    3    3    0    0 -0.89924902746E+02 -0.52910388640E+02 -0.12837697074E+04  0.12880025850E+04  0.00000000000E+00 0. -1.
        -14    1    3    3    0    0 -0.42054666045E+02  0.28004118698E+02 -0.48121308035E+03  0.48385829982E+03  0.00000000000E+00 0.  1.
          5    1    4    4  501    0  0.67049165933E+02  0.31491114825E+02 -0.35770815646E+03  0.36532160977E+03  0.41800000000E+01 0.  1.
         -5    1    4    4    0  501  0.76007236364E+02  0.11783270540E+03 -0.22021127385E+03  0.26109792027E+03  0.41800000000E+01 0.  1.
</event>
<event>
11    1  0.1002087E-008  0.1422763E+03  0.7561462E-02  0.1105043E+00
         22   -1    0    0    0    0  0.00000000000E+00  0.00000000000E+00  0.20474475232E+03  0.20474475232E+03  0.00000000000E+00 0.  1.
         22   -1    0    0    0    0 -0.00000000000E+00 -0.00000000000E+00 -0.22060586543E+04  0.22060586543E+04  0.00000000000E+00 0. -1.
         24    2    1    2    0    0 -0.28008541029E+02  0.58295412558E+02 -0.17040049822E+04  0.17071324828E+04  0.80532607240E+02 0.  0.
         25    2    1    2    0    0 -0.79402154110E+00 -0.10356019039E+03 -0.47448038162E+03  0.50150337941E+03  0.12509461828E+03 0.  0.
        -24    2    1    2    0    0  0.28802562571E+02  0.45264777831E+02  0.17717146189E+03  0.20216754440E+03  0.81261930678E+02 0.  0.
        -11    1    3    3    0    0 -0.71602260946E+01 -0.18251066324E+02 -0.18013456751E+03  0.18119832414E+03  0.00000000000E+00 0.  1.
         12    1    3    3    0    0 -0.20848314935E+02  0.76546478881E+02 -0.15238704147E+04  0.15259341587E+04  0.00000000000E+00 0. -1.
         11    1    5    5    0    0  0.31999253142E+02  0.58265926626E+02  0.79710558857E+02  0.10379134646E+03  0.00000000000E+00 0. -1.
        -12    1    5    5    0    0 -0.31966905718E+01 -0.13001148795E+02  0.97460903030E+02  0.98376197934E+02  0.00000000000E+00 0.  1.
          5    1    4    4  501    0 -0.47228375404E+02 -0.29817924964E+02 -0.31290519690E+03  0.31787853457E+03  0.41800000000E+01 0.  1.
         -5    1    4    4    0  501  0.46434353862E+02 -0.73742265424E+02 -0.16157518472E+03  0.18362484484E+03  0.41800000000E+01 0.  1.
</event>
<event>
11    1  0.1002087E-008  0.1333276E+03  0.7561462E-02  0.1115247E+00
         22   -1    0    0    0    0  0.00000000000E+00  0.00000000000E+00  0.16617037821E+04  0.16617037821E+04  0.00000000000E+00 0.  1.
         22   -1    0    0    0    0 -0.00000000000E+00 -0.00000000000E+00 -0.94321382572E+02  0.94321382572E+02  0.00000000000E+00 0.  1.
         24    2    1    2    0    0  0.10206883273E+02  0.32085571928E+02 -0.41512310821E+02  0.91770667728E+02  0.74598385461E+02 0.  0.
         25    2    1    2    0    0  0.34661153501E+02 -0.17531386998E+02  0.13750595334E+03  0.18990427711E+03  0.12508797771E+03 0.  0.
        -24    2    1    2    0    0 -0.44868036775E+02 -0.14554184929E+02  0.14713887570E+04  0.14743502199E+04  0.80614709983E+02 0.  0.
        -11    1    3    3    0    0  0.17504951694E+02  0.27048453671E+02 -0.61764192370E+02  0.69662455017E+02  0.00000000000E+00 0.  1.
         12    1    3    3    0    0 -0.72980684206E+01  0.50371182566E+01  0.20251881549E+02  0.22108212711E+02  0.00000000000E+00 0. -1.
         13    1    5    5    0    0 -0.66515988628E+02 -0.16842109611E+02  0.93198858554E+03  0.93451097210E+03  0.00000000000E+00 0. -1.
        -14    1    5    5    0    0  0.21647951853E+02  0.22879246822E+01  0.53940017150E+03  0.53983924777E+03  0.00000000000E+00 0.  1.
          5    1    4    4  501    0 -0.13121177097E+02  0.12521042457E+01 -0.19929048210E+02  0.24256389179E+02  0.41800000000E+01 0. -1.
         -5    1    4    4    0  501  0.47782330598E+02 -0.18783491244E+02  0.15743500155E+03  0.16564788793E+03  0.41800000000E+01 0. -1.
</event>
<event>
11    1  0.1002087E-008  0.1702638E+03  0.7561462E-02  0.1077802E+00
         22   -1    0    0    0    0  0.00000000000E+00  0.00000000000E+00  0.13847037874E+04  0.13847037874E+04  0.00000000000E+00 0. -1.
         22   -1    0    0    0    0 -0.00000000000E+00 -0.00000000000E+00 -0.17692733150E+03  0.17692733150E+03  0.00000000000E+00 0.  1.
        -24    2    1    2    0    0 -0.92761149788E+01 -0.29278759049E+02 -0.11606578157E+03  0.14477727702E+03  0.80906750325E+02 0.  0.
         25    2    1    2    0    0  0.28486254541E+02 -0.87108075170E+02  0.99694358331E+02  0.18435187322E+03  0.12508942648E+03 0.  0.
         24    2    1    2    0    0 -0.19210139562E+02  0.11638683422E+03  0.12241478792E+04  0.12325019687E+04  0.81290516649E+02 0.  0.
        -13    1    5    5    0    0 -0.45341664350E+01  0.35111629055E+02  0.11603874736E+03  0.12131931441E+03  0.00000000000E+00 0.  1.
         14    1    5    5    0    0 -0.14675973127E+02  0.81275205164E+02  0.11081091318E+04  0.11111826543E+04  0.00000000000E+00 0. -1.
         13    1    3    3    0    0 -0.16587907055E+02 -0.23757437555E+02 -0.63390144070E+00  0.28982345155E+02  0.00000000000E+00 0. -1.
        -14    1    3    3    0    0  0.73117920762E+01 -0.55213214945E+01 -0.11543188013E+03  0.11579493186E+03  0.00000000000E+00 0.  1.
          5    1    4    4  501    0  0.28128101834E+02 -0.38679630127E+02  0.12182369193E+03  0.13094192688E+03  0.41800000000E+01 0. -1.
         -5    1    4    4    0  501  0.35815270670E+00 -0.48428445043E+02 -0.22129333595E+02  0.53409946339E+02  0.41800000000E+01 0. -1.
</event>
<event>
11    1  0.1002087E-008  0.1568563E+03  0.7561462E-02  0.1090072E+00
         22   -1    0    0    0    0  0.00000000000E+00  0.00000000000E+00  0.23284624777E+03  0.23284624777E+03  0.00000000000E+00 0.  1.
         22   -1    0    0    0    0 -0.00000000000E+00 -0.00000000000E+00 -0.45555601387E+03  0.45555601387E+03  0.00000000000E+00 0.  1.
         24    2    1    2    0    0  0.19152627312E+01  0.16954936460E+02 -0.32060064462E+03  0.33100032341E+03  0.80531376929E+02 0.  0.
         25    2    1    2    0    0  0.91867681761E+02  0.10297211498E+01 -0.50725550053E+02  0.16327895385E+03  0.12508478750E+03 0.  0.
        -24    2    1    2    0    0 -0.93782944492E+02 -0.17984657609E+02  0.14861642856E+03  0.19412298438E+03  0.80487276248E+02 0.  0.
        -11    1    3    3    0    0  0.14208218871E+02 -0.15578012090E+02 -0.26207123779E+03  0.26291801312E+03  0.00000000000E+00 0.  1.
         12    1    3    3    0    0 -0.12292956139E+02  0.32532948549E+02 -0.58529406821E+02  0.68082310293E+02  0.00000000000E+00 0. -1.
         13    1    5    5    0    0 -0.75928499612E+02 -0.32421718725E+02  0.58649491906E+02  0.10127224595E+03  0.00000000000E+00 0. -1.
        -14    1    5    5    0    0 -0.17854444880E+02  0.14437061115E+02  0.89966936657E+02  0.92850738430E+02  0.00000000000E+00 0.  1.
          5    1    4    4  501    0 -0.34826276668E+01  0.39538210250E+02 -0.45076955278E+02  0.60206337393E+02  0.41800000000E+01 0.  1.
         -5    1    4    4    0  501  0.95350309428E+02 -0.38508489100E+02 -0.56485947751E+01  0.10307261646E+03  0.41800000000E+01 0.  1.
</event>
<event>
11    1  0.1002087E-008  0.2965843E+03  0.7561462E-02  0.1001647E+00
         22   -1    0    0    0    0  0.00000000000E+00  0.00000000000E+00  0.82161542106E+02  0.82161542106E+02  0.00000000000E+00 0. -1.
         22   -1    0    0    0    0 -0.00000000000E+00 -0.00000000000E+00 -0.14281380116E+04  0.14281380116E+04  0.00000000000E+00 0. -1.
         24    2    1    2    0    0 -0.40682592472E+02 -0.28767054056E+02 -0.27533418366E+03  0.29143781928E+03  0.81513637420E+02 0.  0.
         25    2    1    2    0    0  0.29575394101E+01  0.28381274903E+03 -0.58124204614E+03  0.65882535456E+03  0.12510039193E+03 0.  0.
        -24    2    1    2    0    0  0.37725053062E+02 -0.25504569497E+03 -0.48940023968E+03  0.56003637985E+03  0.87502377141E+02 0.  0.
        -13    1    3    3    0    0  0.14208419601E+02 -0.54479870914E+01 -0.16766970062E+03  0.16835880808E+03  0.00000000000E+00 0.  1.
         14    1    3    3    0    0 -0.54891012073E+02 -0.23319066965E+02 -0.10766448304E+03  0.12307901120E+03  0.00000000000E+00 0. -1.
         11    1    5    5    0    0  0.60736061345E+02 -0.11376508510E+03 -0.24154641700E+03  0.27381752190E+03  0.00000000000E+00 0. -1.
        -12    1    5    5    0    0 -0.23011008283E+02 -0.14128060987E+03 -0.24785382269E+03  0.28621885795E+03  0.00000000000E+00 0.  1.
          5    1    4    4  501    0  0.39525968276E+02  0.46045629284E+02 -0.19023947535E+03  0.19972739553E+03  0.41800000000E+01 0. -1.
         -5    1    4    4    0  501 -0.36568428866E+02  0.23776711974E+03 -0.39100257079E+03  0.45909795903E+03  0.41800000000E+01 0. -1.
</event>
<event>
11    1  0.1002087E-008  0.1507300E+03  0.7561462E-02  0.1096135E+00
         22   -1    0    0    0    0  0.00000000000E+00  0.00000000000E+00  0.11124278853E+03  0.11124278853E+03  0.00000000000E+00 0.  1.
         22   -1    0    0    0    0 -0.00000000000E+00 -0.00000000000E+00 -0.95084848633E+03  0.95084848633E+03  0.00000000000E+00 0. -1.
         24    2    1    2    0    0  0.52055266827E+02  0.63040136206E+02 -0.68821691956E+03  0.69770677274E+03  0.80426381128E+02 0.  0.
         25    2    1    2    0    0 -0.34788428928E+02 -0.96610279497E+02 -0.21021569210E+03  0.26529514676E+03  0.12508835596E+03 0.  0.
        -24    2    1    2    0    0 -0.17266837899E+02  0.33570143291E+02  0.58826913868E+02  0.99089355357E+02  0.70235292682E+02 0.  0.
        -11    1    3    3    0    0 -0.11542258374E+02  0.18440442141E+02 -0.46866916986E+02  0.51669928802E+02  0.00000000000E+00 0.  1.
         12    1    3    3    0    0  0.63597525201E+02  0.44599694065E+02 -0.64135000258E+03  0.64603684394E+03  0.00000000000E+00 0. -1.
         11    1    5    5    0    0 -0.22504741433E+02 -0.69667591793E+01 -0.42385269870E+01  0.23936671269E+02  0.00000000000E+00 0. -1.
        -12    1    5    5    0    0  0.52379035342E+01  0.40536902471E+02  0.63065440855E+02  0.75152684088E+02  0.00000000000E+00 0.  1.
          5    1    4    4  501    0 -0.46052701999E+02 -0.16151579021E+02 -0.16522419150E+03  0.17233174613E+03  0.41800000000E+01 0. -1.
         -5    1    4    4    0  501  0.11264273071E+02 -0.80458700475E+02 -0.44991500594E+02  0.92963400625E+02  0.41800000000E+01 0. -1.
</event>
<event>
11    1  0.1002087E-008  0.5437502E+03  0.7561462E-02  0.9300746E-01
         22   -1    0    0    0    0  0.00000000000E+00  0.00000000000E+00  0.19127931294E+04  0.19127931294E+04  0.00000000000E+00 0. -1.
         22   -1    0    0    0    0 -0.00000000000E+00 -0.00000000000E+00 -0.19643143695E+03  0.19643143695E+03  0.00000000000E+00 0. -1.
        -24    2    1    2    0    0 -0.14945709944E+03 -0.51899563378E+03  0.82100244057E+03  0.98703887193E+03  0.92232504196E+02 0.  0.
         25    2    1    2    0    0  0.53529601229E+02  0.52136140106E+03  0.63242865742E+03  0.83084150666E+03  0.12509385970E+03 0.  0.
         24    2    1    2    0    0  0.95927498207E+02 -0.23657672772E+01  0.26293059445E+03  0.29134418776E+03  0.80878034556E+02 0.  0.
        -11    1    5    5    0    0  0.10381309284E+03 -0.43455574525E+01  0.17862055509E+03  0.20664303718E+03  0.00000000000E+00 0.  1.
         12    1    5    5    0    0 -0.78855946306E+01  0.19797901753E+01  0.84310039365E+02  0.84701150580E+02  0.00000000000E+00 0. -1.
         11    1    3    3    0    0 -0.25642339717E+02 -0.25373891750E+03  0.39354419541E+03  0.46895415723E+03  0.00000000000E+00 0. -1.
        -12    1    3    3    0    0 -0.12381475972E+03 -0.26525671628E+03  0.42745824516E+03  0.51808471470E+03  0.00000000000E+00 0.  1.
          5    1    4    4  501    0  0.48861081943E+02  0.49519709349E+03  0.63139376692E+03  0.80391736394E+03  0.41800000000E+01 0. -1.
         -5    1    4    4    0  501  0.46685192857E+01  0.26164307568E+02  0.10348904984E+01  0.26924142719E+02  0.41800000000E+01 0. -1.
</event>
<event>
11    1  0.1002087E-008  0.1440991E+03  0.7561462E-02  0.1103066E+00
         22   -1    0    0    0    0  0.00000000000E+00  0.00000000000E+00  0.16226739001E+04  0.16226739001E+04  0.00000000000E+00 0. -1.
         22   -1    0    0    0    0 -0.00000000000E+00 -0.00000000000E+00 -0.23296496070E+03  0.23296496070E+03  0.00000000000E+00 0.  1.
         24    2    1    2    0    0 -0.33100057693E+02 -0.55840920675E+02 -0.15183584819E+03  0.18367255459E+03  0.80421764912E+02 0.  0.
         25    2    1    2    0    0  0.62000524135E+02  0.10413676869E+03  0.55614835147E+02  0.18283221791E+03  0.12508428530E+03 0.  0.
        -24    2    1    2    0    0 -0.28900466442E+02 -0.48295848020E+02  0.14859299524E+04  0.14891340883E+04  0.79779593095E+02 0.  0.
        -13    1    3    3    0    0 -0.34238431977E+02 -0.62216143882E+02 -0.15892558671E+03  0.17407027574E+03  0.00000000000E+00 0.  1.
         14    1    3    3    0    0  0.11383742840E+01  0.63752232077E+01  0.70897385156E+01  0.96022788534E+01  0.00000000000E+00 0. -1.
         11    1    5    5    0    0  0.83943275170E+01 -0.53618397348E+02  0.11087437765E+04  0.11100712406E+04  0.00000000000E+00 0. -1.
        -12    1    5    5    0    0 -0.37294793959E+02  0.53225493283E+01  0.37718617587E+03  0.37906284763E+03  0.00000000000E+00 0.  1.
          5    1    4    4  501    0  0.54597363033E+02  0.75097652017E+02 -0.25401759187E+02  0.96349629778E+02  0.41800000000E+01 0. -1.
         -5    1    4    4    0  501  0.74031611026E+01  0.29039116677E+02  0.81016594334E+02  0.86482588128E+02  0.41800000000E+01 0. -1.
</event>
<event>
11    1  0.1002087E-008  0.1406868E+03  0.7561462E-02  0.1106794E+00
         22   -1    0    0    0    0  0.00000000000E+00  0.00000000000E+00  0.17794182700E+03  0.17794182700E+03  0.00000000000E+00 0.  1.
         22   -1    0    0    0    0 -0.00000000000E+00 -0.00000000000E+00 -0.28568521291E+03  0.28568521291E+03  0.00000000000E+00 0. -1.
        -24    2    1    2    0    0  0.64278789270E+02  0.66143425021E+01 -0.12954686545E+03  0.16374438337E+03  0.76513531227E+02 0.  0.
         25    2    1    2    0    0 -0.62700097930E+02 -0.13243945541E+02 -0.82362597217E+02  0.16290422662E+03  0.12508990869E+03 0.  0.
         24    2    1    2    0    0 -0.15786913398E+01  0.66296030388E+01  0.10416607675E+03  0.13697842993E+03  0.88690894777E+02 0.  0.
        -13    1    5    5    0    0  0.17186709937E+02 -0.28344297006E+02  0.88153750446E+02  0.94179965433E+02  0.00000000000E+00 0.  1.
         14    1    5    5    0    0 -0.18765401276E+02  0.34973900044E+02  0.16012326308E+02  0.42798464496E+02  0.00000000000E+00 0. -1.
         13    1    3    3    0    0 -0.23699430440E+01 -0.16344685711E+02 -0.68593639501E+02  0.70553899687E+02  0.00000000000E+00 0. -1.
        -14    1    3    3    0    0  0.66648732314E+02  0.22959028213E+02 -0.60953225945E+02  0.93190483681E+02  0.00000000000E+00 0.  1.
          5    1    4    4  501    0 -0.42188252132E+02  0.59998815893E+01  0.26523365145E+02  0.50366739975E+02  0.41800000000E+01 0.  1.
         -5    1    4    4    0  501 -0.20511845798E+02 -0.19243827130E+02 -0.10888596236E+03  0.11253748664E+03  0.41800000000E+01 0.  1.
</event>
<event>
11    1  0.1002087E-008  0.4366708E+03  0.7561462E-02  0.9547354E-01
         22   -1    0    0    0    0  0.00000000000E+00  0.00000000000E+00  0.22406200873E+03  0.22406200873E+03  0.00000000000E+00 0.  1.
         22   -1    0    0    0    0 -0.00000000000E+00 -0.00000000000E+00 -0.19148620920E+04  0.19148620920E+04  0.00000000000E+00 0.  1.
        -24    2    1    2    0    0  0.48955525481E+02  0.42999827068E+03 -0.12031698443E+04  0.12811450147E+04  0.80123143338E+02 0.  0.
         25    2    1    2    0    0 -0.63862761749E+02 -0.38946051572E+03 -0.59413941395E+03  0.72415884722E+03  0.12508575926E+03 0.  0.
         24    2    1    2    0    0  0.14907236268E+02 -0.40537754966E+02  0.10650917504E+03  0.13362023878E+03  0.68151511898E+02 0.  0.
        -13    1    5    5    0    0 -0.73248993736E+01 -0.13797717450E+02  0.96041987103E+02  0.97304133747E+02  0.00000000000E+00 0.  1.
         14    1    5    5    0    0  0.22232135641E+02 -0.26740037515E+02  0.10467187933E+02  0.36316105032E+02  0.00000000000E+00 0. -1.
         13    1    3    3    0    0  0.29364221779E+02  0.28680711677E+03 -0.90465236129E+03  0.94948221391E+03  0.00000000000E+00 0. -1.
        -14    1    3    3    0    0  0.19591303702E+02  0.14319115391E+03 -0.29851748304E+03  0.33166280078E+03  0.00000000000E+00 0.  1.
          5    1    4    4  501    0  0.24412232093E+02 -0.10402866228E+03 -0.98326092737E+02  0.14527013652E+03  0.41800000000E+01 0.  1.
         -5    1    4    4    0  501 -0.88274993842E+02 -0.28543185344E+03 -0.49581332121E+03  0.57888871071E+03  0.41800000000E+01 0.  1.
</event>
<event>
11    1  0.1002087E-008  0.1720706E+03  0.7561462E-02  0.1076244E+00
         22   -1    0    0    0    0  0.00000000000E+00  0.00000000000E+00  0.14323908528E+04  0.14323908528E+04  0.00000000000E+00 0.  1.
         22   -1    0    0    0    0 -0.00000000000E+00 -0.00000000000E+00 -0.38712590070E+03  0.38712590070E+03  0.00000000000E+00 0.  1.
        -24    2    1    2    0    0 -0.10152673601E+03 -0.60861194784E+02 -0.34261748488E+03  0.37099274533E+03  0.78975394834E+02 0.  0.
         25    2    1    2    0    0  0.11387242251E+03  0.31681407948E+02  0.22913503015E+03  0.28656903427E+03  0.12509320182E+03 0.  0.
         24    2    1    2    0    0 -0.12345686500E+02  0.29179786836E+02  0.11587474068E+04  0.11619549739E+04  0.80249190726E+02 0.  0.
        -13    1    5    5    0    0 -0.33846305103E+02 -0.14799561108E+02  0.55323660654E+03  0.55446852228E+03  0.00000000000E+00 0.  1.
         14    1    5    5    0    0  0.21500618604E+02  0.43979347944E+02  0.60551080030E+03  0.60748645164E+03  0.00000000000E+00 0. -1.
         11    1    3    3    0    0 -0.74593323049E+00  0.14676051291E+02 -0.56531525594E+02  0.58410241259E+02  0.00000000000E+00 0. -1.
        -12    1    3    3    0    0 -0.10078080278E+03 -0.75537246074E+02 -0.28608595929E+03  0.31258250407E+03  0.00000000000E+00 0.  1.
          5    1    4    4  501    0  0.61470264150E+02  0.65266519302E+02  0.64540583240E+02  0.11054985844E+03  0.41800000000E+01 0. -1.
         -5    1    4    4    0  501  0.52402158358E+02 -0.33585111354E+02  0.16459444691E+03  0.17601917583E+03  0.41800000000E+01 0. -1.
</event>
<event>
11    1  0.1002087E-008  0.1480916E+03  0.7561462E-02  0.1098845E+00
         22   -1    0    0    0    0  0.00000000000E+00  0.00000000000E+00  0.99286499929E+03  0.99286499929E+03  0.00000000000E+00 0.  1.
         22   -1    0    0    0    0 -0.00000000000E+00 -0.00000000000E+00 -0.98689479912E+02  0.98689479912E+02  0.00000000000E+00 0.  1.
         24    2    1    2    0    0  0.14930385657E+02  0.31211671013E+02 -0.53469951357E+02  0.10212705438E+03  0.79836174228E+02 0.  0.
         25    2    1    2    0    0  0.27695497076E+02  0.46061363073E+02  0.28437917464E+03  0.31529085347E+03  0.12509243618E+03 0.  0.
        -24    2    1    2    0    0 -0.42625882733E+02 -0.77273034086E+02  0.66326629609E+03  0.67413657134E+03  0.82157468408E+02 0.  0.
        -13    1    3    3    0    0  0.53698554817E+01  0.13295261305E+02 -0.72735198894E+02  0.74135069159E+02  0.00000000000E+00 0.  1.
         14    1    3    3    0    0  0.95605301749E+01  0.17916409708E+02  0.19265247537E+02  0.27991985223E+02  0.00000000000E+00 0. -1.
         11    1    5    5    0    0 -0.31268237418E+02 -0.73241224040E+02  0.29171467801E+03  0.30238953841E+03  0.00000000000E+00 0. -1.
        -12    1    5    5    0    0 -0.11357645314E+02 -0.40318100462E+01  0.37155161808E+03  0.37174703294E+03  0.00000000000E+00 0.  1.
          5    1    4    4  501    0  0.63350343332E+02  0.82007292685E+01  0.23460618473E+03  0.24318316610E+03  0.41800000000E+01 0.  1.
         -5    1    4    4    0  501 -0.35654846256E+02  0.37860633805E+02  0.49772989905E+02  0.72107687369E+02  0.41800000000E+01 0.  1.
</event>
<event>
11    1  0.1002087E-008  0.1913618E+03  0.7561462E-02  0.1060806E+00
         22   -1    0    0    0    0  0.00000000000E+00  0.00000000000E+00  0.81685775568E+03  0.81685775568E+03  0.00000000000E+00 0.  1.
         22   -1    0    0    0    0 -0.00000000000E+00 -0.00000000000E+00 -0.56341272059E+03  0.56341272059E+03  0.00000000000E+00 0. -1.
        -24    2    1    2    0    0  0.33324453212E+02  0.14006344191E+03 -0.51886113890E+03  0.54441387482E+03  0.80257701813E+02 0.  0.
         25    2    1    2    0    0 -0.34746323293E+02 -0.18400928726E+03  0.62009432395E+03  0.65972052457E+03  0.12508986835E+03 0.  0.
         24    2    1    2    0    0  0.14218700810E+01  0.43945845343E+02  0.15221185003E+03  0.17613607688E+03  0.76955904588E+02 0.  0.
        -13    1    5    5    0    0  0.35019074651E+02  0.37582836974E+02  0.11287633492E+03  0.12401561276E+03  0.00000000000E+00 0.  1.
         14    1    5    5    0    0 -0.33597204570E+02  0.63630083691E+01  0.39335515113E+02  0.52120464116E+02  0.00000000000E+00 0. -1.
         13    1    3    3    0    0  0.45773721742E+02  0.59664532975E+02 -0.33532976666E+03  0.34365846782E+03  0.00000000000E+00 0. -1.
        -14    1    3    3    0    0 -0.12449268529E+02  0.80398908937E+02 -0.18353137224E+03  0.20075540700E+03  0.00000000000E+00 0.  1.
          5    1    4    4  501    0  0.10508262485E+01  0.14314628026E+02  0.12256511920E+02  0.19331510437E+02  0.41800000000E+01 0.  1.
         -5    1    4    4    0  501 -0.35797149542E+02 -0.19832391528E+03  0.60783781203E+03  0.64038901414E+03  0.41800000000E+01 0.  1.
</event>
<event>
11    1  0.1002087E-008  0.1623836E+03  0.7561462E-02  0.1084857E+00
         22   -1    0    0    0    0  0.00000000000E+00  0.00000000000E+00  0.17430569218E+04  0.17430569218E+04  0.00000000000E+00 0. -1.
         22   -1    0    0    0    0 -0.00000000000E+00 -0.00000000000E+00 -0.93967127962E+02  0.93967127962E+02  0.00000000000E+00 0.  1.
        -24    2    1    2    0    0  0.12588673237E+02 -0.21406257890E+02 -0.41542434085E+02  0.93626464803E+02  0.80146356817E+02 0.  0.
         25    2    1    2    0    0 -0.18033001076E+02  0.12222913556E+03  0.30795014612E+03  0.35461022376E+03  0.12509983051E+03 0.  0.
         24    2    1    2    0    0  0.54443278388E+01 -0.10082287767E+03  0.13826820818E+04  0.13887873612E+04  0.82010376875E+02 0.  0.
        -13    1    5    5    0    0  0.28321065754E+02 -0.34500237952E+02  0.25138668778E+03  0.25531865575E+03  0.00000000000E+00 0.  1.
         14    1    5    5    0    0 -0.22876737915E+02 -0.66322639720E+02  0.11312953940E+04  0.11334687055E+04  0.00000000000E+00 0. -1.
         11    1    3    3    0    0 -0.29303725681E+02  0.20222954610E+00  0.21114128038E+01  0.29380389712E+02  0.00000000000E+00 0. -1.
        -12    1    3    3    0    0  0.41892398918E+02 -0.21608487436E+02 -0.43653846889E+02  0.64246075091E+02  0.00000000000E+00 0.  1.
          5    1    4    4  501    0  0.53548174435E+02  0.50116163318E+02  0.14463457763E+03  0.16222105368E+03  0.41800000000E+01 0.  1.
         -5    1    4    4    0  501 -0.71581175511E+02  0.72112972244E+02  0.16331556849E+03  0.19238917008E+03  0.41800000000E+01 0.  1.
</event>
<event>
11    1  0.1002087E-008  0.2530224E+03  0.7561462E-02  0.1022301E+00
         22   -1    0    0    0    0  0.00000000000E+00  0.00000000000E+00  0.15223590118E+04  0.15223590118E+04  0.00000000000E+00 0.  1.
         22   -1    0    0    0    0 -0.00000000000E+00 -0.00000000000E+00 -0.31205917794E+03  0.31205917794E+03  0.00000000000E+00 0.  1.
         24    2    1    2    0    0 -0.95180703611E+02  0.35096533542E+02 -0.21326061246E+03  0.25013903612E+03  0.82451898440E+02 0.  0.
         25    2    1    2    0    0 -0.12989615433E+03 -0.88912155179E+02  0.76541985208E+02  0.21513809641E+03  0.12508933920E+03 0.  0.
        -24    2    1    2    0    0  0.22507685794E+03  0.53815621636E+02  0.13470184611E+04  0.13691410572E+04  0.80825657094E+02 0.  0.
        -11    1    3    3    0    0 -0.98366653601E+02  0.48343585014E+02 -0.20877172233E+03  0.23579383536E+03  0.00000000000E+00 0.  1.
         12    1    3    3    0    0  0.31859499900E+01 -0.13247051472E+02 -0.44888901352E+01  0.14345200754E+02  0.00000000000E+00 0. -1.
         11    1    5    5    0    0  0.13220845252E+03  0.38577631899E+02  0.10056937077E+04  0.10150798699E+04  0.00000000000E+00 0. -1.
        -12    1    5    5    0    0  0.92868405415E+02  0.15237989737E+02  0.34132475346E+03  0.35406118734E+03  0.00000000000E+00 0.  1.
          5    1    4    4  501    0  0.17464319315E+02 -0.13767563377E+02  0.39582374345E+02  0.45593694841E+02  0.41800000000E+01 0.  1.
         -5    1    4    4    0  501 -0.14736047364E+03 -0.75144591802E+02  0.36959610863E+02  0.16954440157E+03  0.41800000000E+01 0.  1.
</event>
<event>
11    1  0.1002087E-008  0.1395220E+03  0.7561462E-02  0.1108093E+00
         22   -1    0    0    0    0  0.00000000000E+00  0.00000000000E+00  0.24157583804E+03  0.24157583804E+03  0.00000000000E+00 0. -1.
         22   -1    0    0    0    0 -0.00000000000E+00 -0.00000000000E+00 -0.75391420127E+03  0.75391420127E+03  0.00000000000E+00 0. -1.
         24    2    1    2    0    0 -0.28815397936E+02 -0.53531048957E+02 -0.67104224833E+03  0.67876296983E+03  0.82009571409E+02 0.  0.
         25    2    1    2    0    0  0.67748835215E+02  0.60686442988E+02  0.27008090036E+02  0.15699981762E+03  0.12508699681E+03 0.  0.
        -24    2    1    2    0    0 -0.38933437279E+02 -0.71553940311E+01  0.13169579506E+03  0.15972725186E+03  0.81252694408E+02 0.  0.
        -11    1    3    3    0    0 -0.23650136480E+02 -0.22596679392E+02 -0.74112396526E+02  0.81009790728E+02  0.00000000000E+00 0.  1.
         12    1    3    3    0    0 -0.51652614555E+01 -0.30934369565E+02 -0.59692985180E+03  0.59775317910E+03  0.00000000000E+00 0. -1.
         13    1    5    5    0    0 -0.61011404773E+02 -0.13456884395E+02  0.11649576917E+03  0.13219207043E+03  0.00000000000E+00 0. -1.
        -14    1    5    5    0    0  0.22077967494E+02  0.63014903638E+01  0.15200025893E+02  0.27535181434E+02  0.00000000000E+00 0.  1.
          5    1    4    4  501    0  0.84901165586E+02  0.34108394322E+02 -0.25928246291E+02  0.95191054395E+02  0.41800000000E+01 0. -1.
         -5    1    4    4    0  501 -0.17152330372E+02  0.26578048666E+02  0.52936336327E+02  0.61808763228E+02  0.41800000000E+01 0. -1.
</event>
<event>
11    1  0.1002087E-008  0.1585225E+03  0.7561462E-02  0.1088475E+00
         22   -1    0    0    0    0  0.00000000000E+00  0.00000000000E+00  0.11098768489E+04  0.11098768489E+04  0.00000000000E+00 0. -1.
         22   -1    0    0    0    0 -0.00000000000E+00 -0.00000000000E+00 -0.23956207068E+03  0.23956207068E+03  0.00000000000E+00 0.  1.
        -24    2    1    2    0    0 -0.10083957097E+02 -0.86586414381E+01 -0.20117462788E+03  0.21770615797E+03  0.82146710542E+02 0.  0.
         25    2    1    2    0    0 -0.88027433388E+02 -0.60765907662E+01  0.20804795457E+03  0.25830517464E+03  0.12510738532E+03 0.  0.
         24    2    1    2    0    0  0.98111390485E+02  0.14735232204E+02  0.86344145159E+03  0.87342758701E+03  0.86611993485E+02 0.  0.
        -11    1    5    5    0    0  0.40476656406E+02  0.34229547603E+02  0.19039583148E+03  0.19763753259E+03  0.00000000000E+00 0.  1.
         12    1    5    5    0    0  0.57634734078E+02 -0.19494315399E+02  0.67304562011E+03  0.67579005442E+03  0.00000000000E+00 0. -1.
         13    1    3    3    0    0  0.21638509036E+02  0.21359762168E+02 -0.37355960574E+02  0.48165675575E+02  0.00000000000E+00 0. -1.
        -14    1    3    3    0    0 -0.31722466133E+02 -0.30018403606E+02 -0.16381866731E+03  0.16954048240E+03  0.00000000000E+00 0.  1.
          5    1    4    4  501    0 -0.60110374411E+02 -0.19379240643E+02  0.21683635386E+03  0.22588556579E+03  0.41800000000E+01 0. -1.
         -5    1    4    4    0  501 -0.27917058977E+02  0.13302649876E+02 -0.87883992907E+01  0.32419608846E+02  0.41800000000E+01 0. -1.
</event>
<event>
11    1  0.1002087E-008  0.1505207E+03  0.7561462E-02  0.1096348E+00
         22   -1    0    0    0    0  0.00000000000E+00  0.00000000000E+00  0.27432019468E+03  0.27432019468E+03  0.00000000000E+00 0.  1.
         22   -1    0    0    0    0 -0.00000000000E+00 -0.00000000000E+00 -0.18443581286E+04  0.18443581286E+04  0.00000000000E+00 0. -1.
        -24    2    1    2    0    0  0.24095659312E+02 -0.31737692708E+02 -0.15477961354E+04  0.15502914970E+04  0.78377083134E+02 0.  0.
         25    2    1    2    0    0 -0.93331099607E+02  0.75704801332E+02 -0.25517526166E+03  0.30855108731E+03  0.12508976065E+03 0.  0.
         24    2    1    2    0    0  0.69235440295E+02 -0.43967108624E+02  0.23293346307E+03  0.25983573897E+03  0.80808169091E+02 0.  0.
        -13    1    5    5    0    0  0.48842990787E+02  0.21059013794E+01  0.18096644523E+03  0.18745379929E+03  0.00000000000E+00 0.  1.
         14    1    5    5    0    0  0.20392449508E+02 -0.46073010003E+02  0.51967017843E+02  0.72381939675E+02  0.00000000000E+00 0. -1.
         11    1    3    3    0    0  0.27734204934E+02 -0.55383886414E+02 -0.12510978974E+04  0.12526302367E+04  0.00000000000E+00 0. -1.
        -12    1    3    3    0    0 -0.36385456219E+01  0.23646193706E+02 -0.29669823792E+03  0.29766126029E+03  0.00000000000E+00 0.  1.
          5    1    4    4  501    0 -0.65632956658E+02  0.47551585598E+02 -0.41376876974E+02  0.91095316239E+02  0.41800000000E+01 0.  1.
         -5    1    4    4    0  501 -0.27698142949E+02  0.28153215734E+02 -0.21379838469E+03  0.21745577107E+03  0.41800000000E+01 0.  1.
</event>
<event>
11    1  0.1002087E-008  0.2167452E+03  0.7561462E-02  0.1043276E+00
         22   -1    0    0    0    0  0.00000000000E+00  0.00000000000E+00  0.10076767933E+04  0.10076767933E+04  0.00000000000E+00 0. -1.
         22   -1    0    0    0    0 -0.00000000000E+00 -0.00000000000E+00 -0.27486944433E+04  0.27486944433E+04  0.00000000000E+00 0. -1.
         24    2    1    2    0    0  0.93285756165E+01  0.12581067963E+03 -0.26929668630E+04  0.26970128990E+04  0.76763941437E+02 0.  0.
         25    2    1    2    0    0  0.60154094882E+01 -0.26710643621E+03  0.52416951235E+03  0.60148466809E+03  0.12509234527E+03 0.  0.
        -24    2    1    2    0    0 -0.15343985105E+02  0.14129575658E+03  0.42777970064E+03  0.45787366953E+03  0.80329921373E+02 0.  0.
        -13    1    3    3    0    0 -0.12715794867E+02 -0.57849689720E+01 -0.21082972612E+03  0.21129205077E+03  0.00000000000E+00 0.  1.
         14    1    3    3    0    0  0.22044370483E+02  0.13159564860E+03 -0.24821371369E+04  0.24857208482E+04  0.00000000000E+00 0. -1.
         13    1    5    5    0    0 -0.12672763033E+02  0.14675478296E+03  0.34836953162E+03  0.37823127291E+03  0.00000000000E+00 0. -1.
        -14    1    5    5    0    0 -0.26712220715E+01 -0.54590263847E+01  0.79410169024E+02  0.79642396629E+02  0.00000000000E+00 0.  1.
          5    1    4    4  501    0  0.46280695603E+02 -0.10326406755E+03  0.30164412899E+03  0.32219873276E+03  0.41800000000E+01 0. -1.
         -5    1    4    4    0  501 -0.40265286114E+02 -0.16384236866E+03  0.22252538336E+03  0.27928593533E+03  0.41800000000E+01 0. -1.
</event>
<event>
11    1  0.1002087E-008  0.1494223E+03  0.7561462E-02  0.1097471E+00
         22   -1    0    0    0    0  0.00000000000E+00  0.00000000000E+00  0.10321042857E+04  0.10321042857E+04  0.00000000000E+00 0. -1.
         22   -1    0    0    0    0 -0.00000000000E+00 -0.00000000000E+00 -0.17375837720E+04  0.17375837720E+04  0.00000000000E+00 0.  1.
        -24    2    1    2    0    0 -0.17555082581E+02 -0.13742687167E+02 -0.14432036061E+04  0.14457012037E+04  0.81965111830E+02 0.  0.
         25    2    1    2    0    0 -0.97532447033E+01  0.90688431361E+02 -0.26919636367E+03  0.31053806108E+03  0.12509071828E+03 0.  0.
         24    2    1    2    0    0  0.27308327284E+02 -0.76945744194E+02  0.10069204834E+04  0.10134487929E+04  0.80766351750E+02 0.  0.
        -11    1    5    5    0    0 -0.47966791333E+01 -0.30228069077E+02  0.95880189938E+02  0.10064668456E+03  0.00000000000E+00 0.  1.
         12    1    5    5    0    0  0.32105006417E+02 -0.46717675117E+02  0.91104029349E+03  0.91280210833E+03  0.00000000000E+00 0. -1.
         13    1    3    3    0    0  0.39820211347E+01 -0.60801801007E+01 -0.10250327282E+02  0.12565599538E+02  0.00000000000E+00 0. -1.
        -14    1    3    3    0    0 -0.21537103715E+02 -0.76625070663E+01 -0.14329532788E+04  0.14331356042E+04  0.00000000000E+00 0.  1.
          5    1    4    4  501    0 -0.62722663291E+02  0.19320639911E+02 -0.11918302890E+03  0.13612305607E+03  0.41800000000E+01 0.  1.
         -5    1    4    4    0  501  0.52969418588E+02  0.71367791450E+02 -0.15001333477E+03  0.17441500500E+03  0.41800000000E+01 0.  1.
</event>
<event>
11    1  0.1002087E-008  0.2506226E+03  0.7561462E-02  0.1023568E+00
         22   -1    0    0    0    0  0.00000000000E+00  0.00000000000E+00  0.11654863997E+04  0.11654863997E+04  0.00000000000E+00 0. -1.
         22   -1    0    0    0    0 -0.00000000000E+00 -0.00000000000E+00 -0.20858555722E+03  0.20858555722E+03  0.00000000000E+00 0. -1.
        -24    2    1    2    0    0  0.79549408044E+02  0.18973647251E+03 -0.24580521846E+02  0.22286638377E+03  0.82080360872E+02 0.  0.
         25    2    1    2    0    0 -0.12349642412E+03 -0.21198285936E+03  0.15053040328E+03  0.31384017451E+03  0.12509257928E+03 0.  0.
         24    2    1    2    0    0  0.43947016075E+02  0.22246386858E+02  0.83095096101E+03  0.83736539860E+03  0.90967407470E+02 0.  0.
        -13    1    5    5    0    0  0.27620239047E+02 -0.34607524535E+02  0.36330114989E+03  0.36598945869E+03  0.00000000000E+00 0.  1.
         14    1    5    5    0    0  0.16326777027E+02  0.56853911393E+02  0.46764981111E+03  0.47137593991E+03  0.00000000000E+00 0. -1.
         11    1    3    3    0    0  0.12130556118E+02  0.82945766098E+02 -0.44669711633E+02  0.94987018285E+02  0.00000000000E+00 0. -1.
        -12    1    3    3    0    0  0.67418851926E+02  0.10679070641E+03  0.20089189788E+02  0.12787936548E+03  0.00000000000E+00 0.  1.
          5    1    4    4  501    0 -0.51395633459E+02 -0.10928451282E+03  0.40365268764E+01  0.12090650036E+03  0.41800000000E+01 0.  1.
         -5    1    4    4    0  501 -0.72100790659E+02 -0.10269834655E+03  0.14649387641E+03  0.19293367415E+03  0.41800000000E+01 0.  1.
</event>
<event>
11    1  0.1002087E-008  0.1694418E+03  0.7561462E-02  0.1078518E+00
         22   -1    0    0    0    0  0.00000000000E+00  0.00000000000E+00  0.25890291938E+03  0.25890291938E+03  0.00000000000E+00 0.  1.
         22   -1    0    0    0    0 -0.00000000000E+00 -0.00000000000E+00 -0.94195023446E+03  0.94195023446E+03  0.00000000000E+00 0.  1.
        -24    2    1    2    0    0  0.92612870271E+02 -0.62536187796E+02 -0.67493351194E+03  0.68887836762E+03  0.80809908456E+02 0.  0.
         25    2    1    2    0    0 -0.15042124781E+03 -0.15741138930E+01 -0.20425896220E+03  0.28284061279E+03  0.12509220191E+03 0.  0.
         24    2    1    2    0    0  0.57808377539E+02  0.64110301689E+02  0.19614515906E+03  0.22913417343E+03  0.81102445801E+02 0.  0.
        -13    1    5    5    0    0  0.68719409219E+02  0.67619051399E+02  0.19510588811E+03  0.21762582772E+03  0.00000000000E+00 0.  1.
         14    1    5    5    0    0 -0.10911031681E+02 -0.35087497100E+01  0.10392709479E+01  0.11508345709E+02  0.00000000000E+00 0. -1.
         13    1    3    3    0    0  0.46396222827E+02  0.81715643733E+01 -0.15098150522E+03  0.15816067424E+03  0.00000000000E+00 0. -1.
        -14    1    3    3    0    0  0.46216647444E+02 -0.70707752169E+02 -0.52395200672E+03  0.53071769338E+03  0.00000000000E+00 0.  1.
          5    1    4    4  501    0 -0.13461017384E+03  0.37908540929E+02 -0.19348183723E+03  0.23876693681E+03  0.41800000000E+01 0. -1.
         -5    1    4    4    0  501 -0.15811073970E+02 -0.39482654822E+02 -0.10777124970E+02  0.44073675982E+02  0.41800000000E+01 0. -1.
</event>
<event>
11    1  0.1002087E-008  0.1391891E+03  0.7561462E-02  0.1108467E+00
         22   -1    0    0    0    0  0.00000000000E+00  0.00000000000E+00  0.10551423098E+04  0.10551423098E+04  0.00000000000E+00 0.  1.
         22   -1    0    0    0    0 -0.00000000000E+00 -0.00000000000E+00 -0.10334919272E+03  0.10334919272E+03  0.00000000000E+00 0. -1.
         24    2    1    2    0    0  0.54162730458E+02 -0.45035222082E+02 -0.20324788533E+02  0.10860640566E+03  0.80127908520E+02 0.  0.
         25    2    1    2    0    0 -0.26812919374E+02  0.24881622396E+02  0.78398100979E+02  0.15208819051E+03  0.12508608106E+03 0.  0.
        -24    2    1    2    0    0 -0.27349811084E+02  0.20153599686E+02  0.89371980459E+03  0.89779690630E+03  0.78422038370E+02 0.  0.
        -11    1    3    3    0    0  0.69655064052E+01 -0.12080611428E+02  0.29400144807E+02  0.32539636854E+02  0.00000000000E+00 0.  1.
         12    1    3    3    0    0  0.47197224053E+02 -0.32954610654E+02 -0.49724933339E+02  0.76066768810E+02  0.00000000000E+00 0. -1.
         13    1    5    5    0    0 -0.21955704787E+02 -0.25170584112E+02  0.21872024546E+03  0.22125586331E+03  0.00000000000E+00 0. -1.
        -14    1    5    5    0    0 -0.53941062969E+01  0.45324183799E+02  0.67499955913E+03  0.67654104299E+03  0.00000000000E+00 0.  1.
          5    1    4    4  501    0  0.27949404878E+02  0.59084092238E+02  0.42822649143E+02  0.78251842587E+02  0.41800000000E+01 0.  1.
         -5    1    4    4    0  501 -0.54762324251E+02 -0.34202469842E+02  0.35575451835E+02  0.73836347919E+02  0.41800000000E+01 0.  1.
</event>
<event>
11    1  0.1002087E-008  0.3061001E+03  0.7561462E-02  0.9976421E-01
         22   -1    0    0    0    0  0.00000000000E+00  0.00000000000E+00  0.15269820116E+04  0.15269820116E+04  0.00000000000E+00 0.  1.
         22   -1    0    0    0    0 -0.00000000000E+00 -0.00000000000E+00 -0.76403094895E+03  0.76403094895E+03  0.00000000000E+00 0.  1.
         24    2    1    2    0    0  0.26011062796E+02  0.38650476888E+02 -0.59219989733E+03  0.60014387385E+03  0.85448909719E+02 0.  0.
         25    2    1    2    0    0 -0.11186586591E+03 -0.30015291189E+03  0.41634803798E+02  0.34639177894E+03  0.12509222660E+03 0.  0.
        -24    2    1    2    0    0  0.85854803115E+02  0.26150243500E+03  0.13135161561E+04  0.13444773077E+04  0.80870067308E+02 0.  0.
        -13    1    3    3    0    0 -0.93671034059E+01  0.15238607737E+02 -0.47774484767E+03  0.47807959302E+03  0.00000000000E+00 0.  1.
         14    1    3    3    0    0  0.35378166202E+02  0.23411869151E+02 -0.11445504966E+03  0.12206428083E+03  0.00000000000E+00 0. -1.
         13    1    5    5    0    0  0.47615887843E+02  0.19941898996E+03  0.80206392174E+03  0.82785369534E+03  0.00000000000E+00 0. -1.
        -14    1    5    5    0    0  0.38238915272E+02  0.62083445046E+02  0.51145223440E+03  0.51662361238E+03  0.00000000000E+00 0.  1.
          5    1    4    4  501    0 -0.13376936627E+03 -0.28004462001E+03  0.51835219101E+02  0.31468014696E+03  0.41800000000E+01 0. -1.
         -5    1    4    4    0  501  0.21903500361E+02 -0.20108291879E+02 -0.10200415304E+02  0.31711631978E+02  0.41800000000E+01 0. -1.
</event>
<event>
11    1  0.1002087E-008  0.1324959E+03  0.7561462E-02  0.1116240E+00
         22   -1    0    0    0    0  0.00000000000E+00  0.00000000000E+00  0.80317714876E+03  0.80317714876E+03  0.00000000000E+00 0. -1.
         22   -1    0    0    0    0 -0.00000000000E+00 -0.00000000000E+00 -0.12298767198E+03  0.12298767198E+03  0.00000000000E+00 0.  1.
         24    2    1    2    0    0  0.26341185423E+02 -0.33579839946E+02 -0.54492814926E+02  0.10973598904E+03  0.85153136830E+02 0.  0.
         25    2    1    2    0    0 -0.38718028511E+01  0.55505761347E+02  0.85364063657E+02  0.16134054567E+03  0.12509143820E+03 0.  0.
        -24    2    1    2    0    0 -0.22469382572E+02 -0.21925921401E+02  0.64931822804E+03  0.65508828603E+03  0.80875719766E+02 0.  0.
        -11    1    3    3    0    0  0.46168195208E+02 -0.40137353543E+02 -0.11933414988E+02  0.62329092657E+02  0.00000000000E+00 0.  1.
         12    1    3    3    0    0 -0.19827009786E+02  0.65575135964E+01 -0.42559399938E+02  0.47406896383E+02  0.00000000000E+00 0. -1.
         13    1    5    5    0    0  0.16112585873E+01 -0.45804287976E+02  0.49342771080E+03  0.49555174779E+03  0.00000000000E+00 0. -1.
        -14    1    5    5    0    0 -0.24080641159E+02  0.23878366575E+02  0.15589051724E+03  0.15953653824E+03  0.00000000000E+00 0.  1.
          5    1    4    4  501    0  0.26180044415E+02  0.29943283316E+02  0.10834543100E+03  0.11549112416E+03  0.41800000000E+01 0. -1.
         -5    1    4    4    0  501 -0.30051847266E+02  0.25562478031E+02 -0.22981367345E+02  0.45849421504E+02  0.41800000000E+01 0. -1.
</event>
<event>
11    1  0.1002087E-008  0.1507849E+03  0.7561462E-02  0.1096079E+00
         22   -1    0    0    0    0  0.00000000000E+00  0.00000000000E+00  0.17719723333E+03  0.17719723333E+03  0.00000000000E+00 0.  1.
         22   -1    0    0    0    0 -0.00000000000E+00 -0.00000000000E+00 -0.48047544371E+03  0.48047544371E+03  0.00000000000E+00 0.  1.
         24    2    1    2    0    0 -0.25512085547E+01  0.29603450170E+02 -0.37131667229E+03  0.38046136029E+03  0.77407380976E+02 0.  0.
         25    2    1    2    0    0 -0.68076307699E+02  0.31187700820E+02  0.34104626009E+02  0.14972256153E+03  0.12508662424E+03 0.  0.
        -24    2    1    2    0    0  0.70627516253E+02 -0.60791150990E+02  0.33933835894E+02  0.12748875522E+03  0.80112841651E+02 0.  0.
        -13    1    3    3    0    0  0.15701496557E+02  0.22650390589E+02 -0.35170229023E+03  0.35278049570E+03  0.00000000000E+00 0.  1.
         14    1    3    3    0    0 -0.18252705112E+02  0.69530595812E+01 -0.19614382055E+02  0.27680864597E+02  0.00000000000E+00 0. -1.
         11    1    5    5    0    0 -0.17786641906E+01 -0.49579709950E+02  0.12941408606E+02  0.51271740186E+02  0.00000000000E+00 0. -1.
        -12    1    5    5    0    0  0.72406180444E+02 -0.11211441040E+02  0.20992427288E+02  0.76217015030E+02  0.00000000000E+00 0.  1.
          5    1    4    4  501    0 -0.10379640233E+03  0.15562881391E+02  0.15002620558E+02  0.10610583131E+03  0.41800000000E+01 0. -1.
         -5    1    4    4    0  501  0.35720094635E+02  0.15624819429E+02  0.19102005451E+02  0.43616730221E+02  0.41800000000E+01 0. -1.
</event>
<event>
11    1  0.1002087E-008  0.1716313E+03  0.7561462E-02  0.1076621E+00
         22   -1    0    0    0    0  0.00000000000E+00  0.00000000000E+00  0.14197321623E+04  0.14197321623E+04  0.00000000000E+00 0. -1.
         22   -1    0    0    0    0 -0.00000000000E+00 -0.00000000000E+00 -0.16424380614E+04  0.16424380614E+04  0.00000000000E+00 0.  1.
        -24    2    1    2    0    0  0.48290048577E+02 -0.10729792149E+03 -0.16247750852E+04  0.16311761783E+04  0.83647321920E+02 0.  0.
         25    2    1    2    0    0 -0.43857524641E+02  0.88773043775E+02  0.49383001724E+03  0.51895317687E+03  0.12506069759E+03 0.  0.
         24    2    1    2    0    0 -0.44325239367E+01  0.18524877720E+02  0.90823916878E+03  0.91204086851E+03  0.80977402821E+02 0.  0.
        -11    1    5    5    0    0  0.12726456403E+02 -0.14581686424E+02  0.61334896220E+02  0.64316077040E+02  0.00000000000E+00 0.  1.
         12    1    5    5    0    0 -0.17158980340E+02  0.33106564144E+02  0.84690427256E+03  0.84772479147E+03  0.00000000000E+00 0. -1.
         11    1    3    3    0    0  0.15334494291E+02 -0.66845926491E+02 -0.44556015310E+03  0.45080746958E+03  0.00000000000E+00 0. -1.
        -12    1    3    3    0    0  0.32955554286E+02 -0.40451995003E+02 -0.11792149321E+04  0.11803687087E+04  0.00000000000E+00 0.  1.
          5    1    4    4  501    0  0.43102777203E+02  0.16495756901E+02  0.14718814793E+03  0.15431066940E+03  0.41800000000E+01 0. -1.
         -5    1    4    4    0  501 -0.86960301844E+02  0.72277286873E+02  0.34664186931E+03  0.36464250747E+03  0.41800000000E+01 0. -1.
</event>
<event>
11    1  0.1002087E-008  0.1504801E+03  0.7561462E-02  0.1096389E+00
         22   -1    0    0    0    0  0.00000000000E+00  0.00000000000E+00  0.65046779004E+03  0.65046779004E+03  0.00000000000E+00 0.  1.
         22   -1    0    0    0    0 -0.00000000000E+00 -0.00000000000E+00 -0.82032339541E+03  0.82032339541E+03  0.00000000000E+00 0.  1.
         24    2    1    2    0    0  0.45207260261E+02 -0.15289437707E+01 -0.77981479402E+03  0.78533844801E+03  0.81236265943E+02 0.  0.
         25    2    1    2    0    0  0.29197653825E+02  0.53352712781E+02  0.12970522568E+03  0.19018507205E+03  0.12509157091E+03 0.  0.
        -24    2    1    2    0    0 -0.74404914086E+02 -0.51823769010E+02  0.48025396297E+03  0.49526766539E+03  0.80152337232E+02 0.  0.
        -13    1    3    3    0    0  0.55635557394E+02 -0.26087955613E+02 -0.41200074028E+03  0.41655792715E+03  0.00000000000E+00 0.  1.
         14    1    3    3    0    0 -0.10428297133E+02  0.24559011842E+02 -0.36781405373E+03  0.36878052086E+03  0.00000000000E+00 0. -1.
         11    1    5    5    0    0 -0.77194325164E+02 -0.17226195397E+02  0.24456255072E+03  0.25703413560E+03  0.00000000000E+00 0. -1.
        -12    1    5    5    0    0  0.27894110774E+01 -0.34597573613E+02  0.23569141224E+03  0.23823352980E+03  0.00000000000E+00 0.  1.
          5    1    4    4  501    0 -0.12657064414E+01  0.56186395415E+02 -0.51042218559E+00  0.56358193489E+02  0.41800000000E+01 0. -1.
         -5    1    4    4    0  501  0.30463360267E+02 -0.28336826346E+01  0.13021564787E+03  0.13382687856E+03  0.41800000000E+01 0. -1.
</event>
<event>
11    1  0.1002087E-008  0.1401805E+03  0.7561462E-02  0.1107357E+00
         22   -1    0    0    0    0  0.00000000000E+00  0.00000000000E+00  0.33697133047E+03  0.33697133047E+03  0.00000000000E+00 0.  1.
         22   -1    0    0    0    0 -0.00000000000E+00 -0.00000000000E+00 -0.39217495457E+03  0.39217495457E+03  0.00000000000E+00 0.  1.
         24    2    1    2    0    0 -0.87851747939E+01  0.71210229050E+02 -0.20736949135E+03  0.23284187723E+03  0.77879123202E+02 0.  0.
         25    2    1    2    0    0  0.71162671833E+02 -0.73708909743E+02 -0.12130814407E+03  0.20213923132E+03  0.12508986284E+03 0.  0.
        -24    2    1    2    0    0 -0.62377497039E+02  0.24986806924E+01  0.27347401132E+03  0.29416517649E+03  0.88588490502E+02 0.  0.
        -11    1    3    3    0    0 -0.38746442238E+02  0.52902715918E+02 -0.97513545507E+02  0.11751117264E+03  0.00000000000E+00 0.  1.
         12    1    3    3    0    0  0.29961267444E+02  0.18307513132E+02 -0.10985594584E+03  0.11533070459E+03  0.00000000000E+00 0. -1.
         11    1    5    5    0    0 -0.67046044029E+02 -0.27862898188E+02  0.14619073781E+03  0.16322758632E+03  0.00000000000E+00 0. -1.
        -12    1    5    5    0    0  0.46685469896E+01  0.30361578881E+02  0.12728327351E+03  0.13093759017E+03  0.00000000000E+00 0.  1.
          5    1    4    4  501    0  0.10626707539E+03 -0.57254872667E+02 -0.77584866880E+02  0.14355380777E+03  0.41800000000E+01 0. -1.
         -5    1    4    4    0  501 -0.35104403555E+02 -0.16454037075E+02 -0.43723277192E+02  0.58585423558E+02  0.41800000000E+01 0. -1.
</event>
<event>
11    1  0.1002087E-008  0.1297115E+03  0.7561462E-02  0.1119624E+00
         22   -1    0    0    0    0  0.00000000000E+00  0.00000000000E+00  0.14202621841E+04  0.14202621841E+04  0.00000000000E+00 0. -1.
         22   -1    0    0    0    0 -0.00000000000E+00 -0.00000000000E+00 -0.46498598239E+03  0.46498598239E+03  0.00000000000E+00 0.  1.
         24    2    1    2    0    0  0.13816122585E+02 -0.98605323901E+01 -0.43431707711E+03  0.44243646572E+03  0.82647367693E+02 0.  0.
         25    2    1    2    0    0  0.18204740848E+01  0.40243776894E+02  0.14693989677E+03  0.19713247451E+03  0.12508798318E+03 0.  0.
        -24    2    1    2    0    0 -0.15636596670E+02 -0.30383244504E+02  0.12426533821E+04  0.12456792263E+04  0.79760028454E+02 0.  0.
        -11    1    3    3    0    0 -0.28633009290E+02 -0.12040107959E+02 -0.84161280827E+02  0.89710281524E+02  0.00000000000E+00 0.  1.
         12    1    3    3    0    0  0.42449131875E+02  0.21795755687E+01 -0.35015579628E+03  0.35272618420E+03  0.00000000000E+00 0. -1.
         11    1    5    5    0    0  0.28190170832E+01 -0.48774252674E+02  0.10655673588E+04  0.10666867725E+04  0.00000000000E+00 0. -1.
        -12    1    5    5    0    0 -0.18455613753E+02  0.18391008171E+02  0.17708602332E+03  0.17899245380E+03  0.00000000000E+00 0.  1.
          5    1    4    4  501    0  0.22174905475E+02  0.97521462276E+01 -0.16482065560E+02  0.29596649709E+02  0.41800000000E+01 0. -1.
         -5    1    4    4    0  501 -0.20354431391E+02  0.30491630666E+02  0.16342196233E+03  0.16753582480E+03  0.41800000000E+01 0. -1.
</event>
<event>
11    1  0.1002087E-008  0.1326620E+03  0.7561462E-02  0.1116041E+00
         22   -1    0    0    0    0  0.00000000000E+00  0.00000000000E+00  0.11800397140E+04  0.11800397140E+04  0.00000000000E+00 0. -1.
         22   -1    0    0    0    0 -0.00000000000E+00 -0.00000000000E+00 -0.15196179139E+03  0.15196179139E+03  0.00000000000E+00 0.  1.
         24    2    1    2    0    0 -0.19914941719E+02  0.34432952070E+01 -0.12330672700E+03  0.15024367515E+03  0.83427524324E+02 0.  0.
         25    2    1    2    0    0  0.60774154064E+02 -0.45563346240E+01  0.36908714211E+03  0.39444511265E+03  0.12508944973E+03 0.  0.
        -24    2    1    2    0    0 -0.40859212345E+02  0.11130394171E+01  0.78229750753E+03  0.78731271763E+03  0.78747767920E+02 0.  0.
        -11    1    3    3    0    0  0.31612753162E+02  0.37484953878E+01 -0.65357498163E+02  0.72698142660E+02  0.00000000000E+00 0.  1.
         12    1    3    3    0    0 -0.51527694881E+02 -0.30520018087E+00 -0.57949228834E+02  0.77545532491E+02  0.00000000000E+00 0. -1.
         13    1    5    5    0    0 -0.16183904263E+02  0.10421054073E+01  0.72172286938E+03  0.72190505257E+03  0.00000000000E+00 0. -1.
        -14    1    5    5    0    0 -0.24675308082E+02  0.70934009724E-01  0.60574638154E+02  0.65407665056E+02  0.00000000000E+00 0.  1.
          5    1    4    4  501    0 -0.49153267141E+00  0.13366147907E+02  0.29985948944E+03  0.30018674408E+03  0.41800000000E+01 0.  1.
         -5    1    4    4    0  501  0.61265686736E+02 -0.17922482531E+02  0.69227652674E+02  0.94258368573E+02  0.41800000000E+01 0.  1.
</event>
<event>
11    1  0.1002087E-008  0.2708311E+03  0.7561462E-02  0.1013352E+00
         22   -1    0    0    0    0  0.00000000000E+00  0.00000000000E+00  0.21998641509E+03  0.21998641509E+03  0.00000000000E+00 0.  1.
         22   -1    0    0    0    0 -0.00000000000E+00 -0.00000000000E+00 -0.48883352529E+03  0.48883352529E+03  0.00000000000E+00 0.  1.
         24    2    1    2    0    0 -0.66738518308E+02 -0.13718562414E+02 -0.62795761403E+02  0.12200184192E+03  0.79365691588E+02 0.  0.
         25    2    1    2    0    0  0.56810381323E+02  0.24330378567E+03 -0.19386199788E+02  0.28008667838E+03  0.12509424892E+03 0.  0.
        -24    2    1    2    0    0  0.99281369851E+01 -0.22958522326E+03 -0.18666514901E+03  0.30673142008E+03  0.80201892551E+02 0.  0.
        -11    1    3    3    0    0 -0.37394321496E+02 -0.54139647151E+01 -0.78924565223E+02  0.87502761612E+02  0.00000000000E+00 0.  1.
         12    1    3    3    0    0 -0.29344196812E+02 -0.83045976988E+01  0.16128803820E+02  0.34499080309E+02  0.00000000000E+00 0. -1.
         13    1    5    5    0    0  0.39530715464E+02 -0.17002910358E+03 -0.15330953115E+03  0.23232818570E+03  0.00000000000E+00 0. -1.
        -14    1    5    5    0    0 -0.29602578479E+02 -0.59556119680E+02 -0.33355617857E+02  0.74403234382E+02  0.00000000000E+00 0.  1.
          5    1    4    4  501    0  0.67476490083E+02  0.11032062704E+03  0.37918761864E+02  0.13482960493E+03  0.41800000000E+01 0. -1.
         -5    1    4    4    0  501 -0.10666108760E+02  0.13298315863E+03 -0.57304961652E+02  0.14525707344E+03  0.41800000000E+01 0. -1.
</event>
<event>
11    1  0.1002087E-008  0.1468505E+03  0.7561462E-02  0.1100141E+00
         22   -1    0    0    0    0  0.00000000000E+00  0.00000000000E+00  0.24099996745E+03  0.24099996745E+03  0.00000000000E+00 0.  1.
         22   -1    0    0    0    0 -0.00000000000E+00 -0.00000000000E+00 -0.26419244129E+04  0.26419244129E+04  0.00000000000E+00 0.  1.
        -24    2    1    2    0    0  0.13918746606E+02  0.38024649211E+02 -0.25293140093E+04  0.25308686520E+04  0.78912424609E+02 0.  0.
         25    2    1    2    0    0  0.70581031095E+01  0.42460500582E+02 -0.48260455908E+02  0.14080791233E+03  0.12508031676E+03 0.  0.
         24    2    1    2    0    0 -0.20976849715E+02 -0.80485149793E+02  0.17665001977E+03  0.21124781597E+03  0.80638221124E+02 0.  0.
        -13    1    5    5    0    0 -0.25455689929E+02 -0.90084300074E+02  0.17744668964E+03  0.20062527491E+03  0.00000000000E+00 0.  1.
         14    1    5    5    0    0  0.44788402138E+01  0.95991502810E+01 -0.79666986256E+00  0.10622541064E+02  0.00000000000E+00 0. -1.
         11    1    3    3    0    0  0.40192114126E+02  0.19062817858E+02 -0.78896510827E+03  0.79021815920E+03  0.00000000000E+00 0. -1.
        -12    1    3    3    0    0 -0.26273367520E+02  0.18961831353E+02 -0.17403489010E+04  0.17406504928E+04  0.00000000000E+00 0.  1.
          5    1    4    4  501    0  0.49296426850E+02  0.14032609992E+01  0.17433307137E+02  0.52473797645E+02  0.41800000000E+01 0. -1.
         -5    1    4    4    0  501 -0.42238323741E+02  0.41057239582E+02 -0.65693763045E+02  0.88334114687E+02  0.41800000000E+01 0. -1.
</event>
<event>
11    1  0.1002087E-008  0.1437102E+03  0.7561462E-02  0.1103485E+00
         22   -1    0    0    0    0  0.00000000000E+00  0.00000000000E+00  0.21429524381E+03  0.21429524381E+03  0.00000000000E+00 0.  1.
         22   -1    0    0    0    0 -0.00000000000E+00 -0.00000000000E+00 -0.12415318494E+04  0.12415318494E+04  0.00000000000E+00 0.  1.
         24    2    1    2    0    0  0.66906636645E+02 -0.10065400007E+02 -0.79769047152E+03  0.80444568336E+03  0.79025051852E+02 0.  0.
         25    2    1    2    0    0 -0.12597561986E+03  0.45023643799E+02 -0.40597393531E+03  0.44537516682E+03  0.12508883953E+03 0.  0.
        -24    2    1    2    0    0  0.59068983213E+02 -0.34958243792E+02  0.17642780120E+03  0.20600624306E+03  0.81243950907E+02 0.  0.
        -11    1    3    3    0    0  0.43438126853E+02  0.19849628159E+02 -0.65619532614E+03  0.65793098775E+03  0.00000000000E+00 0.  1.
         12    1    3    3    0    0  0.23468509792E+02 -0.29915028166E+02 -0.14149514539E+03  0.14651469561E+03  0.00000000000E+00 0. -1.
         11    1    5    5    0    0 -0.80532706861E+01  0.17612191338E+02  0.19918804257E+02  0.27781346539E+02  0.00000000000E+00 0. -1.
        -12    1    5    5    0    0  0.67122253899E+02 -0.52570435129E+02  0.15650899694E+03  0.17822489652E+03  0.00000000000E+00 0.  1.
          5    1    4    4  501    0 -0.12513492206E+03  0.72214441121E+02 -0.38352885415E+03  0.40986037695E+03  0.41800000000E+01 0.  1.
         -5    1    4    4    0  501 -0.84069779854E+00 -0.27190797322E+02 -0.22445081158E+02  0.35514789876E+02  0.41800000000E+01 0.  1.
</event>
<event>
11    1  0.1002087E-008  0.1895473E+03  0.7561462E-02  0.1062172E+00
         22   -1    0    0    0    0  0.00000000000E+00  0.00000000000E+00  0.14736124813E+04  0.14736124813E+04  0.00000000000E+00 0. -1.
         22   -1    0    0    0    0 -0.00000000000E+00 -0.00000000000E+00 -0.57000527890E+03  0.57000527890E+03  0.00000000000E+00 0.  1.
        -24    2    1    2    0    0 -0.30888154092E+02 -0.65504955842E+02 -0.49404922295E+03  0.50586555110E+03  0.81057657209E+02 0.  0.
         25    2    1    2    0    0  0.15266112225E+03 -0.93106787639E+01  0.85585591971E+02  0.21531160691E+03  0.12506833145E+03 0.  0.
         24    2    1    2    0    0 -0.12177296815E+03  0.74815634606E+02  0.13120708334E+04  0.13224406022E+04  0.83025535610E+02 0.  0.
        -11    1    5    5    0    0 -0.33076092479E+02  0.25231396535E+02  0.14207642958E+03  0.14804176136E+03  0.00000000000E+00 0.  1.
         12    1    5    5    0    0 -0.88696875674E+02  0.49584238071E+02  0.11699944038E+04  0.11743988408E+04  0.00000000000E+00 0. -1.
         13    1    3    3    0    0 -0.26656285056E+02  0.13256284026E+02 -0.14252436452E+03  0.14560041580E+03  0.00000000000E+00 0. -1.
        -14    1    3    3    0    0 -0.42318690366E+01 -0.78761239868E+02 -0.35152485843E+03  0.36026513530E+03  0.00000000000E+00 0.  1.
          5    1    4    4  501    0  0.82787430987E+02 -0.77736737942E+01  0.11279572536E+03  0.14019463896E+03  0.41800000000E+01 0.  1.
         -5    1    4    4    0  501  0.69873691258E+02 -0.15370049696E+01 -0.27210133392E+02  0.75116967947E+02  0.41800000000E+01 0.  1.
</event>
<event>
11    1  0.1002087E-008  0.2094216E+03  0.7561462E-02  0.1048054E+00
         22   -1    0    0    0    0  0.00000000000E+00  0.00000000000E+00  0.19891541918E+03  0.19891541918E+03  0.00000000000E+00 0. -1.
         22   -1    0    0    0    0 -0.00000000000E+00 -0.00000000000E+00 -0.17189393575E+04  0.17189393575E+04  0.00000000000E+00 0. -1.
        -24    2    1    2    0    0 -0.12330404006E+03  0.11675152720E+03 -0.13421816672E+04  0.13541080285E+04  0.57637830977E+02 0.  0.
         25    2    1    2    0    0  0.42430572222E+02 -0.17726920657E+03 -0.30924471251E+03  0.38013830284E+03  0.12509241388E+03 0.  0.
         24    2    1    2    0    0  0.80873467842E+02  0.60517679372E+02  0.13140244143E+03  0.18360844535E+03  0.79009823889E+02 0.  0.
        -13    1    5    5    0    0 -0.64023318488E+01  0.10109203602E+02 -0.58547670735E+01  0.13321567027E+02  0.00000000000E+00 0.  1.
         14    1    5    5    0    0  0.87275799691E+02  0.50408475770E+02  0.13725720850E+03  0.17028687832E+03  0.00000000000E+00 0. -1.
         13    1    3    3    0    0 -0.77050246527E+02  0.10288365010E+03 -0.10679445799E+04  0.10756520867E+04  0.00000000000E+00 0. -1.
        -14    1    3    3    0    0 -0.46253793536E+02  0.13867877099E+02 -0.27423708734E+03  0.27845594177E+03  0.00000000000E+00 0.  1.
          5    1    4    4  501    0  0.58273555464E+02 -0.10189101006E+03 -0.26813094200E+03  0.29272727863E+03  0.41800000000E+01 0. -1.
         -5    1    4    4    0  501 -0.15842983242E+02 -0.75378196506E+02 -0.41113770508E+02  0.87411024201E+02  0.41800000000E+01 0. -1.
</event>
<event>
11    1  0.1002087E-008  0.1317539E+03  0.7561462E-02  0.1117133E+00
         22   -1    0    0    0    0  0.00000000000E+00  0.00000000000E+00  0.24180050443E+03  0.24180050443E+03  0.00000000000E+00 0.  1.
         22   -1    0    0    0    0 -0.00000000000E+00 -0.00000000000E+00 -0.35329819141E+03  0.35329819141E+03  0.00000000000E+00 0.  1.
         24    2    1    2    0    0  0.16140442679E+02  0.43426283340E+02 -0.29192061507E+03  0.30626325163E+03  0.80207093335E+02 0.  0.
         25    2    1    2    0    0  0.15590707603E+02  0.72394177547E+01  0.92568664662E+02  0.15656292824E+03  0.12509002154E+03 0.  0.
        -24    2    1    2    0    0 -0.31731150282E+02 -0.50665701095E+02  0.87854263428E+02  0.13227251597E+03  0.78764000103E+02 0.  0.
        -11    1    3    3    0    0  0.39577684027E+02  0.26437356689E+02 -0.25471268771E+03  0.25912136188E+03  0.00000000000E+00 0.  1.
         12    1    3    3    0    0 -0.23437241348E+02  0.16988926652E+02 -0.37207927359E+02  0.47141889750E+02  0.00000000000E+00 0. -1.
         13    1    5    5    0    0  0.25328339275E+02 -0.20821095245E+02  0.41701777031E+02  0.53047912166E+02  0.00000000000E+00 0. -1.
        -14    1    5    5    0    0 -0.57059489557E+02 -0.29844605850E+02  0.46152486397E+02  0.79224603801E+02  0.00000000000E+00 0.  1.
          5    1    4    4  501    0 -0.14050737791E+02 -0.54443534594E+02  0.30628832368E+02  0.64164783672E+02  0.41800000000E+01 0. -1.
         -5    1    4    4    0  501  0.29641445394E+02  0.61682952348E+02  0.61939832294E+02  0.92398144570E+02  0.41800000000E+01 0. -1.
</event>
<event>
11    1  0.1002087E-008  0.1858864E+03  0.7561462E-02  0.1064978E+00
         22   -1    0    0    0    0  0.00000000000E+00  0.00000000000E+00  0.36586488179E+03  0.36586488179E+03  0.00000000000E+00 0.  1.
         22   -1    0    0    0    0 -0.00000000000E+00 -0.00000000000E+00 -0.83352934761E+03  0.83352934761E+03  0.00000000000E+00 0. -1.
         24    2    1    2    0    0 -0.21083847548E+02 -0.70168261002E+02 -0.64523033689E+03  0.65475497023E+03  0.83748253290E+02 0.  0.
         25    2    1    2    0    0  0.69142391835E+02  0.18996836325E+03 -0.75349895758E+02  0.24938755950E+03  0.12509156110E+03 0.  0.
        -24    2    1    2    0    0 -0.48058544287E+02 -0.11980010225E+03  0.25291576683E+03  0.29525169967E+03  0.80904220338E+02 0.  0.
        -11    1    3    3    0    0 -0.12000500462E+02 -0.20416144152E+02 -0.33993057240E+02  0.41428962018E+02  0.00000000000E+00 0.  1.
         12    1    3    3    0    0 -0.90833470861E+01 -0.49752116850E+02 -0.61123727965E+03  0.61332600822E+03  0.00000000000E+00 0. -1.
         11    1    5    5    0    0 -0.27084967792E+02 -0.57789559293E+01  0.17289304088E+02  0.32648305435E+02  0.00000000000E+00 0. -1.
        -12    1    5    5    0    0 -0.20973576495E+02 -0.11402114632E+03  0.23562646274E+03  0.26260339423E+03  0.00000000000E+00 0.  1.
          5    1    4    4  501    0  0.30004583443E+02  0.26144309364E+01  0.19104697496E+02  0.35910613237E+02  0.41800000000E+01 0. -1.
         -5    1    4    4    0  501  0.39137808392E+02  0.18735393232E+03 -0.94454593254E+02  0.21347694627E+03  0.41800000000E+01 0. -1.
</event>
<event>
11    1  0.1002087E-008  0.2271118E+03  0.7561462E-02  0.1036852E+00
         22   -1    0    0    0    0  0.00000000000E+00  0.00000000000E+00  0.24090510945E+04  0.24090510945E+04  0.00000000000E+00 0. -1.
         22   -1    0    0    0    0 -0.00000000000E+00 -0.00000000000E+00 -0.19498174867E+04  0.19498174867E+04  0.00000000000E+00 0.  1.
         24    2    1    2    0    0  0.27745893221E+02 -0.18752414970E+03 -0.19080874932E+04  0.19193370422E+04  0.84389920133E+02 0.  0.
         25    2    1    2    0    0 -0.26645405337E+02  0.18712529340E+03  0.32829300234E+03  0.39893605278E+03  0.12509126974E+03 0.  0.
        -24    2    1    2    0    0 -0.11004878840E+01  0.39885630664E+00  0.20390280986E+04  0.20405954862E+04  0.79956119358E+02 0.  0.
        -11    1    3    3    0    0  0.53613315752E+02 -0.15901012216E+03 -0.14646310057E+04  0.14742125320E+04  0.00000000000E+00 0.  1.
         12    1    3    3    0    0 -0.25867422531E+02 -0.28514027544E+02 -0.44345648743E+03  0.44512451018E+03  0.00000000000E+00 0. -1.
         11    1    5    5    0    0 -0.23850656383E+02  0.12263565631E+02  0.17990013418E+04  0.17992012329E+04  0.00000000000E+00 0. -1.
        -12    1    5    5    0    0  0.22750168499E+02 -0.11864709324E+02  0.24002675683E+03  0.24139425322E+03  0.00000000000E+00 0.  1.
          5    1    4    4  501    0  0.19362159703E+02  0.17775617011E+03  0.24684570224E+03  0.30483179355E+03  0.41800000000E+01 0.  1.
         -5    1    4    4    0  501 -0.46007565039E+02  0.93691232823E+01  0.81447300098E+02  0.94104259230E+02  0.41800000000E+01 0.  1.
</event>
<event>
11    1  0.1002087E-008  0.1376197E+03  0.7561462E-02  0.1110246E+00
         22   -1    0    0    0    0  0.00000000000E+00  0.00000000000E+00  0.14289605331E+04  0.14289605331E+04  0.00000000000E+00 0. -1.
         22   -1    0    0    0    0 -0.00000000000E+00 -0.00000000000E+00 -0.13514928095E+03  0.13514928095E+03  0.00000000000E+00 0. -1.
         24    2    1    2    0    0 -0.85456934750E+01  0.36568959224E+02 -0.69947200266E+02  0.11245515226E+03  0.79644414683E+02 0.  0.
         25    2    1    2    0    0 -0.31468581827E+02 -0.76457683585E+02  0.91616039939E+02  0.17571994107E+03  0.12509176589E+03 0.  0.
        -24    2    1    2    0    0  0.40014275302E+02  0.39888724361E+02  0.12721424125E+04  0.12759347208E+04  0.80441540079E+02 0.  0.
        -11    1    3    3    0    0 -0.24603965040E+02  0.48803120877E+02 -0.19348899030E+02  0.57978268314E+02  0.00000000000E+00 0.  1.
         12    1    3    3    0    0  0.16058271565E+02 -0.12234161653E+02 -0.50598301236E+02  0.54476883951E+02  0.00000000000E+00 0. -1.
         13    1    5    5    0    0  0.12165824837E+02  0.32946005511E+02  0.11472301463E+04  0.11477675963E+04  0.00000000000E+00 0. -1.
        -14    1    5    5    0    0  0.27848450465E+02  0.69427188507E+01  0.12491226625E+03  0.12816712448E+03  0.00000000000E+00 0.  1.
          5    1    4    4  501    0  0.28441798232E+02 -0.60429668856E+02  0.91750295894E+02  0.11356174515E+03  0.41800000000E+01 0. -1.
         -5    1    4    4    0  501 -0.59910380059E+02 -0.16028014729E+02 -0.13425595492E+00  0.62158195917E+02  0.41800000000E+01 0. -1.
</event>
<event>
11    1  0.1002087E-008  0.1765468E+03  0.7561462E-02  0.1072471E+00
         22   -1    0    0    0    0  0.00000000000E+00  0.00000000000E+00  0.51294012875E+03  0.51294012875E+03  0.00000000000E+00 0. -1.
         22   -1    0    0    0    0 -0.00000000000E+00 -0.00000000000E+00 -0.50797690205E+03  0.50797690205E+03  0.00000000000E+00 0. -1.
         24    2    1    2    0    0  0.12202279680E+03  0.69011251350E+01 -0.43172662398E+03  0.45586970436E+03  0.80573699406E+02 0.  0.
         25    2    1    2    0    0 -0.15850745724E+03 -0.28937418293E+01  0.11348110852E+03  0.23164248302E+03  0.12508912905E+03 0.  0.
        -24    2    1    2    0    0  0.36484660445E+02 -0.40073833057E+01  0.32320874216E+03  0.33340484342E+03  0.73128031851E+02 0.  0.
        -13    1    3    3    0    0  0.10020836519E+02 -0.24416087519E+01 -0.17878713765E+03  0.17908439130E+03  0.00000000000E+00 0.  1.
         14    1    3    3    0    0  0.11200196028E+03  0.93427338869E+01 -0.25293948632E+03  0.27678531306E+03  0.00000000000E+00 0. -1.
         11    1    5    5    0    0  0.48031317334E+02 -0.20428045864E+02  0.28953265532E+03  0.29419971278E+03  0.00000000000E+00 0. -1.
        -12    1    5    5    0    0 -0.11546656888E+02  0.16420662559E+02  0.33676086838E+02  0.39205130645E+02  0.00000000000E+00 0.  1.
          5    1    4    4  501    0 -0.36165670899E+01 -0.13085746532E+02 -0.21583873230E+02  0.25838968699E+02  0.41800000000E+01 0. -1.
         -5    1    4    4    0  501 -0.15489089015E+03  0.10192004703E+02  0.13506498175E+03  0.20580351432E+03  0.41800000000E+01 0. -1.
</event>
<event>
11    1  0.1002087E-008  0.1468674E+03  0.7561462E-02  0.1100123E+00
         22   -1    0    0    0    0  0.00000000000E+00  0.00000000000E+00  0.34102123113E+03  0.34102123113E+03  0.00000000000E+00 0.  1.
         22   -1    0    0    0    0 -0.00000000000E+00 -0.00000000000E+00 -0.11436069266E+04  0.11436069266E+04  0.00000000000E+00 0. -1.
        -24    2    1    2    0    0  0.50073430536E+02  0.60668921631E+02 -0.10765345054E+04  0.10825126973E+04  0.81970311946E+02 0.  0.
         25    2    1    2    0    0  0.28533542164E+02 -0.52882235255E+02  0.42632694662E+02  0.14517663730E+03  0.12509202824E+03 0.  0.
         24    2    1    2    0    0 -0.78606972700E+02 -0.77866863762E+01  0.23131611529E+03  0.25693882309E+03  0.79187909284E+02 0.  0.
        -11    1    5    5    0    0 -0.75035561678E+02  0.15895308853E+02  0.21415303005E+03  0.22747421093E+03  0.00000000000E+00 0.  1.
         12    1    5    5    0    0 -0.35714110221E+01 -0.23681995229E+02  0.17163085242E+02  0.29464612160E+02  0.00000000000E+00 0. -1.
         11    1    3    3    0    0  0.46176925945E+02  0.78230980972E+02 -0.74974195178E+03  0.75522538962E+03  0.00000000000E+00 0. -1.
        -12    1    3    3    0    0  0.38965045908E+01 -0.17562059341E+02 -0.32679255361E+03  0.32728730769E+03  0.00000000000E+00 0.  1.
          5    1    4    4  501    0 -0.29348349914E+02 -0.28361307528E+01 -0.28060721891E+02  0.40917548722E+02  0.41800000000E+01 0.  1.
         -5    1    4    4    0  501  0.57881892079E+02 -0.50046104502E+02  0.70693416553E+02  0.10425908857E+03  0.41800000000E+01 0.  1.
</event>
<event>
11    1  0.1002087E-008  0.1534558E+03  0.7561462E-02  0.1093399E+00
         22   -1    0    0    0    0  0.00000000000E+00  0.00000000000E+00  0.26474877697E+03  0.26474877697E+03  0.00000000000E+00 0.  1.
         22   -1    0    0    0    0 -0.00000000000E+00 -0.00000000000E+00 -0.78396898045E+03  0.78396898045E+03  0.00000000000E+00 0.  1.
         24    2    1    2    0    0 -0.76198623976E+02 -0.43804385740E+02 -0.67487874826E+03  0.68529294908E+03  0.80249901519E+02 0.  0.
         25    2    1    2    0    0  0.96477696699E+02  0.37026808817E+02 -0.25303600726E+02  0.16421477313E+03  0.12508912412E+03 0.  0.
        -24    2    1    2    0    0 -0.20279072723E+02  0.67775769229E+01  0.18096214551E+03  0.19921003521E+03  0.80499463855E+02 0.  0.
        -13    1    3    3    0    0  0.34676215471E+01 -0.10071309186E+02 -0.31431266335E+03  0.31449309374E+03  0.00000000000E+00 0.  1.
         14    1    3    3    0    0 -0.79666245523E+02 -0.33733076554E+02 -0.36056608491E+03  0.37079985534E+03  0.00000000000E+00 0. -1.
         13    1    5    5    0    0 -0.10059043431E+02 -0.20187788374E+02  0.81097919230E+01  0.23968727108E+02  0.00000000000E+00 0. -1.
        -14    1    5    5    0    0 -0.10220029292E+02  0.26965365296E+02  0.17285235359E+03  0.17524130810E+03  0.00000000000E+00 0.  1.
          5    1    4    4  501    0 -0.26507349835E+02  0.22081090854E+02  0.84034062558E+01  0.35753374740E+02  0.41800000000E+01 0. -1.
         -5    1    4    4    0  501  0.12298504653E+03  0.14945717963E+02 -0.33707006981E+02  0.12846139839E+03  0.41800000000E+01 0. -1.
</event>
<event>
11    1  0.1002087E-008  0.2730094E+03  0.7561462E-02  0.1012309E+00
         22   -1    0    0    0    0  0.00000000000E+00  0.00000000000E+00  0.72756532939E+03  0.72756532939E+03  0.00000000000E+00 0. -1.
         22   -1    0    0    0    0 -0.00000000000E+00 -0.00000000000E+00 -0.65571350300E+03  0.65571350300E+03  0.00000000000E+00 0. -1.
         24    2    1    2    0    0  0.16498908458E+03 -0.15094460294E+03 -0.29461509421E+03  0.37868260959E+03  0.81220649341E+02 0.  0.
         25    2    1    2    0    0 -0.29626705852E+03  0.74474229962E+02 -0.21791000413E+03  0.39554039432E+03  0.12508738043E+03 0.  0.
        -24    2    1    2    0    0  0.13127797394E+03  0.76470372983E+02  0.58437692474E+03  0.60905582848E+03  0.79818466871E+02 0.  0.
        -11    1    3    3    0    0  0.36593627378E+00 -0.32054646187E+02 -0.22564456125E+02  0.39201899594E+02  0.00000000000E+00 0.  1.
         12    1    3    3    0    0  0.16462314830E+03 -0.11888995676E+03 -0.27205063809E+03  0.33948070999E+03  0.00000000000E+00 0. -1.
         11    1    5    5    0    0  0.72533308403E+02  0.15467955106E+02  0.39063269201E+03  0.39761066199E+03  0.00000000000E+00 0. -1.
        -12    1    5    5    0    0  0.58744665537E+02  0.61002417877E+02  0.19374423274E+03  0.21144516649E+03  0.00000000000E+00 0.  1.
          5    1    4    4  501    0 -0.11596363721E+03  0.35264660284E+02 -0.16568537418E+02  0.12240567900E+03  0.41800000000E+01 0.  1.
         -5    1    4    4    0  501 -0.18030342130E+03  0.39209569677E+02 -0.20134146672E+03  0.27313471531E+03  0.41800000000E+01 0.  1.
</event>
<event>
11    1  0.1002087E-008  0.1403337E+03  0.7561462E-02  0.1107186E+00
         22   -1    0    0    0    0  0.00000000000E+00  0.00000000000E+00  0.13731785231E+03  0.13731785231E+03  0.00000000000E+00 0.  1.
         22   -1    0    0    0    0 -0.00000000000E+00 -0.00000000000E+00 -0.12406335923E+04  0.12406335923E+04  0.00000000000E+00 0.  1.
        -24    2    1    2    0    0 -0.32020202000E+02 -0.47696541930E+02 -0.54672726199E+03  0.55583414864E+03  0.82101451568E+02 0.  0.
         25    2    1    2    0    0  0.47336847858E+02  0.57416600194E+02 -0.66584943674E+03  0.68157327023E+03  0.12509679109E+03 0.  0.
         24    2    1    2    0    0 -0.15316645858E+02 -0.97200582638E+01  0.10926095870E+03  0.14054402578E+03  0.86519286364E+02 0.  0.
        -13    1    5    5    0    0 -0.29147318295E+02  0.22599762165E+02  0.96222987824E+02  0.10304939980E+03  0.00000000000E+00 0.  1.
         14    1    5    5    0    0  0.13830672436E+02 -0.32319820429E+02  0.13037970877E+02  0.37494625977E+02  0.00000000000E+00 0. -1.
         11    1    3    3    0    0  0.18974318929E+02  0.92071449713E+01 -0.73049710531E+02  0.76033259209E+02  0.00000000000E+00 0. -1.
        -12    1    3    3    0    0 -0.50994520929E+02 -0.56903686902E+02 -0.47367755146E+03  0.47980088943E+03  0.00000000000E+00 0.  1.
          5    1    4    4  501    0  0.37034408650E+02 -0.35609112628E+02 -0.25844219137E+03  0.26353253121E+03  0.41800000000E+01 0. -1.
         -5    1    4    4    0  501  0.10302439208E+02  0.93025712822E+02 -0.40740724537E+03  0.41804073902E+03  0.41800000000E+01 0. -1.
</event>
<event>
11    1  0.1002087E-008  0.1303213E+03  0.7561462E-02  0.1118875E+00
         22   -1    0    0    0    0  0.00000000000E+00  0.00000000000E+00  0.24395383754E+04  0.24395383754E+04  0.00000000000E+00 0.  1.
         22   -1    0    0    0    0 -0.00000000000E+00 -0.00000000000E+00 -0.18715382063E+03  0.18715382063E+03  0.00000000000E+00 0.  1.
         24    2    1    2    0    0  0.84000051492E+01  0.36202330610E+02 -0.16526424218E+03  0.18811493077E+03  0.81815576800E+02 0.  0.
         25    2    1    2    0    0  0.66153394959E+01 -0.17089870446E+02  0.40843013187E+03  0.42754717065E+03  0.12508230939E+03 0.  0.
        -24    2    1    2    0    0 -0.15015344645E+02 -0.19112460164E+02  0.20092186650E+04  0.20110300946E+04  0.81802510052E+02 0.  0.
        -11    1    3    3    0    0 -0.32601181806E+02  0.28888650192E+02 -0.54429792955E+02  0.69713653801E+02  0.00000000000E+00 0.  1.
         12    1    3    3    0    0  0.41001186955E+02  0.73136804179E+01 -0.11083444923E+03  0.11840127697E+03  0.00000000000E+00 0. -1.
         11    1    5    5    0    0  0.22282834404E+02 -0.37576192379E+01  0.18633458496E+03  0.18769981876E+03  0.00000000000E+00 0. -1.
        -12    1    5    5    0    0 -0.37298179049E+02 -0.15354840926E+02  0.18228840801E+04  0.18233302758E+04  0.00000000000E+00 0.  1.
          5    1    4    4  501    0 -0.52808363924E+02  0.70919643395E+01  0.26545710790E+03  0.27078398732E+03  0.41800000000E+01 0.  1.
         -5    1    4    4    0  501  0.59423703420E+02 -0.24181834786E+02  0.14297302397E+03  0.15676318332E+03  0.41800000000E+01 0.  1.
</event>
<event>
11    1  0.1002087E-008  0.1419108E+03  0.7561462E-02  0.1105443E+00
         22   -1    0    0    0    0  0.00000000000E+00  0.00000000000E+00  0.52815658405E+03  0.52815658405E+03  0.00000000000E+00 0. -1.
         22   -1    0    0    0    0 -0.00000000000E+00 -0.00000000000E+00 -0.23149701578E+03  0.23149701578E+03  0.00000000000E+00 0. -1.
        -24    2    1    2    0    0 -0.58382312469E+01 -0.68464040479E+02 -0.16838868581E+03  0.19936455440E+03  0.81670473594E+02 0.  0.
         25    2    1    2    0    0 -0.22694750103E+02  0.56210216915E+02  0.69340179901E+02  0.15533664760E+03  0.12508706316E+03 0.  0.
         24    2    1    2    0    0  0.28532981350E+02  0.12253823565E+02  0.39570807418E+03  0.40495239783E+03  0.80232645009E+02 0.  0.
        -13    1    5    5    0    0 -0.12103828469E+02  0.31657518722E+02  0.94442500961E+02  0.10033985820E+03  0.00000000000E+00 0.  1.
         14    1    5    5    0    0  0.40636809820E+02 -0.19403695158E+02  0.30126557321E+03  0.30461253963E+03  0.00000000000E+00 0. -1.
         13    1    3    3    0    0 -0.43456415225E+01 -0.63219550869E+02 -0.17765198464E+03  0.18861554512E+03  0.00000000000E+00 0. -1.
        -14    1    3    3    0    0 -0.14925897244E+01 -0.52444896104E+01  0.92632988278E+01  0.10749009281E+02  0.00000000000E+00 0.  1.
          5    1    4    4  501    0 -0.46575616614E+02  0.34118448425E+02 -0.19143277600E+02  0.60969615901E+02  0.41800000000E+01 0.  1.
         -5    1    4    4    0  501  0.23880866510E+02  0.22091768490E+02  0.88483457501E+02  0.94367031699E+02  0.41800000000E+01 0.  1.
</event>
<event>
11    1  0.1002087E-008  0.1382046E+03  0.7561462E-02  0.1109580E+00
         22   -1    0    0    0    0  0.00000000000E+00  0.00000000000E+00  0.32003144874E+04  0.32003144874E+04  0.00000000000E+00 0.  1.
         22   -1    0    0    0    0 -0.00000000000E+00 -0.00000000000E+00 -0.53678319073E+02  0.53678319073E+02  0.00000000000E+00 0.  1.
         24    2    1    2    0    0 -0.24077414110E+02  0.30809200508E+02 -0.11696006746E+01  0.91407139956E+02  0.82613367944E+02 0.  0.
         25    2    1    2    0    0 -0.19729551499E+01  0.27676371316E+02  0.63847884402E+03  0.65120751471E+03  0.12508444697E+03 0.  0.
        -24    2    1    2    0    0  0.26050369259E+02 -0.58485571824E+02  0.25093269250E+04  0.25113781518E+04  0.78736402535E+02 0.  0.
        -11    1    3    3    0    0 -0.18135468630E+02  0.61191171950E+01 -0.40382799493E+02  0.44689028996E+02  0.00000000000E+00 0.  1.
         12    1    3    3    0    0 -0.59419454796E+01  0.24690083313E+02  0.39213198819E+02  0.46718110960E+02  0.00000000000E+00 0. -1.
         11    1    5    5    0    0  0.40924147762E+02 -0.54256081105E+01  0.70314708151E+03  0.70435789293E+03  0.00000000000E+00 0. -1.
        -12    1    5    5    0    0 -0.14873778503E+02 -0.53059963713E+02  0.18061798435E+04  0.18070202589E+04  0.00000000000E+00 0.  1.
          5    1    4    4  501    0  0.54894420599E+02  0.24337380491E+01  0.17285783863E+03  0.18142939472E+03  0.41800000000E+01 0.  1.
         -5    1    4    4    0  501 -0.56867375749E+02  0.25242633267E+02  0.46562100540E+03  0.46977811999E+03  0.41800000000E+01 0.  1.
</event>
<event>
11    1  0.1002087E-008  0.1313022E+03  0.7561462E-02  0.1117679E+00
         22   -1    0    0    0    0  0.00000000000E+00  0.00000000000E+00  0.71481288720E+03  0.71481288720E+03  0.00000000000E+00 0.  1.
         22   -1    0    0    0    0 -0.00000000000E+00 -0.00000000000E+00 -0.46070262570E+03  0.46070262570E+03  0.00000000000E+00 0. -1.
         24    2    1    2    0    0 -0.13691835561E+02  0.93970876212E+01 -0.42087072465E+03  0.42882659403E+03  0.80525208873E+02 0.  0.
         25    2    1    2    0    0  0.11097528829E+02 -0.48310983697E+02  0.10877550889E+03  0.17302250401E+03  0.12509024449E+03 0.  0.
        -24    2    1    2    0    0  0.25943067317E+01  0.38913896076E+02  0.56620547726E+03  0.57366641485E+03  0.83567286138E+02 0.  0.
        -13    1    3    3    0    0 -0.44659200535E+01  0.18283390867E+01  0.23987080024E+01  0.53889763240E+01  0.00000000000E+00 0.  1.
         14    1    3    3    0    0 -0.92259155071E+01  0.75687485345E+01 -0.42326943265E+03  0.42343761771E+03  0.00000000000E+00 0. -1.
         11    1    5    5    0    0 -0.12083694732E+02  0.62659232489E+02  0.36550512972E+03  0.37103395390E+03  0.00000000000E+00 0. -1.
        -12    1    5    5    0    0  0.14678001464E+02 -0.23745336413E+02  0.20070034754E+03  0.20263246095E+03  0.00000000000E+00 0.  1.
          5    1    4    4  501    0  0.33477890974E+02 -0.67687531599E+02  0.18407496572E+02  0.77837519539E+02  0.41800000000E+01 0.  1.
         -5    1    4    4    0  501 -0.22380362145E+02  0.19376547901E+02  0.90368012318E+02  0.95184984470E+02  0.41800000000E+01 0.  1.
</event>
<event>
11    1  0.1002087E-008  0.1494772E+03  0.7561462E-02  0.1097414E+00
         22   -1    0    0    0    0  0.00000000000E+00  0.00000000000E+00  0.16238682911E+03  0.16238682911E+03  0.00000000000E+00 0. -1.
         22   -1    0    0    0    0 -0.00000000000E+00 -0.00000000000E+00 -0.84259489298E+03  0.84259489298E+03  0.00000000000E+00 0.  1.
        -24    2    1    2    0    0 -0.88472489897E+02  0.13696213462E+02 -0.57280567253E+03  0.58575360013E+03  0.83582138336E+02 0.  0.
         25    2    1    2    0    0  0.59728309830E+02  0.70023880279E+00 -0.23055031007E+03  0.26900696738E+03  0.12507334528E+03 0.  0.
         24    2    1    2    0    0  0.28744180067E+02 -0.14396452265E+02  0.12314791873E+03  0.15022115457E+03  0.79796614380E+02 0.  0.
        -11    1    5    5    0    0  0.28009181134E+02 -0.45498949231E+02  0.63834907578E+02  0.83244002994E+02  0.00000000000E+00 0.  1.
         12    1    5    5    0    0  0.73499893227E+00  0.31102496966E+02  0.59313011152E+02  0.66977151573E+02  0.00000000000E+00 0. -1.
         13    1    3    3    0    0 -0.19917969430E+00 -0.22342521351E+02 -0.18747899890E+03  0.18880572809E+03  0.00000000000E+00 0. -1.
        -14    1    3    3    0    0 -0.88273310202E+02  0.36038734813E+02 -0.38532667363E+03  0.39694787204E+03  0.00000000000E+00 0.  1.
          5    1    4    4  501    0  0.94046424095E+01  0.23026195976E+02 -0.20774472824E+03  0.20927015437E+03  0.41800000000E+01 0. -1.
         -5    1    4    4    0  501  0.50323667420E+02 -0.22325957173E+02 -0.22805581831E+02  0.59736813013E+02  0.41800000000E+01 0. -1.
</event>
<event>
11    1  0.1002087E-008  0.1725658E+03  0.7561462E-02  0.1075820E+00
         22   -1    0    0    0    0  0.00000000000E+00  0.00000000000E+00  0.37759088734E+03  0.37759088734E+03  0.00000000000E+00 0. -1.
         22   -1    0    0    0    0 -0.00000000000E+00 -0.00000000000E+00 -0.19619521493E+03  0.19619521493E+03  0.00000000000E+00 0. -1.
        -24    2    1    2    0    0  0.13869041488E+02  0.18013645787E+02 -0.10938153745E+03  0.13622429467E+03  0.77948033834E+02 0.  0.
         25    2    1    2    0    0  0.65181534646E+02 -0.10469422203E+03  0.10935076558E+03  0.20691429105E+03  0.12508565594E+03 0.  0.
         24    2    1    2    0    0 -0.79050576134E+02  0.86680576242E+02  0.18142644428E+03  0.23064751654E+03  0.80747794505E+02 0.  0.
        -13    1    5    5    0    0  0.16226697342E+01  0.23587286751E+01  0.67497267425E+02  0.67557958582E+02  0.00000000000E+00 0.  1.
         14    1    5    5    0    0 -0.80673245868E+02  0.84321847567E+02  0.11392917686E+03  0.16308955796E+03  0.00000000000E+00 0. -1.
         11    1    3    3    0    0  0.22857639610E+02  0.35581695019E+02 -0.24071908911E+02  0.48661951334E+02  0.00000000000E+00 0. -1.
        -12    1    3    3    0    0 -0.89885981226E+01 -0.17568049232E+02 -0.85309628538E+02  0.87562343341E+02  0.00000000000E+00 0.  1.
          5    1    4    4  501    0  0.78578068877E+02 -0.10848861231E+03  0.12659596142E+03  0.18435916510E+03  0.41800000000E+01 0.  1.
         -5    1    4    4    0  501 -0.13396534231E+02  0.37943902803E+01 -0.17245195839E+02  0.22555125947E+02  0.41800000000E+01 0.  1.
</event>
<event>
11    1  0.1002087E-008  0.1835668E+03  0.7561462E-02  0.1066794E+00
         22   -1    0    0    0    0  0.00000000000E+00  0.00000000000E+00  0.11273125071E+04  0.11273125071E+04  0.00000000000E+00 0. -1.
         22   -1    0    0    0    0 -0.00000000000E+00 -0.00000000000E+00 -0.78007509089E+03  0.78007509089E+03  0.00000000000E+00 0. -1.
        -24    2    1    2    0    0  0.95596424061E+01  0.28933217956E+02 -0.70895840660E+03  0.71435452235E+03  0.82169601732E+02 0.  0.
         25    2    1    2    0    0 -0.12213331826E+03 -0.98202952984E+02  0.99808526520E+02  0.22398629423E+03  0.12509096944E+03 0.  0.
         24    2    1    2    0    0  0.11257367585E+03  0.69269735028E+02  0.95638729629E+03  0.96904678140E+03  0.83089562192E+02 0.  0.
        -13    1    5    5    0    0  0.64887360715E+02  0.78731882919E+02  0.51642217602E+03  0.52640378310E+03  0.00000000000E+00 0.  1.
         14    1    5    5    0    0  0.47686315134E+02 -0.94621478910E+01  0.43996512027E+03  0.44264299830E+03  0.00000000000E+00 0. -1.
         13    1    3    3    0    0  0.32675106320E+02  0.47382341630E+02 -0.43068640690E+03  0.43451528162E+03  0.00000000000E+00 0. -1.
        -14    1    3    3    0    0 -0.23115463913E+02 -0.18449123674E+02 -0.27827199970E+03  0.27983924073E+03  0.00000000000E+00 0.  1.
          5    1    4    4  501    0 -0.47487006177E+02 -0.30543487371E+02  0.10890619676E+03  0.12274344166E+03  0.41800000000E+01 0.  1.
         -5    1    4    4    0  501 -0.74646312078E+02 -0.67659465613E+02 -0.90976702434E+01  0.10124285258E+03  0.41800000000E+01 0.  1.
</event>
<event>
11    1  0.1002087E-008  0.1372302E+03  0.7561462E-02  0.1110691E+00
         22   -1    0    0    0    0  0.00000000000E+00  0.00000000000E+00  0.81617878783E+03  0.81617878783E+03  0.00000000000E+00 0. -1.
         22   -1    0    0    0    0 -0.00000000000E+00 -0.00000000000E+00 -0.75862736416E+03  0.75862736416E+03  0.00000000000E+00 0.  1.
         24    2    1    2    0    0  0.76021807377E+01 -0.11720370719E+01 -0.45688375287E+03  0.46402650121E+03  0.80738239763E+02 0.  0.
         25    2    1    2    0    0 -0.26431177480E+02  0.54329173836E+02 -0.27849219329E+03  0.31121616676E+03  0.12508930593E+03 0.  0.
        -24    2    1    2    0    0  0.18828996742E+02 -0.53157136764E+02  0.79292736983E+03  0.79956348402E+03  0.85951956619E+02 0.  0.
        -13    1    3    3    0    0  0.38750851935E+02  0.19081493035E+02 -0.27679926542E+03  0.28014918390E+03  0.00000000000E+00 0.  1.
         14    1    3    3    0    0 -0.31148671198E+02 -0.20253530106E+02 -0.18008448745E+03  0.18387731730E+03  0.00000000000E+00 0. -1.
         11    1    5    5    0    0  0.37173830816E+02 -0.40805235301E+02  0.74188785378E+03  0.74393853813E+03  0.00000000000E+00 0. -1.
        -12    1    5    5    0    0 -0.18344834074E+02 -0.12351901463E+02  0.51039516047E+02  0.55624945890E+02  0.00000000000E+00 0.  1.
          5    1    4    4  501    0  0.16753151229E+02  0.78356869675E+02 -0.11396921454E+03  0.13938049133E+03  0.41800000000E+01 0.  1.
         -5    1    4    4    0  501 -0.43184328709E+02 -0.24027695839E+02 -0.16452297875E+03  0.17183567543E+03  0.41800000000E+01 0.  1.
</event>
<event>
11    1  0.1002087E-008  0.1488053E+03  0.7561462E-02  0.1098106E+00
         22   -1    0    0    0    0  0.00000000000E+00  0.00000000000E+00  0.64519517444E+03  0.64519517444E+03  0.00000000000E+00 0. -1.
         22   -1    0    0    0    0 -0.00000000000E+00 -0.00000000000E+00 -0.78962170272E+03  0.78962170272E+03  0.00000000000E+00 0.  1.
         24    2    1    2    0    0 -0.21869103081E+02 -0.76898092883E+02 -0.74475651199E+03  0.75337696661E+03  0.80765198556E+02 0.  0.
         25    2    1    2    0    0  0.73372143245E+02  0.96040733425E+02  0.18106649872E+03  0.25107971789E+03  0.12509457980E+03 0.  0.
        -24    2    1    2    0    0 -0.51503040165E+02 -0.19142640542E+02  0.41926348500E+03  0.43036019266E+03  0.80056366038E+02 0.  0.
        -13    1    3    3    0    0 -0.35843765989E+02 -0.77962799599E+02 -0.43946044528E+03  0.44775937360E+03  0.00000000000E+00 0.  1.
         14    1    3    3    0    0  0.13974662909E+02  0.10647067163E+01 -0.30529606672E+03  0.30561759301E+03  0.00000000000E+00 0. -1.
         13    1    5    5    0    0 -0.64838626181E+02 -0.22348976703E+02  0.40424434036E+03  0.41002074450E+03  0.00000000000E+00 0. -1.
        -14    1    5    5    0    0  0.13335586017E+02  0.32063361605E+01  0.15019144632E+02  0.20339448160E+02  0.00000000000E+00 0.  1.
          5    1    4    4  501    0  0.48918565239E+02  0.10741234977E+03  0.18881705796E+03  0.22271010908E+03  0.41800000000E+01 0. -1.
         -5    1    4    4    0  501  0.24453578007E+02 -0.11371616342E+02 -0.77505592408E+01  0.28369608811E+02  0.41800000000E+01 0. -1.
</event>
<event>
11    1  0.1002087E-008  0.1341770E+03  0.7561462E-02  0.1114241E+00
         22   -1    0    0    0    0  0.00000000000E+00  0.00000000000E+00  0.73873508970E+03  0.73873508970E+03  0.00000000000E+00 0.  1.
         22   -1    0    0    0    0 -0.00000000000E+00 -0.00000000000E+00 -0.58130834001E+03  0.58130834001E+03  0.00000000000E+00 0.  1.
         24    2    1    2    0    0  0.15762234768E+02  0.34802763046E+02 -0.32784121682E+03  0.34006791044E+03  0.81894077356E+02 0.  0.
         25    2    1    2    0    0  0.32630639033E+02 -0.40081154654E+02 -0.22558672098E+03  0.26307472281E+03  0.12509070122E+03 0.  0.
        -24    2    1    2    0    0 -0.48392873800E+02  0.52783916078E+01  0.71085468750E+03  0.71690079646E+03  0.79136802842E+02 0.  0.
        -11    1    3    3    0    0 -0.19577836569E+02 -0.17964193736E+02 -0.84734272318E+02  0.88802594819E+02  0.00000000000E+00 0.  1.
         12    1    3    3    0    0  0.35340071337E+02  0.52766956782E+02 -0.24310694450E+03  0.25126531563E+03  0.00000000000E+00 0. -1.
         13    1    5    5    0    0 -0.38441848622E+01 -0.38030639237E+00 -0.70391984202E+00  0.39265625362E+01  0.00000000000E+00 0. -1.
        -14    1    5    5    0    0 -0.44548688938E+02  0.56586980002E+01  0.71155860734E+03  0.71297423392E+03  0.00000000000E+00 0.  1.
          5    1    4    4  501    0  0.70412969401E+01 -0.82808780700E+02 -0.16271338739E+03  0.18275664929E+03  0.41800000000E+01 0. -1.
         -5    1    4    4    0  501  0.25589342092E+02  0.42727626046E+02 -0.62873333598E+02  0.80318073520E+02  0.41800000000E+01 0. -1.
</event>
<event>
11    1  0.1002087E-008  0.1276966E+03  0.7561462E-02  0.1122132E+00
         22   -1    0    0    0    0  0.00000000000E+00  0.00000000000E+00  0.22033468727E+04  0.22033468727E+04  0.00000000000E+00 0. -1.
         22   -1    0    0    0    0 -0.00000000000E+00 -0.00000000000E+00 -0.10113134774E+03  0.10113134774E+03  0.00000000000E+00 0. -1.
        -24    2    1    2    0    0 -0.19893450340E+02  0.48242164815E+01 -0.76412811676E+02  0.11359242579E+03  0.81518703237E+02 0.  0.
         25    2    1    2    0    0  0.31176594032E+02 -0.23946405064E+02  0.90293444952E+03  0.91240552586E+03  0.12509121935E+03 0.  0.
         24    2    1    2    0    0 -0.11283143691E+02  0.19122188583E+02  0.12756938871E+04  0.12784802688E+04  0.81387570668E+02 0.  0.
        -13    1    5    5    0    0 -0.21228282650E+02  0.44036999225E+02  0.51541060988E+03  0.51772385889E+03  0.00000000000E+00 0.  1.
         14    1    5    5    0    0  0.99451389585E+01 -0.24914810642E+02  0.76028327725E+03  0.76075640993E+03  0.00000000000E+00 0. -1.
         13    1    3    3    0    0 -0.29988206948E+02 -0.20263330925E+02 -0.78528478685E+02  0.86467433758E+02  0.00000000000E+00 0. -1.
        -14    1    3    3    0    0  0.10094756608E+02  0.25087547406E+02  0.21156670089E+01  0.27124992032E+02  0.00000000000E+00 0.  1.
          5    1    4    4  501    0 -0.44144308152E+02 -0.22997616564E+02  0.49836628949E+03  0.50086329593E+03  0.41800000000E+01 0.  1.
         -5    1    4    4    0  501  0.75320902184E+02 -0.94878850038E+00  0.40456816003E+03  0.41154222993E+03  0.41800000000E+01 0.  1.
</event>
<event>
11    1  0.1002087E-008  0.1650467E+03  0.7561462E-02  0.1082424E+00
         22   -1    0    0    0    0  0.00000000000E+00  0.00000000000E+00  0.32963128351E+04  0.32963128351E+04  0.00000000000E+00 0.  1.
         22   -1    0    0    0    0 -0.00000000000E+00 -0.00000000000E+00 -0.51701447492E+03  0.51701447492E+03  0.00000000000E+00 0. -1.
         24    2    1    2    0    0 -0.30238260181E+02 -0.10330757703E+03 -0.49282502139E+03  0.51004953025E+03  0.75413617787E+02 0.  0.
         25    2    1    2    0    0  0.32720196701E+02  0.10440215298E+03  0.44536435898E+03  0.47535937541E+03  0.12508678076E+03 0.  0.
        -24    2    1    2    0    0 -0.24819365198E+01 -0.10945759429E+01  0.28267590226E+04  0.28279184044E+04  0.80923246605E+02 0.  0.
        -13    1    3    3    0    0 -0.39559542687E+02 -0.14799985194E+02 -0.14585778595E+03  0.15185022457E+03  0.00000000000E+00 0.  1.
         14    1    3    3    0    0  0.93212825060E+01 -0.88507591840E+02 -0.34696723544E+03  0.35819930568E+03  0.00000000000E+00 0. -1.
         13    1    5    5    0    0 -0.72062408726E+01  0.36683195165E+02  0.88941809072E+03  0.89020341878E+03  0.00000000000E+00 0. -1.
        -14    1    5    5    0    0  0.47243043528E+01 -0.37777771108E+02  0.19373409319E+04  0.19377149856E+04  0.00000000000E+00 0.  1.
          5    1    4    4  501    0  0.74073276239E+02  0.64886822697E+02  0.19479907478E+03  0.21831468560E+03  0.41800000000E+01 0. -1.
         -5    1    4    4    0  501 -0.41353079538E+02  0.39515330281E+02  0.25056528420E+03  0.25704468981E+03  0.41800000000E+01 0. -1.
</event>
<event>
11    1  0.1002087E-008  0.1724326E+03  0.7561462E-02  0.1075934E+00
         22   -1    0    0    0    0  0.00000000000E+00  0.00000000000E+00  0.55787231812E+02  0.55787231812E+02  0.00000000000E+00 0.  1.
         22   -1    0    0    0    0 -0.00000000000E+00 -0.00000000000E+00 -0.25741752411E+04  0.25741752411E+04  0.00000000000E+00 0.  1.
        -24    2    1    2    0    0  0.95274097108E+02  0.11970469848E+02 -0.19266268271E+04  0.19306816806E+04  0.80127242532E+02 0.  0.
         25    2    1    2    0    0 -0.10752408108E+03  0.10451443957E+03 -0.48095301267E+03  0.51908446727E+03  0.12509271634E+03 0.  0.
         24    2    1    2    0    0  0.12249983970E+02 -0.11648490942E+03 -0.11080816952E+03  0.18019632508E+03  0.80457870407E+02 0.  0.
        -13    1    5    5    0    0  0.18074584851E+02 -0.11599920292E+03 -0.65346013339E+02  0.13435999091E+03  0.00000000000E+00 0.  1.
         14    1    5    5    0    0 -0.58246008813E+01 -0.48570649805E+00 -0.45462156180E+02  0.45836334177E+02  0.00000000000E+00 0. -1.
         13    1    3    3    0    0  0.27278879139E+02 -0.27488940119E+02 -0.99152402407E+03  0.99228003577E+03  0.00000000000E+00 0. -1.
        -14    1    3    3    0    0  0.67995217970E+02  0.39459409967E+02 -0.93510280303E+03  0.93840164478E+03  0.00000000000E+00 0.  1.
          5    1    4    4  501    0 -0.74873121383E+02  0.13177787623E+03 -0.39475074793E+03  0.42286761328E+03  0.41800000000E+01 0. -1.
         -5    1    4    4    0  501 -0.32650959695E+02 -0.27263436652E+02 -0.86202264735E+02  0.96216853994E+02  0.41800000000E+01 0. -1.
</event>
<event>
11    1  0.1002087E-008  0.1704301E+03  0.7561462E-02  0.1077658E+00
         22   -1    0    0    0    0  0.00000000000E+00  0.00000000000E+00  0.17757309879E+04  0.17757309879E+04  0.00000000000E+00 0.  1.
         22   -1    0    0    0    0 -0.00000000000E+00 -0.00000000000E+00 -0.22491010543E+03  0.22491010543E+03  0.00000000000E+00 0. -1.
         24    2    1    2    0    0  0.10405044881E+03  0.46503965088E+02 -0.15763479362E+03  0.21093447644E+03  0.81581312372E+02 0.  0.
         25    2    1    2    0    0 -0.12017187936E+03 -0.48420568583E+02  0.16559356540E+03  0.24465204593E+03  0.12509021794E+03 0.  0.
        -24    2    1    2    0    0  0.16121430548E+02  0.19166034950E+01  0.15428621107E+04  0.15450545710E+04  0.80663255401E+02 0.  0.
        -13    1    3    3    0    0 -0.93182074104E+01 -0.66004606554E+01 -0.30235868643E+02  0.32320315945E+02  0.00000000000E+00 0.  1.
         14    1    3    3    0    0  0.11336865622E+03  0.53104425743E+02 -0.12739892497E+03  0.17861416050E+03  0.00000000000E+00 0. -1.
         13    1    5    5    0    0  0.11336456096E+02 -0.29315011623E+02  0.27362747863E+03  0.27542672747E+03  0.00000000000E+00 0. -1.
        -14    1    5    5    0    0  0.47849744510E+01  0.31231615118E+02  0.12692346321E+04  0.12696278435E+04  0.00000000000E+00 0.  1.
          5    1    4    4  501    0 -0.91789813102E+02 -0.84082948082E+02  0.81306059382E+02  0.14873956985E+03  0.41800000000E+01 0.  1.
         -5    1    4    4    0  501 -0.28382066255E+02  0.35662379499E+02  0.84287506015E+02  0.95912476074E+02  0.41800000000E+01 0.  1.
</event>
<event>
11    1  0.1002087E-008  0.1398213E+03  0.7561462E-02  0.1107758E+00
         22   -1    0    0    0    0  0.00000000000E+00  0.00000000000E+00  0.20658965319E+03  0.20658965319E+03  0.00000000000E+00 0. -1.
         22   -1    0    0    0    0 -0.00000000000E+00 -0.00000000000E+00 -0.53172827800E+03  0.53172827800E+03  0.00000000000E+00 0.  1.
        -24    2    1    2    0    0 -0.47092418282E+02 -0.34497988269E+02 -0.29648171459E+03  0.31241802091E+03  0.79346112990E+02 0.  0.
         25    2    1    2    0    0 -0.17803296054E+02  0.23082097205E+02 -0.19288212455E+03  0.23173506208E+03  0.12509150437E+03 0.  0.
         24    2    1    2    0    0  0.64895714336E+02  0.11415891064E+02  0.16422521434E+03  0.19416484819E+03  0.79926784873E+02 0.  0.
        -11    1    5    5    0    0  0.16509424932E+02  0.26501754123E+00 -0.54386438975E+01  0.17384193778E+02  0.00000000000E+00 0.  1.
         12    1    5    5    0    0  0.48386289404E+02  0.11150873523E+02  0.16966385824E+03  0.17678065442E+03  0.00000000000E+00 0. -1.
         13    1    3    3    0    0 -0.38007364330E+02 -0.25414185665E+02 -0.59255622460E+02  0.74844300848E+02  0.00000000000E+00 0. -1.
        -14    1    3    3    0    0 -0.90850539522E+01 -0.90838026047E+01 -0.23722609213E+03  0.23757372006E+03  0.00000000000E+00 0.  1.
          5    1    4    4  501    0 -0.82588892318E+01  0.21039914180E+02  0.12441454512E+02  0.26137127433E+02  0.41800000000E+01 0.  1.
         -5    1    4    4    0  501 -0.95444068218E+01  0.20421830247E+01 -0.20532357906E+03  0.20559793465E+03  0.41800000000E+01 0.  1.
</event>
<event>
11    1  0.1002087E-008  0.2292628E+03  0.7561462E-02  0.1035565E+00
         22   -1    0    0    0    0  0.00000000000E+00  0.00000000000E+00  0.16175353470E+04  0.16175353470E+04  0.00000000000E+00 0. -1.
         22   -1    0    0    0    0 -0.00000000000E+00 -0.00000000000E+00 -0.39482054225E+03  0.39482054225E+03  0.00000000000E+00 0.  1.
         24    2    1    2    0    0  0.16265222452E+03 -0.67790395468E+02 -0.30533597666E+03  0.36290070722E+03  0.86113766592E+02 0.  0.
         25    2    1    2    0    0 -0.16147841429E+03 -0.13298756523E+03  0.23531976380E+03  0.33879723855E+03  0.12508879577E+03 0.  0.
        -24    2    1    2    0    0 -0.11738102341E+01  0.20077796070E+03  0.12927310176E+04  0.13106579435E+04  0.79734519500E+02 0.  0.
        -11    1    3    3    0    0  0.14348338440E+03 -0.38918927744E+02 -0.28809657482E+03  0.32419407916E+03  0.00000000000E+00 0.  1.
         12    1    3    3    0    0  0.19168840119E+02 -0.28871467724E+02 -0.17239401836E+02  0.38706628059E+02  0.00000000000E+00 0. -1.
         13    1    5    5    0    0  0.70227633797E+01  0.93632956452E+02  0.37156388305E+03  0.38324426796E+03  0.00000000000E+00 0. -1.
        -14    1    5    5    0    0 -0.81965736138E+01  0.10714500424E+03  0.92116713453E+03  0.92741367549E+03  0.00000000000E+00 0.  1.
          5    1    4    4  501    0 -0.29276229407E+02 -0.11164365686E+02  0.12250347502E+03  0.12651606405E+03  0.41800000000E+01 0. -1.
         -5    1    4    4    0  501 -0.13220218488E+03 -0.12182319954E+03  0.11281628878E+03  0.21228117450E+03  0.41800000000E+01 0. -1.
</event>
<event>
11    1  0.1002087E-008  0.1857270E+03  0.7561462E-02  0.1065102E+00
         22   -1    0    0    0    0  0.00000000000E+00  0.00000000000E+00  0.33704411205E+03  0.33704411205E+03  0.00000000000E+00 0.  1.
         22   -1    0    0    0    0 -0.00000000000E+00 -0.00000000000E+00 -0.29242235414E+03  0.29242235414E+03  0.00000000000E+00 0.  1.
        -24    2    1    2    0    0  0.13177607268E+03 -0.47030867176E+02 -0.19838328564E+03  0.25528385912E+03  0.78975217050E+02 0.  0.
         25    2    1    2    0    0 -0.10658760798E+03  0.67987326925E+02  0.93038829468E+02  0.20071419616E+03  0.12508704950E+03 0.  0.
         24    2    1    2    0    0 -0.25188464703E+02 -0.20956459748E+02  0.14996621409E+03  0.17346841091E+03  0.80794753897E+02 0.  0.
        -11    1    5    5    0    0 -0.35560417158E+02 -0.47094516520E+02  0.98700483266E+02  0.11499661800E+03  0.00000000000E+00 0.  1.
         12    1    5    5    0    0  0.10371952455E+02  0.26138056772E+02  0.51265730821E+02  0.58471792910E+02  0.00000000000E+00 0. -1.
         13    1    3    3    0    0  0.12580262099E+03 -0.34374926371E+02 -0.12523403728E+03  0.18080790664E+03  0.00000000000E+00 0. -1.
        -14    1    3    3    0    0  0.59734516982E+01 -0.12655940805E+02 -0.73149248357E+02  0.74475952482E+02  0.00000000000E+00 0.  1.
          5    1    4    4  501    0 -0.11719072763E+03  0.70928320053E+02  0.34934730478E+02  0.14142984488E+03  0.41800000000E+01 0.  1.
         -5    1    4    4    0  501  0.10603119652E+02 -0.29409931279E+01  0.58104098989E+02  0.59284351277E+02  0.41800000000E+01 0.  1.
</event>
<event>
11    1  0.1002087E-008  0.1650535E+03  0.7561462E-02  0.1082418E+00
         22   -1    0    0    0    0  0.00000000000E+00  0.00000000000E+00  0.32754290695E+03  0.32754290695E+03  0.00000000000E+00 0. -1.
         22   -1    0    0    0    0 -0.00000000000E+00 -0.00000000000E+00 -0.75846047698E+03  0.75846047698E+03  0.00000000000E+00 0.  1.
         24    2    1    2    0    0 -0.82427469965E+02  0.94814558568E+02 -0.62135730969E+03  0.63928421476E+03  0.82554906682E+02 0.  0.
         25    2    1    2    0    0  0.35374140011E+02 -0.12633610618E+02 -0.77175019980E+02  0.15170392649E+03  0.12508860742E+03 0.  0.
        -24    2    1    2    0    0  0.47053329954E+02 -0.82180947950E+02  0.26761475964E+03  0.29501524268E+03  0.80303236378E+02 0.  0.
        -11    1    3    3    0    0 -0.74484176026E+02  0.92863411338E+02 -0.61958154502E+03  0.63091425453E+03  0.00000000000E+00 0.  1.
         12    1    3    3    0    0 -0.79432939389E+01  0.19511472308E+01 -0.17757646734E+01  0.83699602324E+01  0.00000000000E+00 0. -1.
         11    1    5    5    0    0  0.66118902306E+02 -0.74718431877E+02  0.18828883949E+03  0.21308974725E+03  0.00000000000E+00 0. -1.
        -12    1    5    5    0    0 -0.19065572353E+02 -0.74625160735E+01  0.79325920149E+02  0.81925495438E+02  0.00000000000E+00 0.  1.
          5    1    4    4  501    0  0.37792228949E+02 -0.27574124186E+02 -0.10763420875E+03  0.11743585563E+03  0.41800000000E+01 0. -1.
         -5    1    4    4    0  501 -0.24180889376E+01  0.14940513568E+02  0.30459188774E+02  0.34268070861E+02  0.41800000000E+01 0. -1.
</event>
<event>
11    1  0.1002087E-008  0.1469095E+03  0.7561462E-02  0.1100079E+00
         22   -1    0    0    0    0  0.00000000000E+00  0.00000000000E+00  0.40491644523E+02  0.40491644523E+02  0.00000000000E+00 0.  1.
         22   -1    0    0    0    0 -0.00000000000E+00 -0.00000000000E+00 -0.39406857002E+04  0.39406857002E+04  0.00000000000E+00 0.  1.
         24    2    1    2    0    0 -0.54764310765E+02  0.54387567554E+02 -0.33210418538E+04  0.33229143825E+04  0.80522429183E+02 0.  0.
         25    2    1    2    0    0  0.10041310034E+02 -0.94182545526E+02 -0.49641653703E+03  0.52062296020E+03  0.12509080169E+03 0.  0.
        -24    2    1    2    0    0  0.44723000731E+02  0.39794977972E+02 -0.82735664895E+02  0.13764000205E+03  0.92281053595E+02 0.  0.
        -11    1    3    3    0    0 -0.85024173551E+01  0.60778774715E+02 -0.14646467866E+04  0.14659319766E+04  0.00000000000E+00 0.  1.
         12    1    3    3    0    0 -0.46261893410E+02 -0.63912071618E+01 -0.18563950672E+04  0.18569824059E+04  0.00000000000E+00 0. -1.
         11    1    5    5    0    0 -0.15742455871E+02  0.36961585916E+02 -0.61563665182E+02  0.73512370530E+02  0.00000000000E+00 0. -1.
        -12    1    5    5    0    0  0.60465456602E+02  0.28333920560E+01 -0.21171999713E+02  0.64127631521E+02  0.00000000000E+00 0.  1.
          5    1    4    4  501    0  0.48105560494E+02  0.32235319381E+01 -0.10790041898E+03  0.11825611580E+03  0.41800000000E+01 0. -1.
         -5    1    4    4    0  501 -0.38064250461E+02 -0.97406077464E+02 -0.38851611805E+03  0.40236684441E+03  0.41800000000E+01 0. -1.
</event>
<event>
11    1  0.1002087E-008  0.1298036E+03  0.7561462E-02  0.1119511E+00
         22   -1    0    0    0    0  0.00000000000E+00  0.00000000000E+00  0.24584130113E+03  0.24584130113E+03  0.00000000000E+00 0.  1.
         22   -1    0    0    0    0 -0.00000000000E+00 -0.00000000000E+00 -0.21276311824E+04  0.21276311824E+04  0.00000000000E+00 0.  1.
         24    2    1    2    0    0  0.26669844840E+02  0.14384248580E+02 -0.19930140794E+04  0.19946770066E+04  0.75584737903E+02 0.  0.
         25    2    1    2    0    0 -0.58169626996E+02 -0.37333768104E+01 -0.86722523056E+02  0.16299065083E+03  0.12509001816E+03 0.  0.
        -24    2    1    2    0    0  0.31499782155E+02 -0.10650871770E+02  0.19794672121E+03  0.21580482612E+03  0.79266267698E+02 0.  0.
        -13    1    3    3    0    0  0.17506284865E+02  0.45576227407E+02 -0.12441729193E+04  0.12451304814E+04  0.00000000000E+00 0.  1.
         14    1    3    3    0    0  0.91635599753E+01 -0.31191978827E+02 -0.74884116011E+03  0.74954652520E+03  0.00000000000E+00 0. -1.
         11    1    5    5    0    0 -0.18763438890E+02  0.15100326510E+02  0.98879047129E+02  0.10177009610E+03  0.00000000000E+00 0. -1.
        -12    1    5    5    0    0  0.50263221046E+02 -0.25751198280E+02  0.99067674076E+02  0.11403473002E+03  0.00000000000E+00 0.  1.
          5    1    4    4  501    0 -0.23326515370E+02 -0.17920795699E+02 -0.11304592085E+03  0.11688513105E+03  0.41800000000E+01 0. -1.
         -5    1    4    4    0  501 -0.34843111625E+02  0.14187418889E+02  0.26323397798E+02  0.46105519779E+02  0.41800000000E+01 0. -1.
</event>
<event>
11    1  0.1002087E-008  0.1346597E+03  0.7561462E-02  0.1113673E+00
         22   -1    0    0    0    0  0.00000000000E+00  0.00000000000E+00  0.98932477851E+03  0.98932477851E+03  0.00000000000E+00 0.  1.
         22   -1    0    0    0    0 -0.00000000000E+00 -0.00000000000E+00 -0.10252559094E+03  0.10252559094E+03  0.00000000000E+00 0. -1.
        -24    2    1    2    0    0 -0.90840895673E+01 -0.12482398804E+02 -0.65105146730E+02  0.10450427020E+03  0.80275347373E+02 0.  0.
         25    2    1    2    0    0  0.13718799173E+01  0.59590703675E+02  0.32100402332E+03  0.34963286924E+03  0.12508647509E+03 0.  0.
         24    2    1    2    0    0  0.77122096500E+01 -0.47108304871E+02  0.63090031098E+03  0.63771323000E+03  0.79776505048E+02 0.  0.
        -13    1    5    5    0    0  0.97129311483E+01 -0.48958084682E+02  0.63255778498E+03  0.63452390532E+03  0.00000000000E+00 0.  1.
         14    1    5    5    0    0 -0.20007214983E+01  0.18497798113E+01 -0.16574739976E+01  0.31893246803E+01  0.00000000000E+00 0. -1.
         13    1    3    3    0    0  0.19491874527E+02 -0.26269127630E+02 -0.65010609692E+02  0.72776229715E+02  0.00000000000E+00 0. -1.
        -14    1    3    3    0    0 -0.28575964094E+02  0.13786728827E+02 -0.94537037956E-01  0.31728040484E+02  0.00000000000E+00 0.  1.
          5    1    4    4  501    0 -0.54573908608E+02  0.61233304395E+02  0.17913410491E+03  0.19706427634E+03  0.41800000000E+01 0.  1.
         -5    1    4    4    0  501  0.55945788526E+02 -0.16426007199E+01  0.14186991841E+03  0.15256859290E+03  0.41800000000E+01 0.  1.
</event>
<event>
11    1  0.1002087E-008  0.1684888E+03  0.7561462E-02  0.1079354E+00
         22   -1    0    0    0    0  0.00000000000E+00  0.00000000000E+00  0.14506021118E+03  0.14506021118E+03  0.00000000000E+00 0. -1.
         22   -1    0    0    0    0 -0.00000000000E+00 -0.00000000000E+00 -0.11963237442E+04  0.11963237442E+04  0.00000000000E+00 0. -1.
         24    2    1    2    0    0 -0.86541651776E+02 -0.40595087675E+02 -0.72428493195E+03  0.73536299195E+03  0.83860888664E+02 0.  0.
         25    2    1    2    0    0  0.18739513304E+03  0.54730151697E+01 -0.39619145182E+03  0.45580834909E+03  0.12508674919E+03 0.  0.
        -24    2    1    2    0    0 -0.10085348126E+03  0.35122072506E+02  0.69212850733E+02  0.15021261436E+03  0.79802419427E+02 0.  0.
        -11    1    3    3    0    0 -0.15549120759E+02 -0.41156078623E+02 -0.13921532724E+03  0.14600173048E+03  0.00000000000E+00 0.  1.
         12    1    3    3    0    0 -0.70992531017E+02  0.56099094810E+00 -0.58506960471E+03  0.58936126147E+03  0.00000000000E+00 0. -1.
         13    1    5    5    0    0 -0.81562088999E+02  0.52082300985E+02  0.26440118350E+02  0.10031959079E+03  0.00000000000E+00 0. -1.
        -14    1    5    5    0    0 -0.19291392263E+02 -0.16960228479E+02  0.42772732383E+02  0.49893023570E+02  0.00000000000E+00 0.  1.
          5    1    4    4  501    0  0.16270454627E+03  0.13387476610E+02 -0.20156722254E+03  0.25942014477E+03  0.41800000000E+01 0. -1.
         -5    1    4    4    0  501  0.24690586764E+02 -0.79144614401E+01 -0.19462422928E+03  0.19638820432E+03  0.41800000000E+01 0. -1.
</event>
<event>
11    1  0.1002087E-008  0.1716672E+03  0.7561462E-02  0.1076590E+00
         22   -1    0    0    0    0  0.00000000000E+00  0.00000000000E+00  0.67059452424E+03  0.67059452424E+03  0.00000000000E+00 0. -1.
         22   -1    0    0    0    0 -0.00000000000E+00 -0.00000000000E+00 -0.21041591431E+03  0.21041591431E+03  0.00000000000E+00 0. -1.
        -24    2    1    2    0    0  0.11053965592E+03  0.52729565518E+02 -0.91655148811E+02  0.17255919514E+03  0.79853534121E+02 0.  0.
         25    2    1    2    0    0 -0.10354276740E+03 -0.29450865512E+02  0.15842593275E+02  0.16579127025E+03  0.12508916567E+03 0.  0.
         24    2    1    2    0    0 -0.69968885227E+01 -0.23278700005E+02  0.53599116547E+03  0.54265997316E+03  0.81255539418E+02 0.  0.
        -13    1    5    5    0    0 -0.27419166566E+02 -0.34829125963E+02  0.16264198847E+03  0.16857430150E+03  0.00000000000E+00 0.  1.
         14    1    5    5    0    0  0.20422278044E+02  0.11550425958E+02  0.37334917700E+03  0.37408567167E+03  0.00000000000E+00 0. -1.
         11    1    3    3    0    0  0.11632737522E+03  0.55029055641E+02 -0.99410984702E+02  0.16261241979E+03  0.00000000000E+00 0. -1.
        -12    1    3    3    0    0 -0.57877192959E+01 -0.22994901230E+01  0.77558358911E+01  0.99467753490E+01  0.00000000000E+00 0.  1.
          5    1    4    4  501    0 -0.54934152995E+02 -0.78205339403E+02  0.14871217276E+02  0.96811475454E+02  0.41800000000E+01 0.  1.
         -5    1    4    4    0  501 -0.48608614405E+02  0.48754473890E+02  0.97137599881E+00  0.68979794795E+02  0.41800000000E+01 0.  1.
</event>
<event>
11    1  0.1002087E-008  0.1600720E+03  0.7561462E-02  0.1087010E+00
         22   -1    0    0    0    0  0.00000000000E+00  0.00000000000E+00  0.17711199043E+04  0.17711199043E+04  0.00000000000E+00 0. -1.
         22   -1    0    0    0    0 -0.00000000000E+00 -0.00000000000E+00 -0.96175935881E+03  0.96175935881E+03  0.00000000000E+00 0.  1.
        -24    2    1    2    0    0 -0.29524560891E+02  0.94834707600E+02 -0.92689863966E+03  0.93573835842E+03  0.81239557783E+02 0.  0.
         25    2    1    2    0    0  0.27550994011E+02 -0.13496546948E+03  0.26981597529E+03  0.32775528855E+03  0.12509249948E+03 0.  0.
         24    2    1    2    0    0  0.19735668797E+01  0.40130761885E+02  0.14664432099E+04  0.14693856161E+04  0.83809475305E+02 0.  0.
        -13    1    5    5    0    0 -0.14403251654E+02 -0.66433713449E+01  0.59743883542E+02  0.61813588002E+02  0.00000000000E+00 0.  1.
         14    1    5    5    0    0  0.16376818534E+02  0.46774133230E+02  0.14066993263E+04  0.14075720281E+04  0.00000000000E+00 0. -1.
         11    1    3    3    0    0 -0.10543464167E+02 -0.14077116268E+02 -0.14500017956E+03  0.14606293819E+03  0.00000000000E+00 0. -1.
        -12    1    3    3    0    0 -0.18981096724E+02  0.10891182387E+03 -0.78189846009E+03  0.78967542023E+03  0.00000000000E+00 0.  1.
          5    1    4    4  501    0 -0.46756712063E+02 -0.70655738097E+02  0.15390762800E+03  0.17573688800E+03  0.41800000000E+01 0.  1.
         -5    1    4    4    0  501  0.74307706074E+02 -0.64309731388E+02  0.11590834729E+03  0.15201840054E+03  0.41800000000E+01 0.  1.
</event>
<event>
11    1  0.1002087E-008  0.2202244E+03  0.7561462E-02  0.1041077E+00
         22   -1    0    0    0    0  0.00000000000E+00  0.00000000000E+00  0.67878905568E+03  0.67878905568E+03  0.00000000000E+00 0.  1.
         22   -1    0    0    0    0 -0.00000000000E+00 -0.00000000000E+00 -0.35212709471E+03  0.35212709471E+03  0.00000000000E+00 0.  1.
         24    2    1    2    0    0  0.32466163604E+02 -0.11904051429E+02 -0.24374498531E+03  0.25922650002E+03  0.81184987703E+02 0.  0.
         25    2    1    2    0    0  0.14121357963E+03  0.78672021441E+02  0.45866204360E+02  0.20947933904E+03  0.12508925915E+03 0.  0.
        -24    2    1    2    0    0 -0.17367974323E+03 -0.66767970011E+02  0.52454074193E+03  0.56221031133E+03  0.79465899582E+02 0.  0.
        -13    1    3    3    0    0  0.22939033616E+02  0.32692058970E+02 -0.82518198754E+02  0.91674549950E+02  0.00000000000E+00 0.  1.
         14    1    3    3    0    0  0.95271299883E+01 -0.44596110399E+02 -0.16122678656E+03  0.16755195007E+03  0.00000000000E+00 0. -1.
         11    1    5    5    0    0 -0.39073755246E+01  0.96490595029E+00  0.98902117036E+02  0.98983975376E+02  0.00000000000E+00 0. -1.
        -12    1    5    5    0    0 -0.16977236771E+03 -0.67732875962E+02  0.42563862489E+03  0.46322633595E+03  0.00000000000E+00 0.  1.
          5    1    4    4  501    0  0.94960791610E+02  0.40916612961E+02  0.88360337975E+02  0.13607623924E+03  0.41800000000E+01 0.  1.
         -5    1    4    4    0  501  0.46252788016E+02  0.37755408480E+02 -0.42494133615E+02  0.73403099801E+02  0.41800000000E+01 0.  1.
</event>
<event>
11    1  0.1002087E-008  0.1570122E+03  0.7561462E-02  0.1089922E+00
         22   -1    0    0    0    0  0.00000000000E+00  0.00000000000E+00  0.19617833618E+04  0.19617833618E+04  0.00000000000E+00 0. -1.
         22   -1    0    0    0    0 -0.00000000000E+00 -0.00000000000E+00 -0.83382387218E+02  0.83382387218E+02  0.00000000000E+00 0.  1.
        -24    2    1    2    0    0 -0.32732595972E+02  0.23076162175E+02 -0.12892691548E+01  0.91138914027E+02  0.81857848342E+02 0.  0.
         25    2    1    2    0    0 -0.63590399331E+02 -0.32544431931E+02  0.11411465866E+03  0.18377431233E+03  0.12509182073E+03 0.  0.
         24    2    1    2    0    0  0.96322995303E+02  0.94682697562E+01  0.17655755851E+04  0.17702525226E+04  0.84670418905E+02 0.  0.
        -11    1    5    5    0    0  0.81910499128E+02  0.13662881103E+02  0.75291482808E+03  0.75748052288E+03  0.00000000000E+00 0.  1.
         12    1    5    5    0    0  0.14412496175E+02 -0.41946113468E+01  0.10126607570E+04  0.10127719998E+04  0.00000000000E+00 0. -1.
         11    1    3    3    0    0  0.42683509082E+01 -0.27759321410E+02  0.21635751051E+01  0.28168773524E+02  0.00000000000E+00 0. -1.
        -12    1    3    3    0    0 -0.37000946881E+02  0.50835483585E+02 -0.34528442598E+01  0.62970140502E+02  0.00000000000E+00 0.  1.
          5    1    4    4  501    0  0.23560304726E+02 -0.12772448458E+02 -0.11580434282E+02  0.29492410152E+02  0.41800000000E+01 0.  1.
         -5    1    4    4    0  501 -0.87150704057E+02 -0.19771983474E+02  0.12569509295E+03  0.15428190218E+03  0.41800000000E+01 0.  1.
</event>
<event>
11    1  0.1002087E-008  0.1346887E+03  0.7561462E-02  0.1113639E+00
         22   -1    0    0    0    0  0.00000000000E+00  0.00000000000E+00  0.89852754276E+03  0.89852754276E+03  0.00000000000E+00 0.  1.
         22   -1    0    0    0    0 -0.00000000000E+00 -0.00000000000E+00 -0.80711529759E+02  0.80711529759E+02  0.00000000000E+00 0.  1.
         24    2    1    2    0    0  0.50162017056E+02  0.68257675384E+01 -0.29134851078E+02  0.10062819181E+03  0.81941286189E+02 0.  0.
         25    2    1    2    0    0 -0.42396746935E+02 -0.63179963562E+01  0.35485701569E+03  0.37869307012E+03  0.12509012169E+03 0.  0.
        -24    2    1    2    0    0 -0.77652701210E+01 -0.50777118219E+00  0.49209384839E+03  0.49991781059E+03  0.87754797400E+02 0.  0.
        -13    1    3    3    0    0  0.65491129619E+02  0.20119801099E+02 -0.44247562285E+01  0.68654737075E+02  0.00000000000E+00 0.  1.
         14    1    3    3    0    0 -0.15329112564E+02 -0.13294033561E+02 -0.24710094850E+02  0.31973454737E+02  0.00000000000E+00 0. -1.
         13    1    5    5    0    0 -0.37781343608E+02 -0.27190430801E+02  0.21950088256E+03  0.22438223392E+03  0.00000000000E+00 0. -1.
        -14    1    5    5    0    0  0.30016073487E+02  0.26682659619E+02  0.27259296583E+03  0.27553557667E+03  0.00000000000E+00 0.  1.
          5    1    4    4  501    0  0.40072778628E+01  0.48274199582E+02  0.72044492782E+02  0.86915694563E+02  0.41800000000E+01 0.  1.
         -5    1    4    4    0  501 -0.46404024798E+02 -0.54592195938E+02  0.28281252290E+03  0.29177737555E+03  0.41800000000E+01 0.  1.
</event>
<event>
11    1  0.1002087E-008  0.1662569E+03  0.7561462E-02  0.1081336E+00
         22   -1    0    0    0    0  0.00000000000E+00  0.00000000000E+00  0.20176566816E+03  0.20176566816E+03  0.00000000000E+00 0.  1.
         22   -1    0    0    0    0 -0.00000000000E+00 -0.00000000000E+00 -0.17502987421E+04  0.17502987421E+04  0.00000000000E+00 0.  1.
        -24    2    1    2    0    0  0.15175682847E+01  0.26698241514E+02 -0.15858160990E+04  0.15881449236E+04  0.81709848835E+02 0.  0.
         25    2    1    2    0    0 -0.10563814419E+03  0.11481591821E+02 -0.80827723980E+02  0.18295336706E+03  0.12509024381E+03 0.  0.
         24    2    1    2    0    0  0.10412057591E+03 -0.38179833336E+02  0.11811074901E+03  0.18096611963E+03  0.80621296317E+02 0.  0.
        -11    1    5    5    0    0  0.34368315142E+02 -0.55186281236E+02  0.50172435592E+02  0.82121738995E+02  0.00000000000E+00 0.  1.
         12    1    5    5    0    0  0.69752260767E+02  0.17006447900E+02  0.67938313420E+02  0.98844380633E+02  0.00000000000E+00 0. -1.
         11    1    3    3    0    0 -0.25533530095E+02  0.32605650128E+02 -0.42826362530E+03  0.43026134190E+03  0.00000000000E+00 0. -1.
        -12    1    3    3    0    0  0.27051098379E+02 -0.59074086137E+01 -0.11575524737E+04  0.11578835817E+04  0.00000000000E+00 0.  1.
          5    1    4    4  501    0 -0.10415661746E+03  0.12366069713E+02 -0.30204974058E+01  0.10501483917E+03  0.41800000000E+01 0. -1.
         -5    1    4    4    0  501 -0.14815267313E+01 -0.88447789209E+00 -0.77807226575E+02  0.77938527891E+02  0.41800000000E+01 0. -1.
</event>
<event>
11    1  0.1002087E-008  0.2165369E+03  0.7561462E-02  0.1043409E+00
         22   -1    0    0    0    0  0.00000000000E+00  0.00000000000E+00  0.62298935327E+03  0.62298935327E+03  0.00000000000E+00 0. -1.
         22   -1    0    0    0    0 -0.00000000000E+00 -0.00000000000E+00 -0.14980792146E+04  0.14980792146E+04  0.00000000000E+00 0.  1.
        -24    2    1    2    0    0  0.16596672032E+03  0.57974837803E+02 -0.12645853300E+04  0.12797429416E+04  0.87520887393E+02 0.  0.
         25    2    1    2    0    0 -0.15456231519E+03 -0.11319672266E+03 -0.16069762818E+03  0.27959310197E+03  0.12508224362E+03 0.  0.
         24    2    1    2    0    0 -0.11404405128E+02  0.55221884859E+02  0.55019309688E+03  0.56173252424E+03  0.98241884723E+02 0.  0.
        -13    1    5    5    0    0 -0.24396808234E+02  0.75134512889E+02  0.29365001270E+03  0.30409000187E+03  0.00000000000E+00 0.  1.
         14    1    5    5    0    0  0.12992403106E+02 -0.19912628030E+02  0.25654308418E+03  0.25764252237E+03  0.00000000000E+00 0. -1.
         13    1    3    3    0    0  0.39946609749E+02  0.57753682962E+02 -0.42967443251E+03  0.43537493897E+03  0.00000000000E+00 0. -1.
        -14    1    3    3    0    0  0.12602011057E+03  0.22115484153E+00 -0.83491089748E+03  0.84436800266E+03  0.00000000000E+00 0.  1.
          5    1    4    4  501    0 -0.12116379893E+03 -0.23010068583E+02 -0.50666914122E+02  0.13339691906E+03  0.41800000000E+01 0. -1.
         -5    1    4    4    0  501 -0.33398516263E+02 -0.90186654079E+02 -0.11003071406E+03  0.14619618292E+03  0.41800000000E+01 0. -1.
</event>
<event>
11    1  0.1002087E-008  0.1699205E+03  0.7561462E-02  0.1078101E+00
         22   -1    0    0    0    0  0.00000000000E+00  0.00000000000E+00  0.48652702225E+03  0.48652702225E+03  0.00000000000E+00 0.  1.
         22   -1    0    0    0    0 -0.00000000000E+00 -0.00000000000E+00 -0.20411786225E+03  0.20411786225E+03  0.00000000000E+00 0. -1.
         24    2    1    2    0    0 -0.10981380040E+02  0.11188387777E+03 -0.12315853056E+03  0.18551636027E+03  0.81300082823E+02 0.  0.
         25    2    1    2    0    0 -0.31559513067E+02 -0.13421898432E+03  0.15770145994E+03  0.24398181026E+03  0.12508650869E+03 0.  0.
        -24    2    1    2    0    0  0.42540893107E+02  0.22335106545E+02  0.24786623062E+03  0.26114671397E+03  0.66718463419E+02 0.  0.
        -13    1    3    3    0    0  0.38441145349E+01  0.83531713473E+01  0.11683674139E+02  0.14868117887E+02  0.00000000000E+00 0.  1.
         14    1    3    3    0    0 -0.14825494575E+02  0.10353070643E+03 -0.13484220470E+03  0.17064824239E+03  0.00000000000E+00 0. -1.
         11    1    5    5    0    0 -0.25893086471E+01  0.39344388958E+01 -0.30038195094E+01  0.55863458843E+01  0.00000000000E+00 0. -1.
        -12    1    5    5    0    0  0.45130201754E+02  0.18400667649E+02  0.25087005013E+03  0.25556036808E+03  0.00000000000E+00 0.  1.
          5    1    4    4  501    0  0.22704588728E+02 -0.25873500045E+02 -0.10865981843E+02  0.36338386251E+02  0.41800000000E+01 0.  1.
         -5    1    4    4    0  501 -0.54264101795E+02 -0.10834548427E+03  0.16856744178E+03  0.20764342401E+03  0.41800000000E+01 0.  1.
</event>
<event>
11    1  0.1002087E-008  0.1785808E+03  0.7561462E-02  0.1070797E+00
         22   -1    0    0    0    0  0.00000000000E+00  0.00000000000E+00  0.80994102653E+03  0.80994102653E+03  0.00000000000E+00 0.  1.
         22   -1    0    0    0    0 -0.00000000000E+00 -0.00000000000E+00 -0.16779933122E+03  0.16779933122E+03  0.00000000000E+00 0. -1.
        -24    2    1    2    0    0  0.46046506017E+02 -0.11813224709E+03 -0.10262032739E+03  0.18202118524E+03  0.80779154267E+02 0.  0.
         25    2    1    2    0    0 -0.97684678213E+01  0.14123852060E+03  0.46928801899E+03  0.50588597988E+03  0.12508252156E+03 0.  0.
         24    2    1    2    0    0 -0.36278038195E+02 -0.23106273510E+02  0.27547400371E+03  0.28983319263E+03  0.79166640038E+02 0.  0.
        -11    1    5    5    0    0  0.21784395890E+02 -0.17155960660E+02  0.52817918805E+02  0.59654165297E+02  0.00000000000E+00 0.  1.
         12    1    5    5    0    0 -0.58062434086E+02 -0.59503128507E+01  0.22265608491E+03  0.23017902733E+03  0.00000000000E+00 0. -1.
         13    1    3    3    0    0  0.54746823854E+02 -0.62462208270E+02 -0.93291843870E+02  0.12490840771E+03  0.00000000000E+00 0. -1.
        -14    1    3    3    0    0 -0.87003178375E+01 -0.55670038821E+02 -0.93284835248E+01  0.57112777534E+02  0.00000000000E+00 0.  1.
          5    1    4    4  501    0  0.10237981962E+02  0.87382535665E+02  0.42276109470E+03  0.43183902025E+03  0.41800000000E+01 0. -1.
         -5    1    4    4    0  501 -0.20006449783E+02  0.53855984936E+02  0.46526924290E+02  0.74046959629E+02  0.41800000000E+01 0. -1.
</event>
<event>
11    1  0.1002087E-008  0.1719881E+03  0.7561462E-02  0.1076314E+00
         22   -1    0    0    0    0  0.00000000000E+00  0.00000000000E+00  0.35322945604E+03  0.35322945604E+03  0.00000000000E+00 0. -1.
         22   -1    0    0    0    0 -0.00000000000E+00 -0.00000000000E+00 -0.42729725720E+03  0.42729725720E+03  0.00000000000E+00 0.  1.
        -24    2    1    2    0    0 -0.10568576468E+02  0.36353877963E+02 -0.25390182120E+03  0.26811781337E+03  0.77380409596E+02 0.  0.
         25    2    1    2    0    0 -0.10289380231E+03  0.36366758798E+01 -0.10479332313E+03  0.19294804497E+03  0.12508775927E+03 0.  0.
         24    2    1    2    0    0  0.11346237878E+03 -0.39990553842E+02  0.28462734317E+03  0.31946085489E+03  0.81052807052E+02 0.  0.
        -13    1    5    5    0    0  0.25199878407E+02 -0.25608065049E+02  0.22243260574E+02  0.42255999672E+02  0.00000000000E+00 0.  1.
         14    1    5    5    0    0  0.88262500371E+02 -0.14382488793E+02  0.26238408260E+03  0.27720485522E+03  0.00000000000E+00 0. -1.
         13    1    3    3    0    0 -0.38655759428E+02  0.29164035959E+02 -0.20997063297E+03  0.21548196082E+03  0.00000000000E+00 0. -1.
        -14    1    3    3    0    0  0.28087182960E+02  0.71898420032E+01 -0.43931188232E+02  0.52635852555E+02  0.00000000000E+00 0.  1.
          5    1    4    4  501    0 -0.85490657001E+02  0.54561797399E+02 -0.41232504691E+02  0.10955927169E+03  0.41800000000E+01 0. -1.
         -5    1    4    4    0  501 -0.17403145309E+02 -0.50925121519E+02 -0.63560818444E+02  0.83388773283E+02  0.41800000000E+01 0. -1.
</event>
<event>
11    1  0.1002087E-008  0.1402444E+03  0.7561462E-02  0.1107286E+00
         22   -1    0    0    0    0  0.00000000000E+00  0.00000000000E+00  0.15971559147E+04  0.15971559147E+04  0.00000000000E+00 0. -1.
         22   -1    0    0    0    0 -0.00000000000E+00 -0.00000000000E+00 -0.50633748987E+02  0.50633748987E+02  0.00000000000E+00 0.  1.
         24    2    1    2    0    0 -0.55932148159E+02 -0.32550153465E+02  0.48115943280E+02  0.11296643502E+03  0.79109757650E+02 0.  0.
         25    2    1    2    0    0  0.50268444126E+02  0.30560566618E+02  0.26574223989E+03  0.29954602190E+03  0.12509203199E+03 0.  0.
        -24    2    1    2    0    0  0.56637040322E+01  0.19895868466E+01  0.12326639826E+04  0.12352772068E+04  0.80082755313E+02 0.  0.
        -13    1    3    3    0    0 -0.56076451499E+02 -0.31108572927E+02 -0.69789051783E+00  0.64131106130E+02  0.00000000000E+00 0.  1.
         14    1    3    3    0    0  0.14430334033E+00 -0.14415805377E+01  0.48813833798E+02  0.48835328891E+02  0.00000000000E+00 0. -1.
         13    1    5    5    0    0  0.46342647726E+01  0.20693446787E+02  0.11613640448E+04  0.11615576351E+04  0.00000000000E+00 0. -1.
        -14    1    5    5    0    0  0.10294392596E+01 -0.18703859940E+02  0.71299937784E+02  0.73719571688E+02  0.00000000000E+00 0.  1.
          5    1    4    4  501    0 -0.41515321213E+02  0.17843037956E+02  0.92711428090E+02  0.10322198020E+03  0.41800000000E+01 0. -1.
         -5    1    4    4    0  501  0.91783765340E+02  0.12717528663E+02  0.17303081180E+03  0.19632404170E+03  0.41800000000E+01 0. -1.
</event>
<event>
11    1  0.1002087E-008  0.2001571E+03  0.7561462E-02  0.1054413E+00
         22   -1    0    0    0    0  0.00000000000E+00  0.00000000000E+00  0.16756409574E+03  0.16756409574E+03  0.00000000000E+00 0. -1.
         22   -1    0    0    0    0 -0.00000000000E+00 -0.00000000000E+00 -0.17087586033E+04  0.17087586033E+04  0.00000000000E+00 0. -1.
         24    2    1    2    0    0  0.11500563765E+03 -0.99668980704E+02 -0.13262956607E+04  0.13374844849E+04  0.81512975447E+02 0.  0.
         25    2    1    2    0    0 -0.14730095194E+03  0.10557247204E+03 -0.32890531622E+03  0.39581504312E+03  0.12509086308E+03 0.  0.
        -24    2    1    2    0    0  0.32295314289E+02 -0.59034913409E+01  0.11400646937E+03  0.14302317109E+03  0.79876866958E+02 0.  0.
        -11    1    3    3    0    0  0.23300837429E+02 -0.36294571336E+01 -0.50266463248E+03  0.50321748254E+03  0.00000000000E+00 0.  1.
         12    1    3    3    0    0  0.91704800222E+02 -0.96039523570E+02 -0.82363102825E+03  0.83426700233E+03  0.00000000000E+00 0. -1.
         13    1    5    5    0    0 -0.54534124250E+01  0.79020184123E+01  0.99998176971E+02  0.10045803601E+03  0.00000000000E+00 0. -1.
        -14    1    5    5    0    0  0.37748726714E+02 -0.13805509753E+02  0.14008292398E+02  0.42565135075E+02  0.00000000000E+00 0.  1.
          5    1    4    4  501    0 -0.80250987274E+02  0.55189263710E+02 -0.60860244927E+02  0.11492396443E+03  0.41800000000E+01 0. -1.
         -5    1    4    4    0  501 -0.67049964666E+02  0.50383208335E+02 -0.26804507129E+03  0.28089107869E+03  0.41800000000E+01 0. -1.
</event>
<event>
11    1  0.1002087E-008  0.1582335E+03  0.7561462E-02  0.1088751E+00
         22   -1    0    0    0    0  0.00000000000E+00  0.00000000000E+00  0.25432584458E+03  0.25432584458E+03  0.00000000000E+00 0.  1.
         22   -1    0    0    0    0 -0.00000000000E+00 -0.00000000000E+00 -0.13332897822E+04  0.13332897822E+04  0.00000000000E+00 0. -1.
        -24    2    1    2    0    0 -0.17288848199E+01  0.56099180029E+02 -0.11833541669E+04  0.11878887183E+04  0.87191832043E+02 0.  0.
         25    2    1    2    0    0 -0.95362692917E+02 -0.45493635213E+02 -0.75203444100E+02  0.18018487806E+03  0.12508924108E+03 0.  0.
         24    2    1    2    0    0  0.97091577737E+02 -0.10605544815E+02  0.17959367340E+03  0.21954203044E+03  0.80034764660E+02 0.  0.
        -13    1    5    5    0    0  0.11111551688E+03 -0.10969707563E+02  0.15218589339E+03  0.18875258600E+03  0.00000000000E+00 0.  1.
         14    1    5    5    0    0 -0.14023939141E+02  0.36416274757E+00  0.27407780011E+02  0.30789444436E+02  0.00000000000E+00 0. -1.
         13    1    3    3    0    0 -0.20983570259E+01  0.75417883977E+02 -0.10870630232E+04  0.10896780610E+04  0.00000000000E+00 0. -1.
        -14    1    3    3    0    0  0.36947220601E+00 -0.19318703948E+02 -0.96291143733E+02  0.98210657229E+02  0.00000000000E+00 0.  1.
          5    1    4    4  501    0 -0.72131631196E+02  0.34393007623E+02 -0.30409654453E+02  0.85604151045E+02  0.41800000000E+01 0.  1.
         -5    1    4    4    0  501 -0.23231061722E+02 -0.79886642836E+02 -0.44793789647E+02  0.94580727018E+02  0.41800000000E+01 0.  1.
</event>
<event>
11    1  0.1002087E-008  0.1268595E+03  0.7561462E-02  0.1123189E+00
         22   -1    0    0    0    0  0.00000000000E+00  0.00000000000E+00  0.32618681434E+03  0.32618681434E+03  0.00000000000E+00 0. -1.
         22   -1    0    0    0    0 -0.00000000000E+00 -0.00000000000E+00 -0.61214899041E+03  0.61214899041E+03  0.00000000000E+00 0. -1.
         24    2    1    2    0    0  0.69940351998E+01  0.19838041312E+02 -0.57366364804E+03  0.57970213828E+03  0.80759665918E+02 0.  0.
         25    2    1    2    0    0 -0.12768035199E+02 -0.19963499717E+02  0.13159152986E+03  0.18310418004E+03  0.12509694630E+03 0.  0.
        -24    2    1    2    0    0  0.57739999989E+01  0.12545840479E+00  0.15610994210E+03  0.17552948643E+03  0.80043311811E+02 0.  0.
        -13    1    3    3    0    0  0.31584714729E+02  0.37721573119E+02 -0.26366207115E+03  0.26821297330E+03  0.00000000000E+00 0.  1.
         14    1    3    3    0    0 -0.24590679530E+02 -0.17883531807E+02 -0.31000157689E+03  0.31148916498E+03  0.00000000000E+00 0. -1.
         13    1    5    5    0    0  0.12997496201E+02 -0.16102324085E+02  0.15640118220E+03  0.15776422136E+03  0.00000000000E+00 0. -1.
        -14    1    5    5    0    0 -0.72234962024E+01  0.16227782490E+02 -0.29124009854E+00  0.17765265062E+02  0.00000000000E+00 0.  1.
          5    1    4    4  501    0  0.40600267914E+02  0.27923875158E+01  0.11582494601E+03  0.12283757447E+03  0.41800000000E+01 0.  1.
         -5    1    4    4    0  501 -0.53368303113E+02 -0.22755887232E+02  0.15766583848E+02  0.60266605571E+02  0.41800000000E+01 0.  1.
</event>
<event>
11    1  0.1002087E-008  0.2413801E+03  0.7561462E-02  0.1028594E+00
         22   -1    0    0    0    0  0.00000000000E+00  0.00000000000E+00  0.10069825421E+04  0.10069825421E+04  0.00000000000E+00 0. -1.
         22   -1    0    0    0    0 -0.00000000000E+00 -0.00000000000E+00 -0.63687100326E+03  0.63687100326E+03  0.00000000000E+00 0.  1.
        -24    2    1    2    0    0  0.15028053358E+03 -0.13925929794E+03 -0.48762172753E+03  0.53520172059E+03  0.81783505240E+02 0.  0.
         25    2    1    2    0    0 -0.21927883777E+03  0.76891583619E+02  0.22981907284E+02  0.26487529004E+03  0.12504090084E+03 0.  0.
         24    2    1    2    0    0  0.68998304191E+02  0.62367714322E+02  0.83475135912E+03  0.84377653477E+03  0.80613344441E+02 0.  0.
        -13    1    5    5    0    0  0.20898246159E+02  0.41255087364E+01  0.38916721093E+02  0.44365163085E+02  0.00000000000E+00 0.  1.
         14    1    5    5    0    0  0.48100058032E+02  0.58242205585E+02  0.79583463803E+03  0.79941137169E+03  0.00000000000E+00 0. -1.
         13    1    3    3    0    0 -0.42747802439E+01 -0.32101718020E+02 -0.78834273605E+02  0.85226971909E+02  0.00000000000E+00 0. -1.
        -14    1    3    3    0    0  0.15455531383E+03 -0.10715757992E+03 -0.40878745393E+03  0.44997474868E+03  0.00000000000E+00 0.  1.
          5    1    4    4  501    0 -0.87089109984E+02  0.72117654659E+01 -0.47559587608E+02  0.99578659423E+02  0.41800000000E+01 0. -1.
         -5    1    4    4    0  501 -0.13218972779E+03  0.69679818153E+02  0.70541494892E+02  0.16529663062E+03  0.41800000000E+01 0. -1.
</event>
<event>
11    1  0.1002087E-008  0.1533521E+03  0.7561462E-02  0.1093502E+00
         22   -1    0    0    0    0  0.00000000000E+00  0.00000000000E+00  0.16381295738E+04  0.16381295738E+04  0.00000000000E+00 0.  1.
         22   -1    0    0    0    0 -0.00000000000E+00 -0.00000000000E+00 -0.23686695894E+03  0.23686695894E+03  0.00000000000E+00 0. -1.
        -24    2    1    2    0    0  0.44028191498E+02  0.69367260108E+02 -0.92385801781E+02  0.14951683582E+03  0.84082396511E+02 0.  0.
         25    2    1    2    0    0 -0.28548028483E+01 -0.11295925954E+03 -0.52164410834E+02  0.17645489855E+03  0.12508901330E+03 0.  0.
         24    2    1    2    0    0 -0.41173388649E+02  0.43591999432E+02  0.15458128274E+04  0.15490247983E+04  0.79655621638E+02 0.  0.
        -11    1    5    5    0    0  0.83357055569E+01  0.12785341471E+02  0.99810511091E+03  0.99822179969E+03  0.00000000000E+00 0.  1.
         12    1    5    5    0    0 -0.49509094206E+02  0.30806657961E+02  0.54770771652E+03  0.55080299865E+03  0.00000000000E+00 0. -1.
         13    1    3    3    0    0  0.14515809770E+02  0.82053615778E+00 -0.70155662005E+02  0.71646346203E+02  0.00000000000E+00 0. -1.
        -14    1    3    3    0    0  0.29512381727E+02  0.68546723950E+02 -0.22230139776E+02  0.77870489622E+02  0.00000000000E+00 0.  1.
          5    1    4    4  501    0  0.15160438726E+02 -0.79352455613E+02 -0.91075611729E+02  0.12181498498E+03  0.41800000000E+01 0.  1.
         -5    1    4    4    0  501 -0.18015241575E+02 -0.33606803927E+02  0.38911200895E+02  0.54639913564E+02  0.41800000000E+01 0.  1.
</event>
<event>
11    1  0.1331708E-008  0.1895776E+03  0.7561462E-02  0.1062149E+00
         22   -1    0    0    0    0  0.00000000000E+00  0.00000000000E+00  0.81966089268E+03  0.81966089268E+03  0.00000000000E+00 0. -1.
         22   -1    0    0    0    0 -0.00000000000E+00 -0.00000000000E+00 -0.18146044510E+03  0.18146044510E+03  0.00000000000E+00 0. -1.
         24    2    1    2    0    0  0.53202977600E+02 -0.14321780516E+02 -0.35519486894E+02  0.10409502057E+03  0.80860800982E+02 0.  0.
         25    2    1    2    0    0 -0.18728805292E+03  0.44624960796E+02  0.28242046096E+02  0.23132887274E+03  0.12508889760E+03 0.  0.
        -24    2    1    2    0    0  0.13408507532E+03 -0.30303180280E+02  0.64547788838E+03  0.66569744448E+03  0.87259916577E+02 0.  0.
        -13    1    3    3    0    0 -0.17115960499E+02  0.82714896672E+01 -0.21883810118E+02  0.28987493690E+02  0.00000000000E+00 0.  1.
         14    1    3    3    0    0  0.70318938099E+02 -0.22593270183E+02 -0.13635676776E+02  0.75107526880E+02  0.00000000000E+00 0. -1.
         13    1    5    5    0    0  0.13766181502E+03 -0.56673961442E+01  0.53596831831E+03  0.55339401237E+03  0.00000000000E+00 0. -1.
        -14    1    5    5    0    0 -0.35767397030E+01 -0.24635784136E+02  0.10950957007E+03  0.11230343211E+03  0.00000000000E+00 0.  1.
          5    1    4    4  501    0 -0.10088897562E+03 -0.35212792931E+02 -0.10380014531E+02  0.10744181350E+03  0.41800000000E+01 0. -1.
         -5    1    4    4    0  501 -0.86399077296E+02  0.79837753728E+02  0.38622060627E+02  0.12388705923E+03  0.41800000000E+01 0. -1.
</event>
<event>
11    1  0.1002087E-008  0.2144427E+03  0.7561462E-02  0.1044756E+00
         22   -1    0    0    0    0  0.00000000000E+00  0.00000000000E+00  0.66153917242E+03  0.66153917242E+03  0.00000000000E+00 0.  1.
         22   -1    0    0    0    0 -0.00000000000E+00 -0.00000000000E+00 -0.36436257414E+03  0.36436257414E+03  0.00000000000E+00 0. -1.
        -24    2    1    2    0    0 -0.64007184168E+02 -0.42290564172E+01 -0.10958574080E+03  0.15070405472E+03  0.81165713072E+02 0.  0.
         25    2    1    2    0    0  0.68837670861E+02  0.17789630402E+03 -0.15932762856E+03  0.27824025546E+03  0.12508647659E+03 0.  0.
         24    2    1    2    0    0 -0.48304866922E+01 -0.17366724760E+03  0.56608996764E+03  0.59695743638E+03  0.75608748811E+02 0.  0.
        -11    1    5    5    0    0 -0.64645202189E+01 -0.11811083789E+03  0.48094160387E+03  0.49527445562E+03  0.00000000000E+00 0.  1.
         12    1    5    5    0    0  0.16340335267E+01 -0.55556409705E+02  0.85148363765E+02  0.10168298076E+03  0.00000000000E+00 0. -1.
         11    1    3    3    0    0 -0.34422154502E+02 -0.15464734469E+02 -0.11275199081E+03  0.11889934468E+03  0.00000000000E+00 0. -1.
        -12    1    3    3    0    0 -0.29585029666E+02  0.11235678052E+02  0.31662500118E+01  0.31804710041E+02  0.00000000000E+00 0.  1.
          5    1    4    4  501    0  0.38584500058E+02 -0.41730445578E+01 -0.87421059858E+01  0.40000934522E+02  0.41800000000E+01 0.  1.
         -5    1    4    4    0  501  0.30253170803E+02  0.18206934857E+03 -0.15058552257E+03  0.23823932094E+03  0.41800000000E+01 0.  1.
</event>
<event>
11    1  0.1002087E-008  0.1486268E+03  0.7561462E-02  0.1098290E+00
         22   -1    0    0    0    0  0.00000000000E+00  0.00000000000E+00  0.92579890172E+03  0.92579890172E+03  0.00000000000E+00 0. -1.
         22   -1    0    0    0    0 -0.00000000000E+00 -0.00000000000E+00 -0.17925270679E+03  0.17925270679E+03  0.00000000000E+00 0.  1.
         24    2    1    2    0    0  0.71166153044E+02 -0.20731136735E+01 -0.90657639394E+02  0.14163062623E+03  0.82289170401E+02 0.  0.
         25    2    1    2    0    0 -0.12782972502E+03  0.30872849793E+02  0.78418882301E+02  0.19771344694E+03  0.12509002576E+03 0.  0.
        -24    2    1    2    0    0  0.56663571980E+02 -0.28799736120E+02  0.75878495202E+03  0.76570753534E+03  0.80704653328E+02 0.  0.
        -13    1    3    3    0    0  0.54681062201E+02 -0.39427868561E+02 -0.63362096332E+02  0.92516650579E+02  0.00000000000E+00 0.  1.
         14    1    3    3    0    0  0.16485090843E+02  0.37354754888E+02 -0.27295543062E+02  0.49113975647E+02  0.00000000000E+00 0. -1.
         11    1    5    5    0    0  0.33385398948E+02 -0.33343049704E+01  0.66385481861E+03  0.66470213077E+03  0.00000000000E+00 0. -1.
        -12    1    5    5    0    0  0.23278173031E+02 -0.25465431150E+02  0.94930133414E+02  0.10100540457E+03  0.00000000000E+00 0.  1.
          5    1    4    4  501    0 -0.75678359645E+02  0.77842560835E+02  0.63486672618E+02  0.12583603775E+03  0.41800000000E+01 0.  1.
         -5    1    4    4    0  501 -0.52151365379E+02 -0.46969711041E+02  0.14932209684E+02  0.71877409192E+02  0.41800000000E+01 0.  1.
</event>
<event>
11    1  0.1002087E-008  0.1698383E+03  0.7561462E-02  0.1078172E+00
         22   -1    0    0    0    0  0.00000000000E+00  0.00000000000E+00  0.42563869531E+04  0.42563869531E+04  0.00000000000E+00 0. -1.
         22   -1    0    0    0    0 -0.00000000000E+00 -0.00000000000E+00 -0.37240906228E+02  0.37240906228E+02  0.00000000000E+00 0.  1.
        -24    2    1    2    0    0 -0.11009840616E+02 -0.41249929705E+02  0.51744752529E+02  0.10617328825E+03  0.82295045007E+02 0.  0.
         25    2    1    2    0    0 -0.29836131043E+02 -0.73143252572E+02  0.63739944562E+03  0.65434489210E+03  0.12509618074E+03 0.  0.
         24    2    1    2    0    0  0.40845971660E+02  0.11439318228E+03  0.35300018487E+04  0.35331096790E+04  0.84833708501E+02 0.  0.
        -13    1    5    5    0    0  0.63940387578E+02  0.79211099436E+02  0.20702123131E+04  0.20727136302E+04  0.00000000000E+00 0.  1.
         14    1    5    5    0    0 -0.23094415918E+02  0.35182082841E+02  0.14597895356E+04  0.14603960488E+04  0.00000000000E+00 0. -1.
         11    1    3    3    0    0  0.77719026358E+00 -0.65560151761E+02  0.34071223079E+02  0.73889009777E+02  0.00000000000E+00 0. -1.
        -12    1    3    3    0    0 -0.11787030880E+02  0.24310222056E+02  0.17673529450E+02  0.32284278474E+02  0.00000000000E+00 0.  1.
          5    1    4    4  501    0  0.30316167158E+01 -0.44084146503E+02  0.56848780006E+02  0.72123913240E+02  0.41800000000E+01 0.  1.
         -5    1    4    4    0  501 -0.32867747759E+02 -0.29059106069E+02  0.58055066561E+03  0.58222097887E+03  0.41800000000E+01 0.  1.
</event>
<event>
11    1  0.1002087E-008  0.1329357E+03  0.7561462E-02  0.1115714E+00
         22   -1    0    0    0    0  0.00000000000E+00  0.00000000000E+00  0.44330581649E+03  0.44330581649E+03  0.00000000000E+00 0.  1.
         22   -1    0    0    0    0 -0.00000000000E+00 -0.00000000000E+00 -0.81050952358E+02  0.81050952358E+02  0.00000000000E+00 0.  1.
         24    2    1    2    0    0  0.53634797296E+02  0.17338164058E+00 -0.27907687369E+01  0.97075126916E+02  0.80864518383E+02 0.  0.
         25    2    1    2    0    0 -0.61976242684E+01 -0.17787950402E+02  0.18845437385E+03  0.22697479480E+03  0.12509070600E+03 0.  0.
        -24    2    1    2    0    0 -0.47437173028E+02  0.17614568761E+02  0.17659125902E+03  0.20030684713E+03  0.79861140906E+02 0.  0.
        -13    1    3    3    0    0  0.30787637968E+02  0.40386555328E+02 -0.17111628066E+01  0.50812208976E+02  0.00000000000E+00 0.  1.
         14    1    3    3    0    0  0.22847159328E+02 -0.40213173687E+02 -0.10796059303E+01  0.46262917940E+02  0.00000000000E+00 0. -1.
         11    1    5    5    0    0 -0.65168983290E+02  0.22812006576E+02  0.10001963463E+03  0.12153728374E+03  0.00000000000E+00 0. -1.
        -12    1    5    5    0    0  0.17731810262E+02 -0.51974378145E+01  0.76571624387E+02  0.78769563388E+02  0.00000000000E+00 0.  1.
          5    1    4    4  501    0 -0.20679425794E+02 -0.68490088410E+02  0.12757399218E+03  0.14632541386E+03  0.41800000000E+01 0.  1.
         -5    1    4    4    0  501  0.14481801525E+02  0.50702138008E+02  0.60880381673E+02  0.80649380944E+02  0.41800000000E+01 0.  1.
</event>
<event>
11    1  0.1002087E-008  0.1676496E+03  0.7561462E-02  0.1080095E+00
         22   -1    0    0    0    0  0.00000000000E+00  0.00000000000E+00  0.11918901425E+04  0.11918901425E+04  0.00000000000E+00 0. -1.
         22   -1    0    0    0    0 -0.00000000000E+00 -0.00000000000E+00 -0.86873598312E+02  0.86873598312E+02  0.00000000000E+00 0.  1.
         24    2    1    2    0    0 -0.48280984523E+02  0.73214321799E+02  0.20383121601E+02  0.11765389154E+03  0.75733586778E+02 0.  0.
         25    2    1    2    0    0 -0.19557297359E+02 -0.15612220391E+03  0.27686397693E+03  0.34213582774E+03  0.12508649994E+03 0.  0.
        -24    2    1    2    0    0  0.67838281881E+02  0.82907882108E+02  0.80776944566E+03  0.81897402153E+03  0.82165815280E+02 0.  0.
        -13    1    3    3    0    0 -0.68986791935E+02  0.56353444379E+02  0.13672771183E+02  0.90121211858E+02  0.00000000000E+00 0.  1.
         14    1    3    3    0    0  0.20705807413E+02  0.16860877420E+02  0.67103504179E+01  0.27532679687E+02  0.00000000000E+00 0. -1.
         11    1    5    5    0    0  0.84404881318E+02  0.82960771618E+02  0.71803806251E+03  0.72772613862E+03  0.00000000000E+00 0. -1.
        -12    1    5    5    0    0 -0.16566599437E+02 -0.52889509483E-01  0.89731383153E+02  0.91247882917E+02  0.00000000000E+00 0.  1.
          5    1    4    4  501    0 -0.41282514978E+02  0.92615775121E+00  0.71313754733E+02  0.82511985948E+02  0.41800000000E+01 0.  1.
         -5    1    4    4    0  501  0.21725217619E+02 -0.15704836166E+03  0.20555022220E+03  0.25962384179E+03  0.41800000000E+01 0.  1.
</event>
<event>
11    1  0.1002087E-008  0.1617335E+03  0.7561462E-02  0.1085458E+00
         22   -1    0    0    0    0  0.00000000000E+00  0.00000000000E+00  0.27591622797E+04  0.27591622797E+04  0.00000000000E+00 0. -1.
         22   -1    0    0    0    0 -0.00000000000E+00 -0.00000000000E+00 -0.69253748566E+03  0.69253748566E+03  0.00000000000E+00 0.  1.
        -24    2    1    2    0    0 -0.35317237810E+02 -0.11008665763E+02 -0.67750342609E+03  0.68297377185E+03  0.77934476717E+02 0.  0.
         25    2    1    2    0    0  0.11543875173E+03  0.64928916741E+02  0.79976533395E+03  0.82025309586E+03  0.12509469316E+03 0.  0.
         24    2    1    2    0    0 -0.80121513919E+02 -0.53920250978E+02  0.19443628861E+04  0.19484728976E+04  0.81686897640E+02 0.  0.
        -11    1    5    5    0    0 -0.69391249480E+02 -0.87818325323E+01  0.15143172625E+04  0.15159317391E+04  0.00000000000E+00 0.  1.
         12    1    5    5    0    0 -0.10730264438E+02 -0.45138418445E+02  0.43004562368E+03  0.43254115855E+03  0.00000000000E+00 0. -1.
         11    1    3    3    0    0  0.90236104613E+01 -0.32720924357E+02 -0.19306029007E+03  0.19602132547E+03  0.00000000000E+00 0. -1.
        -12    1    3    3    0    0 -0.44340848271E+02  0.21712258594E+02 -0.48444313603E+03  0.48695244639E+03  0.00000000000E+00 0.  1.
          5    1    4    4  501    0  0.13924092041E+03  0.68623724156E+02  0.72982931013E+03  0.74616723579E+03  0.41800000000E+01 0.  1.
         -5    1    4    4    0  501 -0.23802168684E+02 -0.36948074152E+01  0.69936023816E+02  0.74085860075E+02  0.41800000000E+01 0.  1.
</event>
<event>
11    1  0.1148447E-008  0.1450925E+03  0.7561462E-02  0.1102001E+00
         22   -1    0    0    0    0  0.00000000000E+00  0.00000000000E+00  0.16157145848E+03  0.16157145848E+03  0.00000000000E+00 0.  1.
         22   -1    0    0    0    0 -0.00000000000E+00 -0.00000000000E+00 -0.17789062316E+04  0.17789062316E+04  0.00000000000E+00 0.  1.
         24    2    1    2    0    0  0.19110378306E+02 -0.46647426887E+02 -0.10742888600E+04  0.10786525332E+04  0.82786132365E+02 0.  0.
         25    2    1    2    0    0 -0.97401102280E+01  0.11832834333E+03 -0.67184415846E+03  0.69362627129E+03  0.12508542835E+03 0.  0.
        -24    2    1    2    0    0 -0.93702680784E+01 -0.71680916438E+02  0.12879824535E+03  0.16819888555E+03  0.80473109724E+02 0.  0.
        -13    1    3    3    0    0  0.85270925259E+01 -0.18605042487E+02 -0.96805485224E+03  0.96827116856E+03  0.00000000000E+00 0.  1.
         14    1    3    3    0    0  0.10583285781E+02 -0.28042384400E+02 -0.10623400778E+03  0.11038136469E+03  0.00000000000E+00 0. -1.
         13    1    5    5    0    0 -0.40034172829E+01 -0.45563850723E+01 -0.11262179912E+02  0.12791586737E+02  0.00000000000E+00 0. -1.
        -14    1    5    5    0    0 -0.53668507955E+01 -0.67124531366E+02  0.14006042527E+03  0.15540729881E+03  0.00000000000E+00 0.  1.
          5    1    4    4  501    0  0.21643868882E+02  0.13492212081E+03 -0.53066056488E+03  0.54798772182E+03  0.41800000000E+01 0. -1.
         -5    1    4    4    0  501 -0.31383979110E+02 -0.16593777487E+02 -0.14118359358E+03  0.14563854947E+03  0.41800000000E+01 0. -1.
</event>
<event>
11    1  0.1002087E-008  0.1702765E+03  0.7561462E-02  0.1077791E+00
         22   -1    0    0    0    0  0.00000000000E+00  0.00000000000E+00  0.29687008293E+03  0.29687008293E+03  0.00000000000E+00 0. -1.
         22   -1    0    0    0    0 -0.00000000000E+00 -0.00000000000E+00 -0.26565662730E+03  0.26565662730E+03  0.00000000000E+00 0. -1.
        -24    2    1    2    0    0 -0.54802041661E+02  0.10005351864E+03 -0.14822933369E+03  0.20322000561E+03  0.79451022331E+02 0.  0.
         25    2    1    2    0    0  0.10678506700E+03 -0.76591289892E+02  0.34397100703E+02  0.18466296239E+03  0.12509185792E+03 0.  0.
         24    2    1    2    0    0 -0.51983025342E+02 -0.23462228746E+02  0.14504568862E+03  0.17464374224E+03  0.78800214556E+02 0.  0.
        -11    1    5    5    0    0 -0.69960030904E+02 -0.11964038006E+02  0.13131354429E+03  0.14926751503E+03  0.00000000000E+00 0.  1.
         12    1    5    5    0    0  0.17977005562E+02 -0.11498190740E+02  0.13732144324E+02  0.25376227202E+02  0.00000000000E+00 0. -1.
         13    1    3    3    0    0 -0.74172174677E+02  0.87517760424E+02 -0.13266838966E+03  0.17539034039E+03  0.00000000000E+00 0. -1.
        -14    1    3    3    0    0  0.19370133016E+02  0.12535758214E+02 -0.15560944033E+02  0.27829665220E+02  0.00000000000E+00 0.  1.
          5    1    4    4  501    0  0.11592304010E+03 -0.82581956496E+02  0.61528650399E+02  0.15511665927E+03  0.41800000000E+01 0.  1.
         -5    1    4    4    0  501 -0.91379730946E+01  0.59906666038E+01 -0.27131549697E+02  0.29546303112E+02  0.41800000000E+01 0.  1.
</event>
<event>
11    1  0.1002087E-008  0.1460524E+03  0.7561462E-02  0.1100982E+00
         22   -1    0    0    0    0  0.00000000000E+00  0.00000000000E+00  0.26840166480E+02  0.26840166480E+02  0.00000000000E+00 0.  1.
         22   -1    0    0    0    0 -0.00000000000E+00 -0.00000000000E+00 -0.23290809276E+04  0.23290809276E+04  0.00000000000E+00 0. -1.
         24    2    1    2    0    0 -0.37396058849E+02  0.69233588414E+02 -0.15011023372E+04  0.15052632712E+04  0.79482916028E+02 0.  0.
         25    2    1    2    0    0  0.96376816815E+01 -0.67189139495E+02 -0.73367037505E+03  0.74734677617E+03  0.12509084398E+03 0.  0.
        -24    2    1    2    0    0  0.27758377168E+02 -0.20444489190E+01 -0.67468048864E+02  0.10331104669E+03  0.73119952656E+02 0.  0.
        -13    1    3    3    0    0 -0.17918609669E+02 -0.23200155860E+01 -0.71801284208E+02  0.74039742427E+02  0.00000000000E+00 0.  1.
         14    1    3    3    0    0 -0.19477449180E+02  0.71553604000E+02 -0.14293010530E+04  0.14312235288E+04  0.00000000000E+00 0. -1.
         13    1    5    5    0    0 -0.16929276019E+01  0.12996929850E+02 -0.68972598125E+02  0.70206876313E+02  0.00000000000E+00 0. -1.
        -14    1    5    5    0    0  0.29451304769E+02 -0.15041378769E+02  0.15045492619E+01  0.33104170378E+02  0.00000000000E+00 0.  1.
          5    1    4    4  501    0 -0.89428348220E+01 -0.13498826598E+02 -0.61975785124E+03  0.61998343460E+03  0.41800000000E+01 0. -1.
         -5    1    4    4    0  501  0.18580516504E+02 -0.53690312898E+02 -0.11391252381E+03  0.12736334156E+03  0.41800000000E+01 0. -1.
</event>
<event>
11    1  0.1002087E-008  0.1475846E+03  0.7561462E-02  0.1099373E+00
         22   -1    0    0    0    0  0.00000000000E+00  0.00000000000E+00  0.13752047517E+03  0.13752047517E+03  0.00000000000E+00 0.  1.
         22   -1    0    0    0    0 -0.00000000000E+00 -0.00000000000E+00 -0.48275397630E+03  0.48275397630E+03  0.00000000000E+00 0.  1.
         24    2    1    2    0    0 -0.37125011192E+02  0.32988021162E+01 -0.23792936228E+03  0.25401702740E+03  0.80778216281E+02 0.  0.
         25    2    1    2    0    0  0.41808059952E+02 -0.80621596826E+02 -0.17692077881E+03  0.23493363487E+03  0.12508035443E+03 0.  0.
        -24    2    1    2    0    0 -0.46830487604E+01  0.77322794710E+02  0.69616639960E+02  0.13132378919E+03  0.79991971604E+02 0.  0.
        -13    1    3    3    0    0 -0.32369794474E+02 -0.20721276088E+02 -0.22083389599E+03  0.22415348424E+03  0.00000000000E+00 0.  1.
         14    1    3    3    0    0 -0.47552167174E+01  0.24020078204E+02 -0.17095466289E+02  0.29863543168E+02  0.00000000000E+00 0. -1.
         11    1    5    5    0    0  0.17107981040E+02 -0.11692985071E+01 -0.78955183681E+01  0.18878280763E+02  0.00000000000E+00 0. -1.
        -12    1    5    5    0    0 -0.21791029800E+02  0.78492093217E+02  0.77512158328E+02  0.11244550843E+03  0.00000000000E+00 0.  1.
          5    1    4    4  501    0  0.75708287098E+02 -0.89943470216E+02 -0.12110788527E+03  0.16883768787E+03  0.41800000000E+01 0. -1.
         -5    1    4    4    0  501 -0.33900227146E+02  0.93218733896E+01 -0.55812893545E+02  0.66095947000E+02  0.41800000000E+01 0. -1.
</event>
<event>
11    1  0.1002087E-008  0.1337617E+03  0.7561462E-02  0.1114732E+00
         22   -1    0    0    0    0  0.00000000000E+00  0.00000000000E+00  0.17126762900E+04  0.17126762900E+04  0.00000000000E+00 0.  1.
         22   -1    0    0    0    0 -0.00000000000E+00 -0.00000000000E+00 -0.77287331800E+03  0.77287331800E+03  0.00000000000E+00 0.  1.
        -24    2    1    2    0    0 -0.33934470346E+02 -0.33800943615E+02 -0.74454265101E+03  0.75060327900E+03  0.82264641312E+02 0.  0.
         25    2    1    2    0    0  0.11027248720E+02  0.15794219337E+02  0.14243216291E+03  0.19053976715E+03  0.12508966486E+03 0.  0.
         24    2    1    2    0    0  0.22907221626E+02  0.18006724277E+02  0.15419134601E+04  0.15444065619E+04  0.82737699652E+02 0.  0.
        -11    1    5    5    0    0  0.13265791838E+02  0.16273761130E+02  0.15226562549E+04  0.15228010005E+04  0.00000000000E+00 0.  1.
         12    1    5    5    0    0  0.96414297883E+01  0.17329631473E+01  0.19257205244E+02  0.21605561400E+02  0.00000000000E+00 0. -1.
         13    1    3    3    0    0 -0.10819805111E+02  0.89802155881E+01 -0.20097334039E+02  0.24527847238E+02  0.00000000000E+00 0. -1.
        -14    1    3    3    0    0 -0.23114665234E+02 -0.42781159203E+02 -0.72444531697E+03  0.72607543176E+03  0.00000000000E+00 0.  1.
          5    1    4    4  501    0  0.52590461581E+02 -0.26907534738E+02  0.38415658473E+02  0.70590419257E+02  0.41800000000E+01 0.  1.
         -5    1    4    4    0  501 -0.41563212861E+02  0.42701754075E+02  0.10401650443E+03  0.11994934789E+03  0.41800000000E+01 0.  1.
</event>
<event>
11    1  0.1002087E-008  0.1297611E+03  0.7561462E-02  0.1119563E+00
         22   -1    0    0    0    0  0.00000000000E+00  0.00000000000E+00  0.11592573171E+04  0.11592573171E+04  0.00000000000E+00 0.  1.
         22   -1    0    0    0    0 -0.00000000000E+00 -0.00000000000E+00 -0.86019504932E+03  0.86019504932E+03  0.00000000000E+00 0. -1.
         24    2    1    2    0    0  0.12745959746E+02 -0.49571906096E+01 -0.59620219481E+03  0.60178870552E+03  0.80657025564E+02 0.  0.
         25    2    1    2    0    0 -0.36771577068E+02 -0.19829425881E+02 -0.24274314827E+03  0.27624903213E+03  0.12507572389E+03 0.  0.
        -24    2    1    2    0    0  0.24025617321E+02  0.24786616490E+02  0.11380076109E+04  0.11414146288E+04  0.81082832613E+02 0.  0.
        -11    1    3    3    0    0  0.64033462461E+01  0.20888609846E+02 -0.52982545105E+03  0.53027572587E+03  0.00000000000E+00 0.  1.
         12    1    3    3    0    0  0.63426135002E+01 -0.25845800456E+02 -0.66376743753E+02  0.71512979650E+02  0.00000000000E+00 0. -1.
         11    1    5    5    0    0  0.71742200836E+01 -0.97048898675E+01  0.91825294417E+03  0.91833225131E+03  0.00000000000E+00 0. -1.
        -12    1    5    5    0    0  0.16851397238E+02  0.34491506358E+02  0.21975466671E+03  0.22308237747E+03  0.00000000000E+00 0.  1.
          5    1    4    4  501    0  0.51603439452E+01 -0.42191770295E+02 -0.17747891046E+02  0.46251861226E+02  0.41800000000E+01 0. -1.
         -5    1    4    4    0  501 -0.41931921013E+02  0.22362344415E+02 -0.22499525723E+03  0.22999717090E+03  0.41800000000E+01 0. -1.
</event>
<event>
11    1  0.1002087E-008  0.2342152E+03  0.7561462E-02  0.1032661E+00
         22   -1    0    0    0    0  0.00000000000E+00  0.00000000000E+00  0.10887190001E+04  0.10887190001E+04  0.00000000000E+00 0.  1.
         22   -1    0    0    0    0 -0.00000000000E+00 -0.00000000000E+00 -0.37222189189E+03  0.37222189189E+03  0.00000000000E+00 0. -1.
         24    2    1    2    0    0 -0.30583637548E+02 -0.22465670082E+01 -0.31374209696E+03  0.32496788158E+03  0.78927908274E+02 0.  0.
         25    2    1    2    0    0  0.19860367763E+03 -0.86134229002E+02  0.39281380988E+03  0.46563200216E+03  0.12509175046E+03 0.  0.
        -24    2    1    2    0    0 -0.16802004008E+03  0.88380796010E+02  0.63742539529E+03  0.67034100823E+03  0.83690105687E+02 0.  0.
        -11    1    3    3    0    0  0.19724544174E+02  0.19761987136E+01 -0.19410972953E+03  0.19511932273E+03  0.00000000000E+00 0.  1.
         12    1    3    3    0    0 -0.50308181723E+02 -0.42227657218E+01 -0.11963236743E+03  0.12984855885E+03  0.00000000000E+00 0. -1.
         13    1    5    5    0    0 -0.48592286273E+02 -0.13376878286E+02  0.14343180403E+03  0.15202905501E+03  0.00000000000E+00 0. -1.
        -14    1    5    5    0    0 -0.11942775380E+03  0.10175767430E+03  0.49399359125E+03  0.51831195322E+03  0.00000000000E+00 0.  1.
          5    1    4    4  501    0  0.47364462131E+02  0.10897983260E+02  0.18283974366E+03  0.18923531006E+03  0.41800000000E+01 0.  1.
         -5    1    4    4    0  501  0.15123921549E+03 -0.97032212262E+02  0.20997406622E+03  0.27639669210E+03  0.41800000000E+01 0.  1.
</event>
<event>
11    1  0.1002087E-008  0.1815044E+03  0.7561462E-02  0.1068432E+00
         22   -1    0    0    0    0  0.00000000000E+00  0.00000000000E+00  0.65311491531E+03  0.65311491531E+03  0.00000000000E+00 0.  1.
         22   -1    0    0    0    0 -0.00000000000E+00 -0.00000000000E+00 -0.38017660735E+03  0.38017660735E+03  0.00000000000E+00 0. -1.
        -24    2    1    2    0    0 -0.11459756222E+03 -0.64919990316E+02 -0.32081597396E+03  0.35608623968E+03  0.80791797415E+02 0.  0.
         25    2    1    2    0    0  0.13768784635E+03  0.16411889131E+02  0.20847012366E+03  0.27988998581E+03  0.12510522994E+03 0.  0.
         24    2    1    2    0    0 -0.23090284132E+02  0.48508101186E+02  0.38528415826E+03  0.39731529716E+03  0.80804490285E+02 0.  0.
        -13    1    5    5    0    0 -0.27990456679E+02 -0.59886595710E+00  0.27586139144E+03  0.27727843694E+03  0.00000000000E+00 0.  1.
         14    1    5    5    0    0  0.49001725473E+01  0.49106967143E+02  0.10942276683E+03  0.12003686023E+03  0.00000000000E+00 0. -1.
         11    1    3    3    0    0 -0.51155672817E+02 -0.45910742080E+02 -0.24935217761E+03  0.25865267750E+03  0.00000000000E+00 0. -1.
        -12    1    3    3    0    0 -0.63441889406E+02 -0.19009248236E+02 -0.71463796359E+02  0.97433562184E+02  0.00000000000E+00 0.  1.
          5    1    4    4  501    0  0.13783547276E+03  0.50408167592E+02  0.13781695092E+03  0.20137175887E+03  0.41800000000E+01 0.  1.
         -5    1    4    4    0  501 -0.14762640440E+00 -0.33996278461E+02  0.70653172742E+02  0.78518226937E+02  0.41800000000E+01 0.  1.
</event>
<event>
11    1  0.1002087E-008  0.1408732E+03  0.7561462E-02  0.1106587E+00
         22   -1    0    0    0    0  0.00000000000E+00  0.00000000000E+00  0.18184245236E+04  0.18184245236E+04  0.00000000000E+00 0. -1.
         22   -1    0    0    0    0 -0.00000000000E+00 -0.00000000000E+00 -0.33223225267E+03  0.33223225267E+03  0.00000000000E+00 0.  1.
         24    2    1    2    0    0  0.13667880448E+02 -0.64985324839E+02 -0.28331041374E+03  0.30202235381E+03  0.80887627408E+02 0.  0.
         25    2    1    2    0    0 -0.22538623874E+02  0.40997151856E+02  0.77232121270E+02  0.15427336740E+03  0.12508683107E+03 0.  0.
        -24    2    1    2    0    0  0.88707434265E+01  0.23988172984E+02  0.16922705634E+04  0.16943610550E+04  0.80159856732E+02 0.  0.
        -11    1    3    3    0    0  0.39852664780E+02 -0.17059459469E+02 -0.18021164681E+03  0.18535236091E+03  0.00000000000E+00 0.  1.
         12    1    3    3    0    0 -0.26184784332E+02 -0.47925865371E+02 -0.10309876693E+03  0.11666999291E+03  0.00000000000E+00 0. -1.
         13    1    5    5    0    0  0.43571572449E+02  0.19263338069E+02  0.81438095482E+03  0.81577319011E+03  0.00000000000E+00 0. -1.
        -14    1    5    5    0    0 -0.34700829022E+02  0.47248349147E+01  0.87788960856E+03  0.87858786494E+03  0.00000000000E+00 0.  1.
          5    1    4    4  501    0 -0.57782773161E+02 -0.19605375869E+02  0.22257000972E+02  0.65085068406E+02  0.41800000000E+01 0.  1.
         -5    1    4    4    0  501  0.35244149286E+02  0.60602527725E+02  0.54975120298E+02  0.89188298993E+02  0.41800000000E+01 0.  1.
</event>
<event>
11    1  0.1002087E-008  0.1370308E+03  0.7561462E-02  0.1110920E+00
         22   -1    0    0    0    0  0.00000000000E+00  0.00000000000E+00  0.51868914608E+02  0.51868914608E+02  0.00000000000E+00 0. -1.
         22   -1    0    0    0    0 -0.00000000000E+00 -0.00000000000E+00 -0.17422635903E+04  0.17422635903E+04  0.00000000000E+00 0. -1.
        -24    2    1    2    0    0  0.34199150924E+01 -0.12439496518E+02 -0.14377057876E+04  0.14400963512E+04  0.81933704960E+02 0.  0.
         25    2    1    2    0    0 -0.11757298225E+01 -0.47951315199E+02 -0.17147344044E+03  0.21760573042E+03  0.12509357364E+03 0.  0.
         24    2    1    2    0    0 -0.22441852699E+01  0.60390811717E+02 -0.81215447615E+02  0.13643042330E+03  0.91461603761E+02 0.  0.
        -11    1    5    5    0    0  0.32697970856E+01 -0.14386441736E+02 -0.55086439190E+02  0.57027862151E+02  0.00000000000E+00 0.  1.
         12    1    5    5    0    0 -0.55139823555E+01  0.74777253453E+02 -0.26129008424E+02  0.79402561146E+02  0.00000000000E+00 0. -1.
         13    1    3    3    0    0 -0.35066005036E+02 -0.21793124260E+02 -0.89213882830E+03  0.89309364231E+03  0.00000000000E+00 0. -1.
        -14    1    3    3    0    0  0.38485920128E+02  0.93536277420E+01 -0.54556695932E+03  0.54700270886E+03  0.00000000000E+00 0.  1.
          5    1    4    4  501    0  0.47359099117E+02  0.13139484309E+02 -0.10092358178E+03  0.11233241775E+03  0.41800000000E+01 0. -1.
         -5    1    4    4    0  501 -0.48534828940E+02 -0.61090799509E+02 -0.70549858654E+02  0.10527331267E+03  0.41800000000E+01 0. -1.
</event>
<event>
11    1  0.1580363E-008  0.1585972E+03  0.7561462E-02  0.1088404E+00
         22   -1    0    0    0    0  0.00000000000E+00  0.00000000000E+00  0.75820585486E+03  0.75820585486E+03  0.00000000000E+00 0. -1.
         22   -1    0    0    0    0 -0.00000000000E+00 -0.00000000000E+00 -0.53491412358E+03  0.53491412358E+03  0.00000000000E+00 0.  1.
        -24    2    1    2    0    0  0.25882862124E+02 -0.34799114284E+02 -0.25152328869E+03  0.26779612539E+03  0.81054914212E+02 0.  0.
         25    2    1    2    0    0 -0.89947224555E+02  0.10714579530E+03 -0.23712659459E+03  0.30240239091E+03  0.12508980578E+03 0.  0.
         24    2    1    2    0    0  0.64064362430E+02 -0.72346681020E+02  0.71194161455E+03  0.72292146213E+03  0.80101767125E+02 0.  0.
        -13    1    5    5    0    0  0.65929053270E+01 -0.29474485858E+02  0.61254854849E+02  0.68296185543E+02  0.00000000000E+00 0.  1.
         14    1    5    5    0    0  0.57471457103E+02 -0.42872195162E+02  0.65068675970E+03  0.65462527659E+03  0.00000000000E+00 0. -1.
         11    1    3    3    0    0 -0.16132167630E+02  0.17396099646E+02 -0.86341087333E+02  0.89541356239E+02  0.00000000000E+00 0. -1.
        -12    1    3    3    0    0  0.42015029754E+02 -0.52195213930E+02 -0.16518220135E+03  0.17825476915E+03  0.00000000000E+00 0.  1.
          5    1    4    4  501    0 -0.32139701151E+02 -0.16554557980E+02 -0.10655088727E+02  0.37921195864E+02  0.41800000000E+01 0. -1.
         -5    1    4    4    0  501 -0.57807523403E+02  0.12370035328E+03 -0.22647150587E+03  0.26448119505E+03  0.41800000000E+01 0. -1.
</event>
<event>
11    1  0.1002087E-008  0.1301694E+03  0.7561462E-02  0.1119061E+00
         22   -1    0    0    0    0  0.00000000000E+00  0.00000000000E+00  0.17493788612E+03  0.17493788612E+03  0.00000000000E+00 0. -1.
         22   -1    0    0    0    0 -0.00000000000E+00 -0.00000000000E+00 -0.87667009468E+03  0.87667009468E+03  0.00000000000E+00 0.  1.
        -24    2    1    2    0    0  0.36077272149E+02  0.37048028207E+01 -0.75064261492E+03  0.75588323122E+03  0.81116143672E+02 0.  0.
         25    2    1    2    0    0 -0.32916539805E+02  0.47480813590E+01 -0.73871128680E+02  0.14903146124E+03  0.12508952761E+03 0.  0.
         24    2    1    2    0    0 -0.31607323441E+01 -0.84528841796E+01  0.12278153505E+03  0.14669328834E+03  0.79763237244E+02 0.  0.
        -13    1    5    5    0    0 -0.29369739781E+02  0.13055683397E+02  0.18602614587E+02  0.37136097712E+02  0.00000000000E+00 0.  1.
         14    1    5    5    0    0  0.26209007437E+02 -0.21508567577E+02  0.10417892046E+03  0.10955719063E+03  0.00000000000E+00 0. -1.
         11    1    3    3    0    0  0.44726574979E+02 -0.15264412972E+02 -0.22907811186E+03  0.23390222347E+03  0.00000000000E+00 0. -1.
        -12    1    3    3    0    0 -0.86493028293E+01  0.18969215793E+02 -0.52156450306E+03  0.52198100774E+03  0.00000000000E+00 0.  1.
          5    1    4    4  501    0 -0.30029690259E+02 -0.45699509629E+02 -0.81010645638E+02  0.97828546877E+02  0.41800000000E+01 0. -1.
         -5    1    4    4    0  501 -0.28868495459E+01  0.50447590988E+02  0.71395169575E+01  0.51202914362E+02  0.41800000000E+01 0. -1.
</event>
<event>
11    1  0.1002087E-008  0.1204309E+04  0.7561462E-02  0.8505782E-01
         22   -1    0    0    0    0  0.00000000000E+00  0.00000000000E+00  0.15498982627E+04  0.15498982627E+04  0.00000000000E+00 0. -1.
         22   -1    0    0    0    0 -0.00000000000E+00 -0.00000000000E+00 -0.28635203979E+04  0.28635203979E+04  0.00000000000E+00 0. -1.
         24    2    1    2    0    0  0.75854487843E+03  0.34301198341E+02 -0.13010581217E+04  0.15085164339E+04  0.79389485816E+02 0.  0.
         25    2    1    2    0    0 -0.17435160804E+04  0.23600306489E+03 -0.40149536175E+03  0.18089757397E+04  0.12509569207E+03 0.  0.
        -24    2    1    2    0    0  0.98497120195E+03 -0.27030426323E+03  0.38893134827E+03  0.10959264870E+04  0.80960532771E+02 0.  0.
        -11    1    3    3    0    0  0.66707878639E+03  0.54442275053E+02 -0.11226804665E+04  0.13070460966E+04  0.00000000000E+00 0.  1.
         12    1    3    3    0    0  0.91466092040E+02 -0.20141076712E+02 -0.17837765514E+03  0.20147033731E+03  0.00000000000E+00 0. -1.
         13    1    5    5    0    0  0.75409403022E+03 -0.17464204799E+03  0.27741023141E+03  0.82226156898E+03  0.00000000000E+00 0. -1.
        -14    1    5    5    0    0  0.23087717173E+03 -0.95662215239E+02  0.11152111685E+03  0.27366491802E+03  0.00000000000E+00 0.  1.
          5    1    4    4  501    0 -0.12514903938E+04  0.18347632044E+03 -0.34392535690E+03  0.13107989508E+04  0.41800000000E+01 0. -1.
         -5    1    4    4    0  501 -0.49202568659E+03  0.52526744454E+02 -0.57570004850E+02  0.49817678891E+03  0.41800000000E+01 0. -1.
</event>
<event>
11    1  0.1002087E-008  0.1392189E+03  0.7561462E-02  0.1108434E+00
         22   -1    0    0    0    0  0.00000000000E+00  0.00000000000E+00  0.91576592108E+03  0.91576592108E+03  0.00000000000E+00 0.  1.
         22   -1    0    0    0    0 -0.00000000000E+00 -0.00000000000E+00 -0.20366030482E+03  0.20366030482E+03  0.00000000000E+00 0. -1.
         24    2    1    2    0    0 -0.49230830264E+02 -0.26247569593E+02 -0.13378001403E+03  0.16658816628E+03  0.82109167776E+02 0.  0.
         25    2    1    2    0    0  0.94651489021E+02  0.42101049888E+02  0.79548549409E+02  0.18084839025E+03  0.12508703277E+03 0.  0.
        -24    2    1    2    0    0 -0.45420658758E+02 -0.15853480295E+02  0.76633708089E+03  0.77198966936E+03  0.79882156800E+02 0.  0.
        -13    1    3    3    0    0 -0.33773005304E+02 -0.65317736752E+01 -0.42532760685E+01  0.34660789257E+02  0.00000000000E+00 0.  1.
         14    1    3    3    0    0 -0.15457824959E+02 -0.19715795918E+02 -0.12952673797E+03  0.13192737703E+03  0.00000000000E+00 0. -1.
         13    1    5    5    0    0 -0.63566434611E+02 -0.14090640494E+02  0.40564000276E+03  0.41083214285E+03  0.00000000000E+00 0. -1.
        -14    1    5    5    0    0  0.18145775854E+02 -0.17628398007E+01  0.36069707813E+03  0.36115752651E+03  0.00000000000E+00 0.  1.
          5    1    4    4  501    0  0.93177959662E+02  0.79771626511E+02  0.71612411913E+02  0.14209663790E+03  0.41800000000E+01 0.  1.
         -5    1    4    4    0  501  0.14735293595E+01 -0.37670576623E+02  0.79361374961E+01  0.38751752351E+02  0.41800000000E+01 0.  1.
</event>
<event>
11    1  0.1002087E-008  0.1412263E+03  0.7561462E-02  0.1106197E+00
         22   -1    0    0    0    0  0.00000000000E+00  0.00000000000E+00  0.85035366470E+03  0.85035366470E+03  0.00000000000E+00 0. -1.
         22   -1    0    0    0    0 -0.00000000000E+00 -0.00000000000E+00 -0.43751280654E+03  0.43751280654E+03  0.00000000000E+00 0.  1.
        -24    2    1    2    0    0 -0.32028384741E+02  0.28192405091E+02 -0.40073863741E+03  0.41152142365E+03  0.83293441971E+02 0.  0.
         25    2    1    2    0    0 -0.39640060774E+01 -0.81855743265E+02  0.17722446191E+03  0.23188553316E+03  0.12508522910E+03 0.  0.
         24    2    1    2    0    0  0.35992390818E+02  0.53663338175E+02  0.63635503365E+03  0.64445951444E+03  0.78772652837E+02 0.  0.
        -11    1    5    5    0    0 -0.19686406311E+02  0.25197669451E+02  0.34447644924E+03  0.34595736908E+03  0.00000000000E+00 0.  1.
         12    1    5    5    0    0  0.55678797129E+02  0.28465668724E+02  0.29187858441E+03  0.29850214536E+03  0.00000000000E+00 0. -1.
         11    1    3    3    0    0  0.15359537896E+02 -0.10406139682E+01 -0.14042284854E+02  0.20837083426E+02  0.00000000000E+00 0. -1.
        -12    1    3    3    0    0 -0.47387922637E+02  0.29233019059E+02 -0.38669635256E+03  0.39068434022E+03  0.00000000000E+00 0.  1.
          5    1    4    4  501    0  0.13305850951E+02  0.12870312754E+02  0.11636048950E+03  0.11789794968E+03  0.41800000000E+01 0. -1.
         -5    1    4    4    0  501 -0.17269857029E+02 -0.94726056019E+02  0.60863972405E+02  0.11398758348E+03  0.41800000000E+01 0. -1.
</event>
<event>
11    1  0.1002087E-008  0.1511039E+03  0.7561462E-02  0.1095756E+00
         22   -1    0    0    0    0  0.00000000000E+00  0.00000000000E+00  0.85247294533E+03  0.85247294533E+03  0.00000000000E+00 0. -1.
         22   -1    0    0    0    0 -0.00000000000E+00 -0.00000000000E+00 -0.12096049588E+03  0.12096049588E+03  0.00000000000E+00 0.  1.
         24    2    1    2    0    0 -0.45740169116E+02 -0.58441174296E+02  0.46791517466E+02  0.12012238839E+03  0.82051253259E+02 0.  0.
         25    2    1    2    0    0  0.55370357102E+02  0.76311948945E+02 -0.68319664021E+01  0.15678715726E+03  0.12508455907E+03 0.  0.
        -24    2    1    2    0    0 -0.96301879864E+01 -0.17870774650E+02  0.69155289839E+03  0.69652389557E+03  0.80548250942E+02 0.  0.
        -13    1    3    3    0    0 -0.64142329462E+02 -0.42171236453E+02  0.12245825070E+02  0.77734238559E+02  0.00000000000E+00 0.  1.
         14    1    3    3    0    0  0.18402160346E+02 -0.16269937843E+02  0.34545692395E+02  0.42388149828E+02  0.00000000000E+00 0. -1.
         13    1    5    5    0    0  0.72016752080E+00 -0.59375172861E-02  0.65115782545E+03  0.65115822372E+03  0.00000000000E+00 0. -1.
        -14    1    5    5    0    0 -0.10350355507E+02 -0.17864837132E+02  0.40395072937E+02  0.45365671851E+02  0.00000000000E+00 0.  1.
          5    1    4    4  501    0 -0.37058544003E+02  0.43132273502E+02  0.72962578019E+01  0.57484228089E+02  0.41800000000E+01 0.  1.
         -5    1    4    4    0  501  0.92428901105E+02  0.33179675443E+02 -0.14128224204E+02  0.99302929167E+02  0.41800000000E+01 0.  1.
</event>
<event>
11    1  0.1002087E-008  0.1450244E+03  0.7561462E-02  0.1102074E+00
         22   -1    0    0    0    0  0.00000000000E+00  0.00000000000E+00  0.76426092366E+03  0.76426092366E+03  0.00000000000E+00 0.  1.
         22   -1    0    0    0    0 -0.00000000000E+00 -0.00000000000E+00 -0.15386614700E+04  0.15386614700E+04  0.00000000000E+00 0.  1.
         24    2    1    2    0    0  0.34801589996E+01 -0.48616507936E+02 -0.13223068022E+04  0.13256895532E+04  0.81128514781E+02 0.  0.
         25    2    1    2    0    0 -0.76782497455E+02  0.49243202815E+02 -0.18227764814E+03  0.23915000311E+03  0.12508852081E+03 0.  0.
        -24    2    1    2    0    0  0.73302338455E+02 -0.62669487930E+00  0.73018390400E+03  0.73808283738E+03  0.78893064294E+02 0.  0.
        -13    1    3    3    0    0  0.23923526381E+02 -0.51453790403E+02 -0.12201466709E+04  0.12214654012E+04  0.00000000000E+00 0.  1.
         14    1    3    3    0    0 -0.20443367382E+02  0.28372824672E+01 -0.10216013126E+03  0.10422415200E+03  0.00000000000E+00 0. -1.
         11    1    5    5    0    0  0.26754855522E+02 -0.44905612365E+01  0.55415356786E+02  0.61699669382E+02  0.00000000000E+00 0. -1.
        -12    1    5    5    0    0  0.46547482933E+02  0.38638663572E+01  0.67476854722E+03  0.67638316799E+03  0.00000000000E+00 0.  1.
          5    1    4    4  501    0 -0.47878863784E+02 -0.35400594530E+02 -0.10542582267E+03  0.12115141013E+03  0.41800000000E+01 0.  1.
         -5    1    4    4    0  501 -0.28903633671E+02  0.84643797345E+02 -0.76851825475E+02  0.11799859299E+03  0.41800000000E+01 0.  1.
</event>
<event>
11    1  0.1002087E-008  0.1580435E+03  0.7561462E-02  0.1088932E+00
         22   -1    0    0    0    0  0.00000000000E+00  0.00000000000E+00  0.83643963401E+03  0.83643963401E+03  0.00000000000E+00 0.  1.
         22   -1    0    0    0    0 -0.00000000000E+00 -0.00000000000E+00 -0.17527405116E+04  0.17527405116E+04  0.00000000000E+00 0. -1.
        -24    2    1    2    0    0 -0.50718232132E+02  0.10873957513E+02 -0.16019547260E+04  0.16048601598E+04  0.81403970028E+02 0.  0.
         25    2    1    2    0    0 -0.46287079498E+02 -0.26244018309E+02 -0.11230901301E+03  0.17632968201E+03  0.12509036784E+03 0.  0.
         24    2    1    2    0    0  0.97005311631E+02  0.15370060796E+02  0.79796286141E+03  0.80799030381E+03  0.80357536061E+02 0.  0.
        -11    1    5    5    0    0  0.73519469291E+02 -0.26461664059E+02  0.44951685790E+03  0.45625731508E+03  0.00000000000E+00 0.  1.
         12    1    5    5    0    0  0.23485842339E+02  0.41831724855E+02  0.34844600351E+03  0.35173298873E+03  0.00000000000E+00 0. -1.
         11    1    3    3    0    0 -0.61642941216E+02  0.34326952073E+02 -0.12032193009E+04  0.12052862224E+04  0.00000000000E+00 0. -1.
        -12    1    3    3    0    0  0.10924709083E+02 -0.23452994560E+02 -0.39873542515E+03  0.39957393745E+03  0.00000000000E+00 0.  1.
          5    1    4    4  501    0  0.98628104402E+01 -0.66083310039E+02 -0.53933281573E+02  0.85968309026E+02  0.41800000000E+01 0. -1.
         -5    1    4    4    0  501 -0.56149889938E+02  0.39839291730E+02 -0.58375731440E+02  0.90361372980E+02  0.41800000000E+01 0. -1.
</event>
<event>
11    1  0.1002087E-008  0.1269223E+03  0.7561462E-02  0.1123109E+00
         22   -1    0    0    0    0  0.00000000000E+00  0.00000000000E+00  0.16223194605E+04  0.16223194605E+04  0.00000000000E+00 0.  1.
         22   -1    0    0    0    0 -0.00000000000E+00 -0.00000000000E+00 -0.87391571341E+03  0.87391571341E+03  0.00000000000E+00 0.  1.
        -24    2    1    2    0    0 -0.10965923226E+02 -0.18576993693E+02 -0.85324301132E+03  0.85772172817E+03  0.84838496238E+02 0.  0.
         25    2    1    2    0    0  0.24509909662E+02  0.76853920533E+01  0.22026399725E+03  0.25459952641E+03  0.12507953246E+03 0.  0.
         24    2    1    2    0    0 -0.13543986436E+02  0.10891601640E+02  0.13813827612E+04  0.13839139193E+04  0.81837257566E+02 0.  0.
        -11    1    5    5    0    0 -0.14643414662E+02  0.10915666226E+02  0.13823371696E+04  0.13824578228E+04  0.00000000000E+00 0.  1.
         12    1    5    5    0    0  0.10994282262E+01 -0.24064585737E-01 -0.95440846111E+00  0.14560965076E+01  0.00000000000E+00 0. -1.
         13    1    3    3    0    0  0.36819173402E+01  0.58653369454E+01 -0.39932576454E+01  0.79940477485E+01  0.00000000000E+00 0. -1.
        -14    1    3    3    0    0 -0.14647840566E+02 -0.24442330639E+02 -0.84924975367E+03  0.84972768042E+03  0.00000000000E+00 0.  1.
          5    1    4    4  501    0 -0.13319812810E+02  0.26046422505E+02  0.20870900981E+03  0.21079078897E+03  0.41800000000E+01 0.  1.
         -5    1    4    4    0  501  0.37829722472E+02 -0.18361030452E+02  0.11554987442E+02  0.43808737443E+02  0.41800000000E+01 0.  1.
</event>
<event>
11    1  0.1002087E-008  0.1832725E+03  0.7561462E-02  0.1067026E+00
         22   -1    0    0    0    0  0.00000000000E+00  0.00000000000E+00  0.18970910003E+03  0.18970910003E+03  0.00000000000E+00 0.  1.
         22   -1    0    0    0    0 -0.00000000000E+00 -0.00000000000E+00 -0.37212516307E+04  0.37212516307E+04  0.00000000000E+00 0.  1.
         24    2    1    2    0    0 -0.12958409744E+03  0.63574927084E+02 -0.28957345602E+04  0.29004421190E+04  0.80324545473E+02 0.  0.
         25    2    1    2    0    0  0.10956782760E+03  0.12095945801E+02 -0.79684447851E+03  0.81410082509E+03  0.12509040622E+03 0.  0.
        -24    2    1    2    0    0  0.20016269839E+02 -0.75670872885E+02  0.16103650810E+03  0.19641778663E+03  0.80749352323E+02 0.  0.
        -11    1    3    3    0    0 -0.64984982062E+02  0.73536039649E+02 -0.19347636165E+04  0.19372508482E+04  0.00000000000E+00 0.  1.
         12    1    3    3    0    0 -0.64599115375E+02 -0.99611125648E+01 -0.96097094371E+03  0.96319127079E+03  0.00000000000E+00 0. -1.
         13    1    5    5    0    0  0.27237179899E+02  0.77156566770E+01  0.33363045087E+02  0.43754863779E+02  0.00000000000E+00 0. -1.
        -14    1    5    5    0    0 -0.72209100602E+01 -0.83386529562E+02  0.12767346301E+03  0.15266292285E+03  0.00000000000E+00 0.  1.
          5    1    4    4  501    0  0.87404631293E+02  0.10405120289E+02 -0.78221851439E+03  0.78716650892E+03  0.41800000000E+01 0.  1.
         -5    1    4    4    0  501  0.22163196305E+02  0.16908255124E+01 -0.14625964120E+02  0.26934316175E+02  0.41800000000E+01 0.  1.
</event>
<event>
11    1  0.1002087E-008  0.1692887E+03  0.7561462E-02  0.1078652E+00
         22   -1    0    0    0    0  0.00000000000E+00  0.00000000000E+00  0.20356939299E+04  0.20356939299E+04  0.00000000000E+00 0.  1.
         22   -1    0    0    0    0 -0.00000000000E+00 -0.00000000000E+00 -0.55920731038E+03  0.55920731038E+03  0.00000000000E+00 0. -1.
        -24    2    1    2    0    0 -0.40124295264E+02 -0.38652236509E+02 -0.53107400865E+03  0.53990711412E+03  0.79725370810E+02 0.  0.
         25    2    1    2    0    0  0.73300771805E+02  0.14152866427E+03  0.47133601409E+03  0.51303733264E+03  0.12508517315E+03 0.  0.
         24    2    1    2    0    0 -0.33176476540E+02 -0.10287642776E+03  0.15362246141E+04  0.15419567935E+04  0.77203951936E+02 0.  0.
        -13    1    5    5    0    0  0.29187668187E+01  0.26476965125E+01  0.45086696535E+03  0.45088418684E+03  0.00000000000E+00 0.  1.
         14    1    5    5    0    0 -0.36095243359E+02 -0.10552412427E+03  0.10853576487E+04  0.10910726067E+04  0.00000000000E+00 0. -1.
         13    1    3    3    0    0  0.93289155525E+01  0.28702092452E+01 -0.29498718954E+03  0.29514862147E+03  0.00000000000E+00 0. -1.
        -14    1    3    3    0    0 -0.49453210817E+02 -0.41522445754E+02 -0.23608681912E+03  0.24475849265E+03  0.00000000000E+00 0.  1.
          5    1    4    4  501    0 -0.27327969567E+02  0.55412765092E+02  0.89288267081E+02  0.10866121430E+03  0.41800000000E+01 0.  1.
         -5    1    4    4    0  501  0.10062874137E+03  0.86115899173E+02  0.38204774701E+03  0.40437611833E+03  0.41800000000E+01 0.  1.
</event>
<event>
11    1  0.1002087E-008  0.1390765E+03  0.7561462E-02  0.1108594E+00
         22   -1    0    0    0    0  0.00000000000E+00  0.00000000000E+00  0.19012278955E+04  0.19012278955E+04  0.00000000000E+00 0. -1.
         22   -1    0    0    0    0 -0.00000000000E+00 -0.00000000000E+00 -0.44165041194E+03  0.44165041194E+03  0.00000000000E+00 0.  1.
        -24    2    1    2    0    0 -0.55425841607E+02 -0.22445278778E+02 -0.41318404054E+03  0.42516398228E+03  0.80421054544E+02 0.  0.
         25    2    1    2    0    0  0.10412796926E+03  0.32111308772E+02  0.30612607279E+03  0.34820646797E+03  0.12514312511E+03 0.  0.
         24    2    1    2    0    0 -0.48702127652E+02 -0.96660299933E+01  0.15666354513E+04  0.15695078572E+04  0.80888485675E+02 0.  0.
        -13    1    5    5    0    0 -0.42537605242E+02 -0.10974927743E+02  0.33640764237E+03  0.33926390722E+03  0.00000000000E+00 0.  1.
         14    1    5    5    0    0 -0.61645224099E+01  0.13088977498E+01  0.12302278090E+04  0.12302439500E+04  0.00000000000E+00 0. -1.
         11    1    3    3    0    0 -0.44118356371E+02  0.15391615895E+02 -0.11133620257E+03  0.12074386614E+03  0.00000000000E+00 0. -1.
        -12    1    3    3    0    0 -0.11307485236E+02 -0.37836894673E+02 -0.30184783797E+03  0.30442011614E+03  0.00000000000E+00 0.  1.
          5    1    4    4  501    0  0.54084942601E+02  0.61238698570E+02  0.78812221174E+02  0.11359664531E+03  0.41800000000E+01 0. -1.
         -5    1    4    4    0  501  0.50043026658E+02 -0.29127389798E+02  0.22731385161E+03  0.23460982266E+03  0.41800000000E+01 0. -1.
</event>
<event>
11    1  0.1002087E-008  0.1285462E+03  0.7561462E-02  0.1121068E+00
         22   -1    0    0    0    0  0.00000000000E+00  0.00000000000E+00  0.19629001170E+03  0.19629001170E+03  0.00000000000E+00 0. -1.
         22   -1    0    0    0    0 -0.00000000000E+00 -0.00000000000E+00 -0.57160606229E+03  0.57160606229E+03  0.00000000000E+00 0. -1.
        -24    2    1    2    0    0  0.45302990039E+02  0.48360115252E+02 -0.49357915093E+03  0.50426927090E+03  0.79221573418E+02 0.  0.
         25    2    1    2    0    0 -0.33904843666E+02  0.29595284277E+00  0.55730563053E+02  0.14107857610E+03  0.12509053907E+03 0.  0.
         24    2    1    2    0    0 -0.11398146372E+02 -0.48656068095E+02  0.62532537279E+02  0.12254822698E+03  0.92792343513E+02 0.  0.
        -13    1    5    5    0    0  0.35882510569E+02 -0.18199237380E+02  0.51301227056E+02  0.65196493030E+02  0.00000000000E+00 0.  1.
         14    1    5    5    0    0 -0.47280656941E+02 -0.30456830715E+02  0.11231310222E+02  0.57351733952E+02  0.00000000000E+00 0. -1.
         11    1    3    3    0    0  0.30449942194E+02  0.70395149019E+02 -0.36954922055E+03  0.37742456517E+03  0.00000000000E+00 0. -1.
        -12    1    3    3    0    0  0.14853047844E+02 -0.22035033767E+02 -0.12402993038E+03  0.12684470573E+03  0.00000000000E+00 0.  1.
          5    1    4    4  501    0 -0.33717984547E+02 -0.26483565014E+02  0.88574616991E+02  0.98494755560E+02  0.41800000000E+01 0.  1.
         -5    1    4    4    0  501 -0.18685911898E+00  0.26779517857E+02 -0.32844053938E+02  0.42583820543E+02  0.41800000000E+01 0.  1.
</event>
<event>
11    1  0.1002087E-008  0.1651813E+03  0.7561462E-02  0.1082303E+00
         22   -1    0    0    0    0  0.00000000000E+00  0.00000000000E+00  0.76209784030E+03  0.76209784030E+03  0.00000000000E+00 0.  1.
         22   -1    0    0    0    0 -0.00000000000E+00 -0.00000000000E+00 -0.20219948089E+04  0.20219948089E+04  0.00000000000E+00 0. -1.
         24    2    1    2    0    0 -0.63620665862E+00  0.16902357363E+01 -0.18726838032E+04  0.18745230702E+04  0.82999111952E+02 0.  0.
         25    2    1    2    0    0 -0.85471925325E+01 -0.10910498066E+03 -0.93436728471E+02  0.19066975694E+03  0.12509029810E+03 0.  0.
        -24    2    1    2    0    0  0.91833991911E+01  0.10741474492E+03  0.70622356307E+03  0.71889982198E+03  0.80268117976E+02 0.  0.
        -11    1    3    3    0    0 -0.10158105672E+02 -0.30419729942E+02 -0.34880978087E+03  0.35028104475E+03  0.00000000000E+00 0.  1.
         12    1    3    3    0    0  0.95218990132E+01  0.32109965678E+02 -0.15238740223E+04  0.15242420255E+04  0.00000000000E+00 0. -1.
         13    1    5    5    0    0 -0.32196180316E+02  0.20621505789E+02  0.20660555772E+03  0.21011353362E+03  0.00000000000E+00 0. -1.
        -14    1    5    5    0    0  0.41379579507E+02  0.86793239130E+02  0.49961800535E+03  0.50878628836E+03  0.00000000000E+00 0.  1.
          5    1    4    4  501    0 -0.19077377156E+02 -0.92819258884E+02  0.30459624952E+00  0.94852128694E+02  0.41800000000E+01 0.  1.
         -5    1    4    4    0  501  0.10530184623E+02 -0.16285721772E+02 -0.93741324721E+02  0.95817628244E+02  0.41800000000E+01 0.  1.
</event>
<event>
11    1  0.1002087E-008  0.1351152E+03  0.7561462E-02  0.1113139E+00
         22   -1    0    0    0    0  0.00000000000E+00  0.00000000000E+00  0.17192491655E+04  0.17192491655E+04  0.00000000000E+00 0. -1.
         22   -1    0    0    0    0 -0.00000000000E+00 -0.00000000000E+00 -0.36233563029E+03  0.36233563029E+03  0.00000000000E+00 0.  1.
        -24    2    1    2    0    0 -0.22266960214E+02 -0.40808148197E+02 -0.18453211879E+03  0.20559975453E+03  0.77833371527E+02 0.  0.
         25    2    1    2    0    0 -0.30688687331E+01  0.71437730110E+02 -0.13482749419E+03  0.19733233836E+03  0.12509528902E+03 0.  0.
         24    2    1    2    0    0  0.25335828947E+02 -0.30629581914E+02  0.16762731482E+04  0.16786527029E+04  0.80019710493E+02 0.  0.
        -13    1    5    5    0    0  0.19541971852E+02  0.12786903096E+02  0.15503283963E+03  0.15678193428E+03  0.00000000000E+00 0.  1.
         14    1    5    5    0    0  0.57938570955E+01 -0.43416485010E+02  0.15212403085E+04  0.15218707686E+04  0.00000000000E+00 0. -1.
         13    1    3    3    0    0  0.10797163642E+02 -0.27328946693E+01  0.28946132638E+01  0.11507660142E+02  0.00000000000E+00 0. -1.
        -14    1    3    3    0    0 -0.33064123856E+02 -0.38075253527E+02 -0.18742673205E+03  0.19409209439E+03  0.00000000000E+00 0.  1.
          5    1    4    4  501    0  0.30995146535E+02 -0.24995330819E+02 -0.24997297872E+02  0.47199607756E+02  0.41800000000E+01 0. -1.
         -5    1    4    4    0  501 -0.34064015268E+02  0.96433060929E+02 -0.10983019632E+03  0.15013273061E+03  0.41800000000E+01 0. -1.
</event>
<event>
11    1  0.1002087E-008  0.3262648E+03  0.7561462E-02  0.9896499E-01
         22   -1    0    0    0    0  0.00000000000E+00  0.00000000000E+00  0.11481588946E+04  0.11481588946E+04  0.00000000000E+00 0. -1.
         22   -1    0    0    0    0 -0.00000000000E+00 -0.00000000000E+00 -0.11343691322E+04  0.11343691322E+04  0.00000000000E+00 0. -1.
        -24    2    1    2    0    0 -0.21237060414E+03 -0.16593360802E+03 -0.60164875610E+03  0.66399987940E+03  0.79242528671E+02 0.  0.
         25    2    1    2    0    0  0.36364180869E+03  0.16432692426E+03 -0.40609354044E+03  0.58292236194E+03  0.12509122034E+03 0.  0.
         24    2    1    2    0    0 -0.15127120455E+03  0.16066837579E+01  0.10215320590E+04  0.10356057854E+04  0.77884764587E+02 0.  0.
        -13    1    5    5    0    0  0.65632016909E+01 -0.21902938873E+01  0.13131039414E+03  0.13149255725E+03  0.00000000000E+00 0.  1.
         14    1    5    5    0    0 -0.15783440624E+03  0.37969776452E+01  0.89022166482E+03  0.90411322816E+03  0.00000000000E+00 0. -1.
         13    1    3    3    0    0 -0.15234714755E+03 -0.75448987464E+02 -0.32443496955E+03  0.36627892725E+03  0.00000000000E+00 0. -1.
        -14    1    3    3    0    0 -0.60023456590E+02 -0.90484620551E+02 -0.27721378655E+03  0.29772095215E+03  0.00000000000E+00 0.  1.
          5    1    4    4  501    0  0.22816643317E+03  0.68188439948E+02 -0.16357987529E+03  0.28893845810E+03  0.41800000000E+01 0.  1.
         -5    1    4    4    0  501  0.13547537552E+03  0.96138484309E+02 -0.24251366514E+03  0.29398390384E+03  0.41800000000E+01 0.  1.
</event>
<event>
11    1  0.1002087E-008  0.1561360E+03  0.7561462E-02  0.1090769E+00
         22   -1    0    0    0    0  0.00000000000E+00  0.00000000000E+00  0.11495522434E+04  0.11495522434E+04  0.00000000000E+00 0.  1.
         22   -1    0    0    0    0 -0.00000000000E+00 -0.00000000000E+00 -0.30590721487E+03  0.30590721487E+03  0.00000000000E+00 0. -1.
        -24    2    1    2    0    0  0.70791602444E+02  0.70127917706E+02 -0.22539788462E+03  0.25818059282E+03  0.76965162889E+02 0.  0.
         25    2    1    2    0    0 -0.82607643453E+02  0.44039386286E+01  0.30418261027E+02  0.15302972216E+03  0.12509759321E+03 0.  0.
         24    2    1    2    0    0  0.11816041009E+02 -0.74531856334E+02  0.10386246522E+04  0.10442491433E+04  0.77591808936E+02 0.  0.
        -11    1    5    5    0    0 -0.22306539591E+02 -0.56072166257E+02  0.81932057683E+03  0.82153994252E+03  0.00000000000E+00 0.  1.
         12    1    5    5    0    0  0.34122580600E+02 -0.18459690077E+02  0.21930407533E+03  0.22270920080E+03  0.00000000000E+00 0. -1.
         13    1    3    3    0    0  0.18211779453E+00  0.19406377437E+02 -0.11997141505E+03  0.12153098815E+03  0.00000000000E+00 0. -1.
        -14    1    3    3    0    0  0.70609484650E+02  0.50721540269E+02 -0.10542646958E+03  0.13664960467E+03  0.00000000000E+00 0.  1.
          5    1    4    4  501    0 -0.72911689150E+02 -0.42880586290E+02 -0.15708773030E+02  0.86134180471E+02  0.41800000000E+01 0. -1.
         -5    1    4    4    0  501 -0.96959543033E+01  0.47284524918E+02  0.46127034058E+02  0.66895541687E+02  0.41800000000E+01 0. -1.
</event>
<event>
11    1  0.1002087E-008  0.1377808E+03  0.7561462E-02  0.1110062E+00
         22   -1    0    0    0    0  0.00000000000E+00  0.00000000000E+00  0.87959387822E+02  0.87959387822E+02  0.00000000000E+00 0.  1.
         22   -1    0    0    0    0 -0.00000000000E+00 -0.00000000000E+00 -0.15044031432E+04  0.15044031432E+04  0.00000000000E+00 0.  1.
         24    2    1    2    0    0 -0.45764922497E+02  0.35019932723E+02 -0.11038490288E+04  0.11081529388E+04  0.78736481485E+02 0.  0.
         25    2    1    2    0    0  0.74011935347E+02  0.48911249153E+01 -0.35219048213E+03  0.38103740083E+03  0.12509866288E+03 0.  0.
        -24    2    1    2    0    0 -0.28247012850E+02 -0.39911057638E+02  0.39595755611E+02  0.10317219135E+03  0.81767297556E+02 0.  0.
        -11    1    3    3    0    0 -0.18638137295E+02  0.29033941799E+02 -0.10016998146E+04  0.10022938035E+04  0.00000000000E+00 0.  1.
         12    1    3    3    0    0 -0.27126785202E+02  0.59859909240E+01 -0.10214921422E+03  0.10585913531E+03  0.00000000000E+00 0. -1.
         13    1    5    5    0    0 -0.65440891875E+01 -0.51032339701E+02 -0.56636144799E+01  0.51761001996E+02  0.00000000000E+00 0. -1.
        -14    1    5    5    0    0 -0.21702923663E+02  0.11121282062E+02  0.45259370091E+02  0.51411189359E+02  0.00000000000E+00 0.  1.
          5    1    4    4  501    0  0.92429701991E+02  0.40779530289E+02 -0.28669528687E+03  0.30400309179E+03  0.41800000000E+01 0. -1.
         -5    1    4    4    0  501 -0.18417766644E+02 -0.35888405374E+02 -0.65495195254E+02  0.77034309043E+02  0.41800000000E+01 0. -1.
</event>
<event>
11    1  0.1002087E-008  0.1500274E+03  0.7561462E-02  0.1096851E+00
         22   -1    0    0    0    0  0.00000000000E+00  0.00000000000E+00  0.26521946879E+03  0.26521946879E+03  0.00000000000E+00 0. -1.
         22   -1    0    0    0    0 -0.00000000000E+00 -0.00000000000E+00 -0.13571429194E+04  0.13571429194E+04  0.00000000000E+00 0. -1.
        -24    2    1    2    0    0 -0.48024599836E+02  0.71031753144E+02 -0.12612828490E+04  0.12667389826E+04  0.80258037720E+02 0.  0.
         25    2    1    2    0    0  0.30032863541E+02 -0.13072127942E+02 -0.29319611726E+02  0.13258770692E+03  0.12508799692E+03 0.  0.
         24    2    1    2    0    0  0.17991736294E+02 -0.57959625202E+02  0.19867901011E+03  0.22303569870E+03  0.81169902730E+02 0.  0.
        -13    1    5    5    0    0 -0.29194015013E+01  0.11233238812E+02 -0.10238787119E-01  0.11606406169E+02  0.00000000000E+00 0.  1.
         14    1    5    5    0    0  0.20911137796E+02 -0.69192864014E+02  0.19868924890E+03  0.21142929253E+03  0.00000000000E+00 0. -1.
         11    1    3    3    0    0 -0.50919367977E+02  0.55801782275E+02 -0.12244310603E+04  0.12267591624E+04  0.00000000000E+00 0. -1.
        -12    1    3    3    0    0  0.28947681414E+01  0.15229970870E+02 -0.36851788709E+02  0.39979820239E+02  0.00000000000E+00 0.  1.
          5    1    4    4  501    0 -0.67831422546E+01  0.42080979632E+01  0.46007096490E+02  0.46881173564E+02  0.41800000000E+01 0. -1.
         -5    1    4    4    0  501  0.36816005796E+02 -0.17280225905E+02 -0.75326708216E+02  0.85706533361E+02  0.41800000000E+01 0. -1.
</event>
<event>
11    1  0.1002087E-008  0.1379155E+03  0.7561462E-02  0.1109909E+00
         22   -1    0    0    0    0  0.00000000000E+00  0.00000000000E+00  0.23402232219E+03  0.23402232219E+03  0.00000000000E+00 0.  1.
         22   -1    0    0    0    0 -0.00000000000E+00 -0.00000000000E+00 -0.12837199820E+04  0.12837199820E+04  0.00000000000E+00 0.  1.
        -24    2    1    2    0    0  0.11610312081E+02 -0.10615696959E+02 -0.11780306269E+04  0.11808769722E+04  0.80416250546E+02 0.  0.
         25    2    1    2    0    0  0.10177650897E+02 -0.45266981861E+02 -0.41178244260E+02  0.13961443385E+03  0.12507540972E+03 0.  0.
         24    2    1    2    0    0 -0.21787962978E+02  0.55882678820E+02  0.16951121135E+03  0.19725089806E+03  0.81094246951E+02 0.  0.
        -11    1    5    5    0    0 -0.47624168205E+02  0.18499191096E+02  0.11784630122E+03  0.12844466583E+03  0.00000000000E+00 0.  1.
         12    1    5    5    0    0  0.25836205227E+02  0.37383487724E+02  0.51664910131E+02  0.68806232231E+02  0.00000000000E+00 0. -1.
         13    1    3    3    0    0 -0.11147544559E+02 -0.40683186132E+02 -0.75137975324E+03  0.75256290299E+03  0.00000000000E+00 0. -1.
        -14    1    3    3    0    0  0.22757856640E+02  0.30067489173E+02 -0.42665087363E+03  0.42831406925E+03  0.00000000000E+00 0.  1.
          5    1    4    4  501    0  0.48035033398E+02 -0.71981478617E+02 -0.22750212089E+02  0.89575343971E+02  0.41800000000E+01 0.  1.
         -5    1    4    4    0  501 -0.37857382501E+02  0.26714496756E+02 -0.18428032172E+02  0.50039089884E+02  0.41800000000E+01 0.  1.
</event>
<event>
11    1  0.1002087E-008  0.1577965E+03  0.7561462E-02  0.1089168E+00
         22   -1    0    0    0    0  0.00000000000E+00  0.00000000000E+00  0.10082366451E+04  0.10082366451E+04  0.00000000000E+00 0. -1.
         22   -1    0    0    0    0 -0.00000000000E+00 -0.00000000000E+00 -0.36271862441E+03  0.36271862441E+03  0.00000000000E+00 0. -1.
         24    2    1    2    0    0 -0.60205853237E+02 -0.20084870759E+02 -0.32084382072E+03  0.33710711909E+03  0.81684182399E+02 0.  0.
         25    2    1    2    0    0 -0.12482887089E+02 -0.54998192537E+02  0.13536947101E+03  0.19275654699E+03  0.12509823769E+03 0.  0.
        -24    2    1    2    0    0  0.72688740326E+02  0.75083063296E+02  0.83099237044E+03  0.84109160348E+03  0.77237596750E+02 0.  0.
        -13    1    3    3    0    0 -0.87600757901E+01 -0.15194861980E+01  0.24478533093E+01  0.92217000590E+01  0.00000000000E+00 0.  1.
         14    1    3    3    0    0 -0.51445777446E+02 -0.18565384561E+02 -0.32329167402E+03  0.32788541903E+03  0.00000000000E+00 0. -1.
         13    1    5    5    0    0  0.21067774938E+02  0.49871546085E+02  0.19095966698E+03  0.19848580973E+03  0.00000000000E+00 0. -1.
        -14    1    5    5    0    0  0.51620965388E+02  0.25211517211E+02  0.64003270346E+03  0.64260579375E+03  0.00000000000E+00 0.  1.
          5    1    4    4  501    0  0.34702724832E+02  0.13463134512E+02  0.91025796827E+02  0.98431210445E+02  0.41800000000E+01 0.  1.
         -5    1    4    4    0  501 -0.47185611922E+02 -0.68461327049E+02  0.44343674186E+02  0.94325336544E+02  0.41800000000E+01 0.  1.
</event>
<event>
11    1  0.1002087E-008  0.1599471E+03  0.7561462E-02  0.1087127E+00
         22   -1    0    0    0    0  0.00000000000E+00  0.00000000000E+00  0.81260095245E+03  0.81260095245E+03  0.00000000000E+00 0.  1.
         22   -1    0    0    0    0 -0.00000000000E+00 -0.00000000000E+00 -0.36186742051E+03  0.36186742051E+03  0.00000000000E+00 0. -1.
         24    2    1    2    0    0 -0.12712096472E+02  0.10809579193E+03 -0.29344067767E+03  0.32282296818E+03  0.79126100892E+02 0.  0.
         25    2    1    2    0    0 -0.16618565940E+02 -0.45292011630E+02  0.40494280169E+02  0.14005262849E+03  0.12508960376E+03 0.  0.
        -24    2    1    2    0    0  0.29330662412E+02 -0.62803780295E+02  0.70367992944E+03  0.71159277629E+03  0.79963951856E+02 0.  0.
        -13    1    3    3    0    0 -0.23527324146E+02  0.51538696898E+02 -0.23116306254E+03  0.23800448261E+03  0.00000000000E+00 0.  1.
         14    1    3    3    0    0  0.10815227674E+02  0.56557095027E+02 -0.62277615128E+02  0.84818485566E+02  0.00000000000E+00 0. -1.
         13    1    5    5    0    0  0.17359910386E+02 -0.40159983215E+02  0.12663914429E+03  0.13398381846E+03  0.00000000000E+00 0. -1.
        -14    1    5    5    0    0  0.11970752026E+02 -0.22643797081E+02  0.57704078515E+03  0.57760895784E+03  0.00000000000E+00 0.  1.
          5    1    4    4  501    0 -0.41018052274E+02 -0.71475107086E+02 -0.42253352956E+01  0.82622620411E+02  0.41800000000E+01 0. -1.
         -5    1    4    4    0  501  0.24399486333E+02  0.26183095456E+02  0.44719615465E+02  0.57430008082E+02  0.41800000000E+01 0. -1.
</event>
<event>
11    1  0.1002087E-008  0.1443668E+03  0.7561462E-02  0.1102778E+00
         22   -1    0    0    0    0  0.00000000000E+00  0.00000000000E+00  0.58270733614E+03  0.58270733614E+03  0.00000000000E+00 0. -1.
         22   -1    0    0    0    0 -0.00000000000E+00 -0.00000000000E+00 -0.28886308283E+03  0.28886308283E+03  0.00000000000E+00 0. -1.
        -24    2    1    2    0    0 -0.25090248443E+02  0.47228882525E+02 -0.20338436825E+03  0.22563095522E+03  0.81755971010E+02 0.  0.
         25    2    1    2    0    0  0.32078079455E+02 -0.11497189957E+03  0.40826332400E+02  0.17765272839E+03  0.12508461782E+03 0.  0.
         24    2    1    2    0    0 -0.69878310123E+01  0.67743017045E+02  0.45640228916E+03  0.46828673535E+03  0.79696115454E+02 0.  0.
        -13    1    5    5    0    0  0.28565831271E+02  0.18024809282E+01  0.95778925219E+02  0.99964284471E+02  0.00000000000E+00 0.  1.
         14    1    5    5    0    0 -0.35553662283E+02  0.65940536117E+02  0.36062336394E+03  0.36832245088E+03  0.00000000000E+00 0. -1.
         13    1    3    3    0    0 -0.19478643635E+02 -0.13408396763E+02 -0.12039848659E+03  0.12269881106E+03  0.00000000000E+00 0. -1.
        -14    1    3    3    0    0 -0.56116048074E+01  0.60637279288E+02 -0.82985881654E+02  0.10293214416E+03  0.00000000000E+00 0.  1.
          5    1    4    4  501    0  0.51769428673E+02 -0.95795505307E+02  0.75973155712E+02  0.13283917107E+03  0.41800000000E+01 0.  1.
         -5    1    4    4    0  501 -0.19691349218E+02 -0.19176394263E+02 -0.35146823312E+02  0.44813557322E+02  0.41800000000E+01 0.  1.
</event>
<event>
11    1  0.1002087E-008  0.1709679E+03  0.7561462E-02  0.1077192E+00
         22   -1    0    0    0    0  0.00000000000E+00  0.00000000000E+00  0.30399854800E+03  0.30399854800E+03  0.00000000000E+00 0.  1.
         22   -1    0    0    0    0 -0.00000000000E+00 -0.00000000000E+00 -0.34698285731E+03  0.34698285731E+03  0.00000000000E+00 0. -1.
        -24    2    1    2    0    0  0.58101361071E+02  0.85836549871E+02 -0.16911020249E+03  0.21366233407E+03  0.79433311416E+02 0.  0.
         25    2    1    2    0    0 -0.15459857246E+03 -0.92329552540E+02 -0.45689987028E+02  0.22396567969E+03  0.12509031091E+03 0.  0.
         24    2    1    2    0    0  0.96497211392E+02  0.64930026690E+01  0.17181588021E+03  0.21335339154E+03  0.81517495679E+02 0.  0.
        -13    1    5    5    0    0  0.10198220543E+03  0.11672022108E+02  0.17671080360E+03  0.20436074583E+03  0.00000000000E+00 0.  1.
         14    1    5    5    0    0 -0.54849940409E+01 -0.51790194394E+01 -0.48949233937E+01  0.89926457182E+01  0.00000000000E+00 0. -1.
         13    1    3    3    0    0  0.37131124680E+02  0.86479308105E+01 -0.10320575331E+03  0.11002242792E+03  0.00000000000E+00 0. -1.
        -14    1    3    3    0    0  0.20970236391E+02  0.77188619060E+02 -0.65904449174E+02  0.10363990615E+03  0.00000000000E+00 0.  1.
          5    1    4    4  501    0 -0.17388071226E+03 -0.96745366323E+02 -0.40831136206E+02  0.20317190279E+03  0.41800000000E+01 0. -1.
         -5    1    4    4    0  501  0.19282139794E+02  0.44158137831E+01 -0.48588508216E+01  0.20793776899E+02  0.41800000000E+01 0. -1.
</event>
<event>
11    1  0.1002087E-008  0.1634034E+03  0.7561462E-02  0.1083919E+00
         22   -1    0    0    0    0  0.00000000000E+00  0.00000000000E+00  0.14002047725E+03  0.14002047725E+03  0.00000000000E+00 0.  1.
         22   -1    0    0    0    0 -0.00000000000E+00 -0.00000000000E+00 -0.17053619155E+04  0.17053619155E+04  0.00000000000E+00 0.  1.
         24    2    1    2    0    0 -0.89165049615E+01  0.32412036112E+02 -0.13927158760E+04  0.13953332707E+04  0.78532674435E+02 0.  0.
         25    2    1    2    0    0  0.12622807875E+01 -0.13330004954E+03 -0.24194486598E+03  0.30324441052E+03  0.12509739317E+03 0.  0.
        -24    2    1    2    0    0  0.76542241739E+01  0.10088801343E+03  0.69319303701E+02  0.14680471155E+03  0.80681342739E+02 0.  0.
        -13    1    3    3    0    0  0.31874241665E+02 -0.20165155144E+01 -0.48770212902E+03  0.48874676497E+03  0.00000000000E+00 0.  1.
         14    1    3    3    0    0 -0.40790746626E+02  0.34428551626E+02 -0.90501374693E+03  0.90658650570E+03  0.00000000000E+00 0. -1.
         11    1    5    5    0    0  0.19823917982E+02  0.49999886816E+02 -0.70333421276E+01  0.54244302071E+02  0.00000000000E+00 0. -1.
        -12    1    5    5    0    0 -0.12169693809E+02  0.50888126612E+02  0.76352645829E+02  0.92560409477E+02  0.00000000000E+00 0.  1.
          5    1    4    4  501    0  0.58830074541E+02 -0.95209614114E+02 -0.16887853062E+03  0.20264076291E+03  0.41800000000E+01 0.  1.
         -5    1    4    4    0  501 -0.57567793754E+02 -0.38090435425E+02 -0.73066335360E+02  0.10060364761E+03  0.41800000000E+01 0.  1.
</event>
<event>
11    1  0.1002087E-008  0.1368534E+03  0.7561462E-02  0.1111124E+00
         22   -1    0    0    0    0  0.00000000000E+00  0.00000000000E+00  0.40126921077E+03  0.40126921077E+03  0.00000000000E+00 0. -1.
         22   -1    0    0    0    0 -0.00000000000E+00 -0.00000000000E+00 -0.13544970814E+03  0.13544970814E+03  0.00000000000E+00 0. -1.
         24    2    1    2    0    0  0.15625358689E+02 -0.33319298304E+02 -0.75515789476E+02  0.11716924512E+03  0.81680291797E+02 0.  0.
         25    2    1    2    0    0  0.35496771569E+02  0.53686351111E+02  0.15166599584E+03  0.20687906360E+03  0.12511645605E+03 0.  0.
        -24    2    1    2    0    0 -0.51122130258E+02 -0.20367052807E+02  0.18966929626E+03  0.21267061019E+03  0.78905370221E+02 0.  0.
        -13    1    3    3    0    0 -0.58332735492E+01 -0.25589608741E+02  0.10434471316E+02  0.28244173691E+02  0.00000000000E+00 0.  1.
         14    1    3    3    0    0  0.21458632238E+02 -0.77296895631E+01 -0.85950260793E+02  0.88925071429E+02  0.00000000000E+00 0. -1.
         11    1    5    5    0    0 -0.16019291728E+02 -0.19188196037E+02  0.17114802659E+03  0.17296372909E+03  0.00000000000E+00 0. -1.
        -12    1    5    5    0    0 -0.35102838530E+02 -0.11788567699E+01  0.18521269673E+02  0.39706881097E+02  0.00000000000E+00 0.  1.
          5    1    4    4  501    0 -0.21798915531E+01  0.15603846346E+02  0.15227224332E+03  0.15314222290E+03  0.41800000000E+01 0. -1.
         -5    1    4    4    0  501  0.37676663122E+02  0.38082504765E+02 -0.60624747564E+00  0.53736840707E+02  0.41800000000E+01 0. -1.
</event>
<event>
11    1  0.1002087E-008  0.1632458E+03  0.7561462E-02  0.1084064E+00
         22   -1    0    0    0    0  0.00000000000E+00  0.00000000000E+00  0.30564680921E+03  0.30564680921E+03  0.00000000000E+00 0. -1.
         22   -1    0    0    0    0 -0.00000000000E+00 -0.00000000000E+00 -0.14863600091E+03  0.14863600091E+03  0.00000000000E+00 0. -1.
        -24    2    1    2    0    0  0.68684080062E+01 -0.14543072262E+01 -0.42809951789E+02  0.91195962292E+02  0.80216716014E+02 0.  0.
         25    2    1    2    0    0 -0.10727718072E+03  0.21925833647E+02  0.75719442590E+02  0.18267075088E+03  0.12508410593E+03 0.  0.
         24    2    1    2    0    0  0.10040877272E+03 -0.20471526420E+02  0.12410131750E+03  0.18041609695E+03  0.81534201412E+02 0.  0.
        -13    1    5    5    0    0  0.10579951464E+00  0.15451203383E+02  0.45403038466E+02  0.47960262525E+02  0.00000000000E+00 0.  1.
         14    1    5    5    0    0  0.10030297320E+03 -0.35922729803E+02  0.78698279037E+02  0.13245583442E+03  0.00000000000E+00 0. -1.
         11    1    3    3    0    0  0.11173923174E+02 -0.37053510842E+02 -0.39314358289E+02  0.55167363472E+02  0.00000000000E+00 0. -1.
        -12    1    3    3    0    0 -0.43055151674E+01  0.35599203616E+02 -0.34955935005E+01  0.36028598819E+02  0.00000000000E+00 0.  1.
          5    1    4    4  501    0 -0.79327519801E+02 -0.58209401798E+01  0.10616054549E+03  0.13271877245E+03  0.41800000000E+01 0. -1.
         -5    1    4    4    0  501 -0.27949660921E+02  0.27746773826E+02 -0.30441102898E+02  0.49951978430E+02  0.41800000000E+01 0. -1.
</event>
<event>
11    1  0.1002087E-008  0.3379706E+03  0.7561462E-02  0.9852897E-01
         22   -1    0    0    0    0  0.00000000000E+00  0.00000000000E+00  0.68000670159E+03  0.68000670159E+03  0.00000000000E+00 0. -1.
         22   -1    0    0    0    0 -0.00000000000E+00 -0.00000000000E+00 -0.67621626158E+03  0.67621626158E+03  0.00000000000E+00 0. -1.
         24    2    1    2    0    0 -0.21260365678E+02  0.16168343707E+02 -0.47423995011E+03  0.48126902168E+03  0.77478529063E+02 0.  0.
         25    2    1    2    0    0  0.13155721938E+03 -0.30333493522E+03  0.74680219347E+02  0.36132037338E+03  0.12512350762E+03 0.  0.
        -24    2    1    2    0    0 -0.11029685370E+03  0.28716659152E+03  0.40335017076E+03  0.51363356811E+03  0.80610389010E+02 0.  0.
        -13    1    3    3    0    0 -0.16745162746E+02  0.17436720603E+02 -0.38220827985E+02  0.45224676811E+02  0.00000000000E+00 0.  1.
         14    1    3    3    0    0 -0.45152029314E+01 -0.12683768966E+01 -0.43601912212E+03  0.43604434487E+03  0.00000000000E+00 0. -1.
         13    1    5    5    0    0 -0.24705239775E+02  0.16039326022E+03  0.24128105677E+03  0.29077980527E+03  0.00000000000E+00 0. -1.
        -14    1    5    5    0    0 -0.85591613926E+02  0.12677333129E+03  0.16206911400E+03  0.22285376284E+03  0.00000000000E+00 0.  1.
          5    1    4    4  501    0  0.36312059407E+02 -0.20815219155E+03  0.81311113498E+02  0.22643955062E+03  0.41800000000E+01 0.  1.
         -5    1    4    4    0  501  0.95245159971E+02 -0.95182743671E+02 -0.66308941511E+01  0.13488082276E+03  0.41800000000E+01 0.  1.
</event>
<event>
11    1  0.1002087E-008  0.1451026E+03  0.7561462E-02  0.1101991E+00
         22   -1    0    0    0    0  0.00000000000E+00  0.00000000000E+00  0.13817834351E+03  0.13817834351E+03  0.00000000000E+00 0.  1.
         22   -1    0    0    0    0 -0.00000000000E+00 -0.00000000000E+00 -0.70030774222E+03  0.70030774222E+03  0.00000000000E+00 0.  1.
        -24    2    1    2    0    0  0.51522745607E+02 -0.36681389659E+02 -0.28546933847E+03  0.30341081819E+03  0.81026315046E+02 0.  0.
         25    2    1    2    0    0 -0.56489948169E+02  0.75082834770E+02 -0.37276932980E+03  0.40427056074E+03  0.12509662952E+03 0.  0.
         24    2    1    2    0    0  0.49672025618E+01 -0.38401445111E+02  0.96109269557E+02  0.13080470680E+03  0.79834425767E+02 0.  0.
        -11    1    5    5    0    0  0.21831855378E+02  0.91361289860E+01  0.70234850710E+02  0.74114998592E+02  0.00000000000E+00 0.  1.
         12    1    5    5    0    0 -0.16864652816E+02 -0.47537574097E+02  0.25874418847E+02  0.56689708205E+02  0.00000000000E+00 0. -1.
         11    1    3    3    0    0  0.55238706008E+02  0.50730045150E+01 -0.11247493867E+03  0.12540997506E+03  0.00000000000E+00 0. -1.
        -12    1    3    3    0    0 -0.37159604007E+01 -0.41754394174E+02 -0.17299439979E+03  0.17800084313E+03  0.00000000000E+00 0.  1.
          5    1    4    4  501    0  0.22388353522E+02 -0.17341698418E+02 -0.12556085683E+03  0.12878266205E+03  0.41800000000E+01 0. -1.
         -5    1    4    4    0  501 -0.78878301691E+02  0.92424533189E+02 -0.24720847297E+03  0.27548789869E+03  0.41800000000E+01 0. -1.
</event>
<event>
11    1  0.1462408E-008  0.1714614E+03  0.7561462E-02  0.1076767E+00
         22   -1    0    0    0    0  0.00000000000E+00  0.00000000000E+00  0.12525590730E+03  0.12525590730E+03  0.00000000000E+00 0.  1.
         22   -1    0    0    0    0 -0.00000000000E+00 -0.00000000000E+00 -0.22246913031E+04  0.22246913031E+04  0.00000000000E+00 0.  1.
         24    2    1    2    0    0 -0.28983070668E+02 -0.83256685491E+02 -0.15121773994E+04  0.15169170893E+04  0.81149705571E+02 0.  0.
         25    2    1    2    0    0  0.13785514276E+03  0.39310472772E+02 -0.64875606699E+03  0.67607763175E+03  0.12508867274E+03 0.  0.
        -24    2    1    2    0    0 -0.10887207209E+03  0.43946212719E+02  0.61498070579E+02  0.15695248929E+03  0.84069456494E+02 0.  0.
        -13    1    3    3    0    0 -0.71059687480E+01 -0.66632223173E+02 -0.13930987210E+04  0.13947094301E+04  0.00000000000E+00 0.  1.
         14    1    3    3    0    0 -0.21877101920E+02 -0.16624462319E+02 -0.11907867839E+03  0.12220765927E+03  0.00000000000E+00 0. -1.
         13    1    5    5    0    0  0.31263885380E+01 -0.60052292697E+01 -0.12146492793E+02  0.13905911370E+02  0.00000000000E+00 0. -1.
        -14    1    5    5    0    0 -0.11199846063E+03  0.49951441989E+02  0.73644563371E+02  0.14304657792E+03  0.00000000000E+00 0.  1.
          5    1    4    4  501    0  0.13562366230E+03 -0.13937454559E+02 -0.44594525249E+03  0.46633965201E+03  0.41800000000E+01 0.  1.
         -5    1    4    4    0  501  0.22314804541E+01  0.53247927332E+02 -0.20281081449E+03  0.20973797974E+03  0.41800000000E+01 0.  1.
</event>
<event>
11    1  0.1002087E-008  0.1373630E+03  0.7561462E-02  0.1110539E+00
         22   -1    0    0    0    0  0.00000000000E+00  0.00000000000E+00  0.35640609803E+03  0.35640609803E+03  0.00000000000E+00 0.  1.
         22   -1    0    0    0    0 -0.00000000000E+00 -0.00000000000E+00 -0.41035373202E+03  0.41035373202E+03  0.00000000000E+00 0. -1.
         24    2    1    2    0    0 -0.49310775098E+02 -0.74396411292E+01 -0.31304312932E+03  0.32688909600E+03  0.79834700920E+02 0.  0.
         25    2    1    2    0    0 -0.19158794654E+01  0.39019074366E+02 -0.29775758594E+02  0.13438744189E+03  0.12508888831E+03 0.  0.
        -24    2    1    2    0    0  0.51226654563E+02 -0.31579433236E+02  0.28887125392E+03  0.30548329216E+03  0.79069650996E+02 0.  0.
        -11    1    3    3    0    0 -0.26874667105E+01  0.86814776052E+01  0.86432793349E+00  0.91289426281E+01  0.00000000000E+00 0.  1.
         12    1    3    3    0    0 -0.46623308387E+02 -0.16121118734E+02 -0.31390745725E+03  0.31776015338E+03  0.00000000000E+00 0. -1.
         13    1    5    5    0    0  0.24201540028E+02  0.67317602276E+01  0.18809139979E+02  0.31381760343E+02  0.00000000000E+00 0. -1.
        -14    1    5    5    0    0  0.27025114535E+02 -0.38311193464E+02  0.27006211394E+03  0.27410153182E+03  0.00000000000E+00 0.  1.
          5    1    4    4  501    0  0.15795892405E+02  0.68688079978E+01 -0.74384537685E+02  0.76467134030E+02  0.41800000000E+01 0.  1.
         -5    1    4    4    0  501 -0.17711771870E+02  0.32150266368E+02  0.44608779091E+02  0.57920307857E+02  0.41800000000E+01 0.  1.
</event>
<event>
11    1  0.1002087E-008  0.1618622E+03  0.7561462E-02  0.1085339E+00
         22   -1    0    0    0    0  0.00000000000E+00  0.00000000000E+00  0.14565297107E+04  0.14565297107E+04  0.00000000000E+00 0. -1.
         22   -1    0    0    0    0 -0.00000000000E+00 -0.00000000000E+00 -0.28795049714E+03  0.28795049714E+03  0.00000000000E+00 0.  1.
         24    2    1    2    0    0  0.61897400117E+02  0.78841761669E+02 -0.24694647352E+03  0.27793084398E+03  0.78839594934E+02 0.  0.
         25    2    1    2    0    0 -0.10650533124E+03  0.20874848220E+02  0.29891643863E+03  0.34172786983E+03  0.12509098635E+03 0.  0.
        -24    2    1    2    0    0  0.44607931121E+02 -0.99716609889E+02  0.11166092484E+04  0.11248214940E+04  0.80460610706E+02 0.  0.
        -11    1    3    3    0    0  0.71730059100E+02  0.86667578593E+02 -0.23523567113E+03  0.26075331547E+03  0.00000000000E+00 0.  1.
         12    1    3    3    0    0 -0.98326589821E+01 -0.78258169237E+01 -0.11710802391E+02  0.17177528513E+02  0.00000000000E+00 0. -1.
         11    1    5    5    0    0  0.59385765489E+02 -0.10161351410E+03  0.10494740926E+04  0.10560529563E+04  0.00000000000E+00 0. -1.
        -12    1    5    5    0    0 -0.14777834368E+02  0.18969042072E+01  0.67135155815E+02  0.68768537722E+02  0.00000000000E+00 0.  1.
          5    1    4    4  501    0 -0.13423082016E+03  0.20556070314E+02  0.26434652253E+03  0.29721544624E+03  0.41800000000E+01 0. -1.
         -5    1    4    4    0  501  0.27725488919E+02  0.31877790661E+00  0.34569916103E+02  0.44512423598E+02  0.41800000000E+01 0. -1.
</event>
<event>
11    1  0.1002087E-008  0.1502114E+03  0.7561462E-02  0.1096663E+00
         22   -1    0    0    0    0  0.00000000000E+00  0.00000000000E+00  0.17167490593E+04  0.17167490593E+04  0.00000000000E+00 0.  1.
         22   -1    0    0    0    0 -0.00000000000E+00 -0.00000000000E+00 -0.12320300816E+04  0.12320300816E+04  0.00000000000E+00 0. -1.
         24    2    1    2    0    0  0.29137318851E+02  0.19564222287E+02 -0.11833381811E+04  0.11867193236E+04  0.82351441038E+02 0.  0.
         25    2    1    2    0    0 -0.93586891866E+02 -0.69589025940E+02  0.11804122888E+03  0.20780237489E+03  0.12508779491E+03 0.  0.
        -24    2    1    2    0    0  0.64449573014E+02  0.50024803653E+02  0.15500159299E+04  0.15542574424E+04  0.80688201445E+02 0.  0.
        -13    1    3    3    0    0 -0.31603689961E+01  0.28006939216E+02 -0.13802722185E+03  0.14087544338E+03  0.00000000000E+00 0.  1.
         14    1    3    3    0    0  0.32297687847E+02 -0.84427169289E+01 -0.10453109593E+04  0.10458438802E+04  0.00000000000E+00 0. -1.
         13    1    5    5    0    0 -0.13250693022E+02  0.56973865431E+01  0.66468384343E+02  0.68015345299E+02  0.00000000000E+00 0. -1.
        -14    1    5    5    0    0  0.77700266037E+02  0.44327417110E+02  0.14835475456E+04  0.14862420971E+04  0.00000000000E+00 0.  1.
          5    1    4    4  501    0 -0.29598486516E+02 -0.80769516134E+02  0.17272435233E+02  0.87838457178E+02  0.41800000000E+01 0.  1.
         -5    1    4    4    0  501 -0.63988405349E+02  0.11180490194E+02  0.10076879364E+03  0.11996391771E+03  0.41800000000E+01 0.  1.
</event>
<event>
11    1  0.1002087E-008  0.2107963E+03  0.7561462E-02  0.1047141E+00
         22   -1    0    0    0    0  0.00000000000E+00  0.00000000000E+00  0.44146509038E+03  0.44146509038E+03  0.00000000000E+00 0. -1.
         22   -1    0    0    0    0 -0.00000000000E+00 -0.00000000000E+00 -0.93767934075E+03  0.93767934075E+03  0.00000000000E+00 0. -1.
         24    2    1    2    0    0  0.13752424987E+03  0.99911037555E+02 -0.84043030394E+03  0.86115223698E+03  0.79780603854E+02 0.  0.
         25    2    1    2    0    0 -0.12206681515E+03 -0.11389347285E+03  0.52737951433E+02  0.21516432429E+03  0.12506943834E+03 0.  0.
        -24    2    1    2    0    0 -0.15457434717E+02  0.13982435299E+02  0.29147810214E+03  0.30282786986E+03  0.79440505761E+02 0.  0.
        -13    1    3    3    0    0  0.18579608259E+02  0.55459245876E+02 -0.20615657079E+03  0.21429293380E+03  0.00000000000E+00 0.  1.
         14    1    3    3    0    0  0.11894464161E+03  0.44451791680E+02 -0.63427373314E+03  0.64685930318E+03  0.00000000000E+00 0. -1.
         11    1    5    5    0    0 -0.10973594846E+02  0.45952932200E+02  0.20861875046E+03  0.21390155400E+03  0.00000000000E+00 0. -1.
        -12    1    5    5    0    0 -0.44838398711E+01 -0.31970496901E+02  0.82859351680E+02  0.88926315862E+02  0.00000000000E+00 0.  1.
          5    1    4    4  501    0 -0.59087019109E+02  0.11371136485E+02 -0.10631475018E+02  0.61246054837E+02  0.41800000000E+01 0.  1.
         -5    1    4    4    0  501 -0.62979796041E+02 -0.12526460934E+03  0.63369426450E+02  0.15391826945E+03  0.41800000000E+01 0.  1.
</event>
<event>
11    1  0.1002087E-008  0.1871692E+03  0.7561462E-02  0.1063987E+00
         22   -1    0    0    0    0  0.00000000000E+00  0.00000000000E+00  0.34744767880E+03  0.34744767880E+03  0.00000000000E+00 0.  1.
         22   -1    0    0    0    0 -0.00000000000E+00 -0.00000000000E+00 -0.86580762927E+03  0.86580762927E+03  0.00000000000E+00 0. -1.
         24    2    1    2    0    0  0.55016662699E+02 -0.19068471850E+02 -0.49899347301E+03  0.50890929904E+03  0.81263452704E+02 0.  0.
         25    2    1    2    0    0  0.87320028630E+02  0.15688662707E+02 -0.32406003881E+03  0.35851582589E+03  0.12509103533E+03 0.  0.
        -24    2    1    2    0    0 -0.14233669133E+03  0.33798091428E+01  0.30469356135E+03  0.34583018314E+03  0.80555523934E+02 0.  0.
        -11    1    3    3    0    0  0.23075966482E+02  0.30608126326E+02 -0.14291992176E+03  0.14797115145E+03  0.00000000000E+00 0.  1.
         12    1    3    3    0    0  0.31940696217E+02 -0.49676598176E+02 -0.35607355125E+03  0.36093814759E+03  0.00000000000E+00 0. -1.
         13    1    5    5    0    0 -0.43833291973E+02 -0.30224866429E+02  0.15186473874E+03  0.16092793079E+03  0.00000000000E+00 0. -1.
        -14    1    5    5    0    0 -0.98503399356E+02  0.33604675572E+02  0.15282882261E+03  0.18490225236E+03  0.00000000000E+00 0.  1.
          5    1    4    4  501    0  0.33365603334E+02  0.20611305977E+02 -0.11239615003E+02  0.41010861553E+02  0.41800000000E+01 0.  1.
         -5    1    4    4    0  501  0.53954425297E+02 -0.49226432698E+01 -0.31282042381E+03  0.31750496434E+03  0.41800000000E+01 0.  1.
</event>
<event>
11    1  0.1002087E-008  0.1419600E+03  0.7561462E-02  0.1105389E+00
         22   -1    0    0    0    0  0.00000000000E+00  0.00000000000E+00  0.11767768438E+04  0.11767768438E+04  0.00000000000E+00 0.  1.
         22   -1    0    0    0    0 -0.00000000000E+00 -0.00000000000E+00 -0.23951667575E+03  0.23951667575E+03  0.00000000000E+00 0. -1.
        -24    2    1    2    0    0 -0.26644638292E+02 -0.17280883531E+02 -0.20471262266E+03  0.21881629326E+03  0.70460958246E+02 0.  0.
         25    2    1    2    0    0 -0.70084361069E+01  0.75058828152E+02  0.18889278004E+03  0.23877664907E+03  0.12510339696E+03 0.  0.
         24    2    1    2    0    0  0.33653074399E+02 -0.57777944621E+02  0.95308001065E+03  0.95870057719E+03  0.79211550390E+02 0.  0.
        -11    1    5    5    0    0 -0.79322523240E+01 -0.21014174184E+02  0.66168806909E+03  0.66206919346E+03  0.00000000000E+00 0.  1.
         12    1    5    5    0    0  0.41585326723E+02 -0.36763770437E+02  0.29139194155E+03  0.29663138374E+03  0.00000000000E+00 0. -1.
         13    1    3    3    0    0 -0.17136386789E+02 -0.20318333726E+02 -0.20689789774E+03  0.20859825150E+03  0.00000000000E+00 0. -1.
        -14    1    3    3    0    0 -0.95082515031E+01  0.30374501953E+01  0.21852750850E+01  0.10218041766E+02  0.00000000000E+00 0.  1.
          5    1    4    4  501    0 -0.36297564458E+02  0.26057385819E+02  0.17391119711E+03  0.17960812182E+03  0.41800000000E+01 0.  1.
         -5    1    4    4    0  501  0.29289128352E+02  0.49001442333E+02  0.14981582926E+02  0.59168527253E+02  0.41800000000E+01 0.  1.
</event>
<event>
11    1  0.1002087E-008  0.1509762E+03  0.7561462E-02  0.1095885E+00
         22   -1    0    0    0    0  0.00000000000E+00  0.00000000000E+00  0.19754105119E+03  0.19754105119E+03  0.00000000000E+00 0.  1.
         22   -1    0    0    0    0 -0.00000000000E+00 -0.00000000000E+00 -0.73402353815E+03  0.73402353815E+03  0.00000000000E+00 0.  1.
         24    2    1    2    0    0 -0.72693183545E+02 -0.44453283050E+02 -0.62529177679E+03  0.63623485409E+03  0.80898641117E+02 0.  0.
         25    2    1    2    0    0  0.94708194880E+02 -0.13575065211E+02 -0.46335880287E+01  0.15755131371E+03  0.12508805594E+03 0.  0.
        -24    2    1    2    0    0 -0.22015011335E+02  0.58028348261E+02  0.93442877863E+02  0.13777842154E+03  0.79996075490E+02 0.  0.
        -11    1    3    3    0    0 -0.81054788292E+02 -0.47646723651E+02 -0.40536562289E+03  0.41612663602E+03  0.00000000000E+00 0.  1.
         12    1    3    3    0    0  0.83616047474E+01  0.31934406006E+01 -0.21992615389E+03  0.22010821807E+03  0.00000000000E+00 0. -1.
         11    1    5    5    0    0 -0.25488785671E+02  0.69313298361E+02  0.41918896989E+02  0.84918816816E+02  0.00000000000E+00 0. -1.
        -12    1    5    5    0    0  0.34737743355E+01 -0.11284950100E+02  0.51523980873E+02  0.52859604727E+02  0.00000000000E+00 0.  1.
          5    1    4    4  501    0  0.11760734683E+03  0.13024967939E+02  0.10982537067E+02  0.11890847884E+03  0.41800000000E+01 0.  1.
         -5    1    4    4    0  501 -0.22899151953E+02 -0.26600033150E+02 -0.15616125096E+02  0.38642834869E+02  0.41800000000E+01 0.  1.
</event>
<event>
11    1  0.1002087E-008  0.1290202E+03  0.7561462E-02  0.1120479E+00
         22   -1    0    0    0    0  0.00000000000E+00  0.00000000000E+00  0.92027600338E+03  0.92027600338E+03  0.00000000000E+00 0.  1.
         22   -1    0    0    0    0 -0.00000000000E+00 -0.00000000000E+00 -0.20722449715E+04  0.20722449715E+04  0.00000000000E+00 0.  1.
        -24    2    1    2    0    0  0.28986204739E+02 -0.10705484617E+02 -0.18995397870E+04  0.19015536978E+04  0.81855091695E+02 0.  0.
         25    2    1    2    0    0 -0.54856366230E+02 -0.28104815152E+01 -0.14265779689E+03  0.19752432045E+03  0.12508992939E+03 0.  0.
         24    2    1    2    0    0  0.25870161491E+02  0.13515966133E+02  0.89022861570E+03  0.89344295662E+03  0.69866887229E+02 0.  0.
        -11    1    5    5    0    0  0.15471052571E+02  0.35215644182E+02  0.76237284526E+03  0.76334255105E+03  0.00000000000E+00 0.  1.
         12    1    5    5    0    0  0.10399108920E+02 -0.21699678049E+02  0.12785577044E+03  0.13010040557E+03  0.00000000000E+00 0. -1.
         13    1    3    3    0    0  0.79645867605E+00 -0.43467669062E+02 -0.82441637165E+03  0.82556188529E+03  0.00000000000E+00 0. -1.
        -14    1    3    3    0    0  0.28189746063E+02  0.32762184444E+02 -0.10751234153E+04  0.10759918125E+04  0.00000000000E+00 0.  1.
          5    1    4    4  501    0 -0.65415554023E+02  0.43047794792E+02 -0.12402787597E+03  0.14674022544E+03  0.41800000000E+01 0.  1.
         -5    1    4    4    0  501  0.10559187793E+02 -0.45858276307E+02 -0.18629920914E+02  0.50784095010E+02  0.41800000000E+01 0.  1.
</event>
<event>
11    1  0.1002087E-008  0.3376774E+03  0.7561462E-02  0.9853966E-01
         22   -1    0    0    0    0  0.00000000000E+00  0.00000000000E+00  0.95574420309E+03  0.95574420309E+03  0.00000000000E+00 0.  1.
         22   -1    0    0    0    0 -0.00000000000E+00 -0.00000000000E+00 -0.87370370719E+03  0.87370370719E+03  0.00000000000E+00 0.  1.
         24    2    1    2    0    0  0.69611460517E+02  0.38242826735E+02 -0.72690644697E+03  0.73557272225E+03  0.79787078204E+02 0.  0.
         25    2    1    2    0    0  0.71606377360E+02  0.26138647391E+03  0.11361560044E+03  0.31938511407E+03  0.12509190384E+03 0.  0.
        -24    2    1    2    0    0 -0.14121783788E+03 -0.29962930064E+03  0.69533134242E+03  0.77449007395E+03  0.81418691644E+02 0.  0.
        -13    1    3    3    0    0  0.53631134376E+02 -0.11342852377E+02 -0.25662565129E+03  0.26241509823E+03  0.00000000000E+00 0.  1.
         14    1    3    3    0    0  0.15980326141E+02  0.49585679112E+02 -0.47028079567E+03  0.47315762403E+03  0.00000000000E+00 0. -1.
         13    1    5    5    0    0  0.60519404659E+01  0.47409384163E+00  0.69190847086E+01  0.92045902450E+01  0.00000000000E+00 0. -1.
        -14    1    5    5    0    0 -0.14726977834E+03 -0.30010339448E+03  0.68841225772E+03  0.76528548370E+03  0.00000000000E+00 0.  1.
          5    1    4    4  501    0  0.15402799354E+02  0.23617369270E+03  0.92213944414E+02  0.25403964906E+03  0.41800000000E+01 0. -1.
         -5    1    4    4    0  501  0.56203578005E+02  0.25212781212E+02  0.21401656027E+02  0.65345465013E+02  0.41800000000E+01 0. -1.
</event>
<event>
11    1  0.1002087E-008  0.1781159E+03  0.7561462E-02  0.1071177E+00
         22   -1    0    0    0    0  0.00000000000E+00  0.00000000000E+00  0.62973750722E+03  0.62973750722E+03  0.00000000000E+00 0. -1.
         22   -1    0    0    0    0 -0.00000000000E+00 -0.00000000000E+00 -0.73434062314E+03  0.73434062314E+03  0.00000000000E+00 0. -1.
         24    2    1    2    0    0 -0.87884664956E+02 -0.90775701863E+02 -0.67018684722E+03  0.68682258393E+03  0.81307497930E+02 0.  0.
         25    2    1    2    0    0  0.92804645034E+02  0.98923163052E+02  0.11100526931E+03  0.21533248844E+03  0.12508963360E+03 0.  0.
        -24    2    1    2    0    0 -0.49199800781E+01 -0.81474611885E+01  0.45457846199E+03  0.46192305800E+03  0.81490772977E+02 0.  0.
        -13    1    3    3    0    0  0.13800650962E+02 -0.13266961665E+02 -0.48850969250E+02  0.52467965803E+02  0.00000000000E+00 0.  1.
         14    1    3    3    0    0 -0.10168531592E+03 -0.77508740198E+02 -0.62133587797E+03  0.63435461812E+03  0.00000000000E+00 0. -1.
         13    1    5    5    0    0  0.30502122025E+02  0.17092216257E+02  0.27185871072E+03  0.27409794216E+03  0.00000000000E+00 0. -1.
        -14    1    5    5    0    0 -0.35422102103E+02 -0.25239677446E+02  0.18271975127E+03  0.18782511584E+03  0.00000000000E+00 0.  1.
          5    1    4    4  501    0  0.10180577850E+03  0.19352579500E+02  0.71268125969E+02  0.12583940976E+03  0.41800000000E+01 0.  1.
         -5    1    4    4    0  501 -0.90011334678E+01  0.79570583551E+02  0.39737143342E+02  0.89493078679E+02  0.41800000000E+01 0.  1.
</event>
<event>
11    1  0.1002087E-008  0.1916076E+03  0.7561462E-02  0.1060622E+00
         22   -1    0    0    0    0  0.00000000000E+00  0.00000000000E+00  0.48038307133E+03  0.48038307133E+03  0.00000000000E+00 0.  1.
         22   -1    0    0    0    0 -0.00000000000E+00 -0.00000000000E+00 -0.38495771403E+03  0.38495771403E+03  0.00000000000E+00 0.  1.
         24    2    1    2    0    0 -0.42874724609E+02 -0.42191811656E+02 -0.26290005893E+03  0.28036681033E+03  0.76620600146E+02 0.  0.
         25    2    1    2    0    0  0.13638455191E+03  0.13931238342E+03  0.49012161396E+02  0.23676788256E+03  0.12509257402E+03 0.  0.
        -24    2    1    2    0    0 -0.93509827297E+02 -0.97120571760E+02  0.30931325484E+03  0.34820609247E+03  0.86001743906E+02 0.  0.
        -13    1    3    3    0    0 -0.16659212042E+01 -0.17802413833E+02 -0.20249970449E+03  0.20328755877E+03  0.00000000000E+00 0.  1.
         14    1    3    3    0    0 -0.41208803404E+02 -0.24389397823E+02 -0.60400354436E+02  0.77079251554E+02  0.00000000000E+00 0. -1.
         11    1    5    5    0    0 -0.10466176506E+03 -0.88438818250E+02  0.23063475063E+03  0.26826833178E+03  0.00000000000E+00 0. -1.
        -12    1    5    5    0    0  0.11151937758E+02 -0.86817535100E+01  0.78678504209E+02  0.79937760692E+02  0.00000000000E+00 0.  1.
          5    1    4    4  501    0  0.15706231467E+03  0.13477837909E+03  0.32376889534E+02  0.20952211705E+03  0.41800000000E+01 0.  1.
         -5    1    4    4    0  501 -0.20677762760E+02  0.45340043253E+01  0.16635271862E+02  0.27245765504E+02  0.41800000000E+01 0.  1.
</event>
<event>
11    1  0.1137364E-008  0.1565515E+03  0.7561462E-02  0.1090366E+00
         22   -1    0    0    0    0  0.00000000000E+00  0.00000000000E+00  0.79829116378E+03  0.79829116378E+03  0.00000000000E+00 0. -1.
         22   -1    0    0    0    0 -0.00000000000E+00 -0.00000000000E+00 -0.11344871755E+04  0.11344871755E+04  0.00000000000E+00 0. -1.
        -24    2    1    2    0    0 -0.11088781805E+02  0.48096432818E+01 -0.86340957027E+03  0.86745046458E+03  0.82753421155E+02 0.  0.
         25    2    1    2    0    0  0.73673415598E+02  0.65407341638E+02 -0.24011675448E+03  0.28811444785E+03  0.12509191331E+03 0.  0.
         24    2    1    2    0    0 -0.62584633793E+02 -0.70216984920E+02  0.76733031304E+03  0.77721342684E+03  0.80110175351E+02 0.  0.
        -11    1    5    5    0    0  0.18521317865E+02 -0.64748150712E+01  0.15789215394E+03  0.15910655147E+03  0.00000000000E+00 0.  1.
         12    1    5    5    0    0 -0.81105951659E+02 -0.63742169848E+02  0.60943815910E+03  0.61810687537E+03  0.00000000000E+00 0. -1.
         13    1    3    3    0    0 -0.84032575989E+01 -0.15273424464E+02 -0.81207204156E+03  0.81225912917E+03  0.00000000000E+00 0. -1.
        -14    1    3    3    0    0 -0.26855242059E+01  0.20083067746E+02 -0.51337528714E+02  0.55191335414E+02  0.00000000000E+00 0.  1.
          5    1    4    4  501    0 -0.24726478008E+02  0.39537088072E+02 -0.12979240656E+03  0.13797869853E+03  0.41800000000E+01 0.  1.
         -5    1    4    4    0  501  0.98399893606E+02  0.25870253566E+02 -0.11032434792E+03  0.15013574932E+03  0.41800000000E+01 0.  1.
</event>
<event>
11    1  0.1002087E-008  0.1426429E+03  0.7561462E-02  0.1104643E+00
         22   -1    0    0    0    0  0.00000000000E+00  0.00000000000E+00  0.86088138652E+03  0.86088138652E+03  0.00000000000E+00 0.  1.
         22   -1    0    0    0    0 -0.00000000000E+00 -0.00000000000E+00 -0.10133318475E+03  0.10133318475E+03  0.00000000000E+00 0. -1.
         24    2    1    2    0    0 -0.50901500483E+02  0.36069891847E+02 -0.32651244022E+02  0.10793492195E+03  0.81803690567E+02 0.  0.
         25    2    1    2    0    0  0.19601815198E+02 -0.95008032559E+02  0.21114000952E+03  0.26388700893E+03  0.12508194296E+03 0.  0.
        -24    2    1    2    0    0  0.31299685285E+02  0.58938140712E+02  0.58105943628E+03  0.59039264039E+03  0.80498612450E+02 0.  0.
        -13    1    3    3    0    0 -0.62161161089E+02  0.95359580351E+01  0.19277068045E+01  0.62917886941E+02  0.00000000000E+00 0.  1.
         14    1    3    3    0    0  0.11259660607E+02  0.26533933812E+02 -0.34578950826E+02  0.45017035007E+02  0.00000000000E+00 0. -1.
         13    1    5    5    0    0  0.44214898323E+01 -0.91842807205E+01  0.87998309306E+01  0.13466165345E+02  0.00000000000E+00 0. -1.
        -14    1    5    5    0    0  0.26878195453E+02  0.68122421433E+02  0.57225960535E+03  0.57692647504E+03  0.00000000000E+00 0.  1.
          5    1    4    4  501    0  0.42400722024E+02 -0.25814388332E+02  0.17596166465E+03  0.18287751009E+03  0.41800000000E+01 0.  1.
         -5    1    4    4    0  501 -0.22798906826E+02 -0.69193644227E+02  0.35178344871E+02  0.81009498837E+02  0.41800000000E+01 0.  1.
</event>
<event>
11    1  0.1002087E-008  0.1798426E+03  0.7561462E-02  0.1069770E+00
         22   -1    0    0    0    0  0.00000000000E+00  0.00000000000E+00  0.18639117387E+04  0.18639117387E+04  0.00000000000E+00 0.  1.
         22   -1    0    0    0    0 -0.00000000000E+00 -0.00000000000E+00 -0.15961750180E+03  0.15961750180E+03  0.00000000000E+00 0.  1.
         24    2    1    2    0    0 -0.90911439595E+02  0.90936893891E+02 -0.11132131685E+03  0.18467876053E+03  0.71968051834E+02 0.  0.
         25    2    1    2    0    0  0.11370923084E+03 -0.10340136174E+03  0.14236154320E+04  0.14373415618E+04  0.12509291094E+03 0.  0.
        -24    2    1    2    0    0 -0.22797791247E+02  0.12464467850E+02  0.39200012176E+03  0.40150891814E+03  0.82886751913E+02 0.  0.
        -13    1    3    3    0    0 -0.74071515922E+02  0.23391453053E+02 -0.55949292646E+02  0.95729164284E+02  0.00000000000E+00 0.  1.
         14    1    3    3    0    0 -0.16839923673E+02  0.67545440838E+02 -0.55372024205E+02  0.88949596243E+02  0.00000000000E+00 0. -1.
         11    1    5    5    0    0 -0.50704006858E+01 -0.15229013332E+02  0.33733439115E+03  0.33771603939E+03  0.00000000000E+00 0. -1.
        -12    1    5    5    0    0 -0.17727390562E+02  0.27693481182E+02  0.54665730614E+02  0.63792878753E+02  0.00000000000E+00 0.  1.
          5    1    4    4  501    0  0.13034307348E+03 -0.50033909163E+02  0.11102513301E+04  0.11190032160E+04  0.41800000000E+01 0. -1.
         -5    1    4    4    0  501 -0.16633842639E+02 -0.53367452577E+02  0.31336410186E+03  0.31833834587E+03  0.41800000000E+01 0. -1.
</event>
<event>
11    1  0.1002087E-008  0.1698442E+03  0.7561462E-02  0.1078167E+00
         22   -1    0    0    0    0  0.00000000000E+00  0.00000000000E+00  0.10405182665E+03  0.10405182665E+03  0.00000000000E+00 0.  1.
         22   -1    0    0    0    0 -0.00000000000E+00 -0.00000000000E+00 -0.19841070772E+04  0.19841070772E+04  0.00000000000E+00 0.  1.
        -24    2    1    2    0    0 -0.11793867771E+03  0.37906395493E+02 -0.13340703472E+04  0.13422385342E+04  0.80710376740E+02 0.  0.
         25    2    1    2    0    0  0.53141135497E+02 -0.10117189186E+03 -0.59267356324E+03  0.61641668391E+03  0.12509134122E+03 0.  0.
         24    2    1    2    0    0  0.64797542211E+02  0.63265496363E+02  0.46688659837E+02  0.12950368579E+03  0.79938283508E+02 0.  0.
        -13    1    5    5    0    0  0.26199573543E+02  0.11528044554E+02  0.57334783040E+02  0.64082687298E+02  0.00000000000E+00 0.  1.
         14    1    5    5    0    0  0.38597968668E+02  0.51737451809E+02 -0.10646123203E+02  0.65420998496E+02  0.00000000000E+00 0. -1.
         13    1    3    3    0    0 -0.11141163467E+03  0.23012203270E+02 -0.81369823821E+03  0.82161240053E+03  0.00000000000E+00 0. -1.
        -14    1    3    3    0    0 -0.65270430379E+01  0.14894192224E+02 -0.52037210895E+03  0.52062613364E+03  0.00000000000E+00 0.  1.
          5    1    4    4  501    0  0.74878603818E+02 -0.10049887585E+03 -0.57373059051E+03  0.58727429046E+03  0.41800000000E+01 0.  1.
         -5    1    4    4    0  501 -0.21737468322E+02 -0.67301600821E+00 -0.18942972737E+02  0.29142393445E+02  0.41800000000E+01 0.  1.
</event>
<event>
11    1  0.1002087E-008  0.1605733E+03  0.7561462E-02  0.1086539E+00
         22   -1    0    0    0    0  0.00000000000E+00  0.00000000000E+00  0.10416926223E+04  0.10416926223E+04  0.00000000000E+00 0.  1.
         22   -1    0    0    0    0 -0.00000000000E+00 -0.00000000000E+00 -0.10796868874E+04  0.10796868874E+04  0.00000000000E+00 0.  1.
         24    2    1    2    0    0 -0.95974745382E+02  0.30215780054E+02 -0.10499903527E+04  0.10578511141E+04  0.80281340809E+02 0.  0.
         25    2    1    2    0    0  0.12471056782E+03  0.40779453490E+02  0.37166678039E+03  0.41352002971E+03  0.12508768833E+03 0.  0.
        -24    2    1    2    0    0 -0.28735822440E+02 -0.70995233544E+02  0.64032930717E+03  0.65000836595E+03  0.81382943532E+02 0.  0.
        -13    1    3    3    0    0 -0.48307582930E+02  0.55287045277E+02 -0.68197954993E+03  0.68592010210E+03  0.00000000000E+00 0.  1.
         14    1    3    3    0    0 -0.47667162452E+02 -0.25071265223E+02 -0.36801080277E+03  0.37193101198E+03  0.00000000000E+00 0. -1.
         13    1    5    5    0    0 -0.27884653253E+02 -0.27261394852E+02  0.91823810253E+02  0.99761463831E+02  0.00000000000E+00 0. -1.
        -14    1    5    5    0    0 -0.85116918763E+00 -0.43733838692E+02  0.54850549692E+03  0.55024690212E+03  0.00000000000E+00 0.  1.
          5    1    4    4  501    0 -0.49922625286E+01  0.42419960093E+02  0.45823575882E+02  0.62782546986E+02  0.41800000000E+01 0. -1.
         -5    1    4    4    0  501  0.12970283035E+03 -0.16405066033E+01  0.32584320451E+03  0.35073748272E+03  0.41800000000E+01 0. -1.
</event>
<event>
11    1  0.1002087E-008  0.1627391E+03  0.7561462E-02  0.1084529E+00
         22   -1    0    0    0    0  0.00000000000E+00  0.00000000000E+00  0.30002846331E+03  0.30002846331E+03  0.00000000000E+00 0. -1.
         22   -1    0    0    0    0 -0.00000000000E+00 -0.00000000000E+00 -0.11245446089E+04  0.11245446089E+04  0.00000000000E+00 0. -1.
        -24    2    1    2    0    0 -0.71615810433E+02  0.71482669674E+02 -0.92249633233E+03  0.93123391557E+03  0.77191489025E+02 0.  0.
         25    2    1    2    0    0  0.43121458331E+02 -0.15282261759E+03 -0.12723336364E+03  0.23887444992E+03  0.12513377397E+03 0.  0.
         24    2    1    2    0    0  0.28494352102E+02  0.81339947918E+02  0.22521355041E+03  0.25446470668E+03  0.81259020606E+02 0.  0.
        -13    1    5    5    0    0  0.46297239263E+02  0.16882528421E+02  0.71518669620E+02  0.86852600614E+02  0.00000000000E+00 0.  1.
         14    1    5    5    0    0 -0.17802887162E+02  0.64457419497E+02  0.15369488079E+03  0.16761210607E+03  0.00000000000E+00 0. -1.
         13    1    3    3    0    0 -0.19844129917E+02  0.54655553599E+02 -0.69016684770E+03  0.69261193802E+03  0.00000000000E+00 0. -1.
        -14    1    3    3    0    0 -0.51771680516E+02  0.16827116075E+02 -0.23232948464E+03  0.23862197755E+03  0.00000000000E+00 0.  1.
          5    1    4    4  501    0 -0.11316340648E+02 -0.14134567275E+03 -0.67371657924E+02  0.15704480718E+03  0.41800000000E+01 0. -1.
         -5    1    4    4    0  501  0.54437798979E+02 -0.11476944840E+02 -0.59861705712E+02  0.81829642742E+02  0.41800000000E+01 0. -1.
</event>
<event>
11    1  0.1002087E-008  0.4210226E+03  0.7561462E-02  0.9589688E-01
         22   -1    0    0    0    0  0.00000000000E+00  0.00000000000E+00  0.69964908368E+03  0.69964908368E+03  0.00000000000E+00 0. -1.
         22   -1    0    0    0    0 -0.00000000000E+00 -0.00000000000E+00 -0.12287922992E+04  0.12287922992E+04  0.00000000000E+00 0. -1.
         24    2    1    2    0    0 -0.34854538944E+03 -0.60638790589E+02 -0.63143713092E+03  0.72825186737E+03  0.80479690615E+02 0.  0.
         25    2    1    2    0    0  0.55835247064E+03  0.47736917539E+02 -0.36574653197E+03  0.68077213413E+03  0.12507548995E+03 0.  0.
        -24    2    1    2    0    0 -0.20980708120E+03  0.12901873050E+02  0.46804044740E+03  0.51941738135E+03  0.80914065506E+02 0.  0.
        -13    1    3    3    0    0 -0.11698278865E+03 -0.59424127173E+02 -0.23379619406E+03  0.26809860143E+03  0.00000000000E+00 0.  1.
         14    1    3    3    0    0 -0.23156260078E+03 -0.12146634152E+01 -0.39764093686E+03  0.46015326594E+03  0.00000000000E+00 0. -1.
         11    1    5    5    0    0 -0.17611114876E+03  0.16626923559E+02  0.30236244460E+03  0.35030649325E+03  0.00000000000E+00 0. -1.
        -12    1    5    5    0    0 -0.33695932441E+02 -0.37250505096E+01  0.16567800280E+03  0.16911088811E+03  0.00000000000E+00 0.  1.
          5    1    4    4  501    0  0.41553190082E+03  0.89202382687E+02 -0.28167606653E+03  0.50988499148E+03  0.41800000000E+01 0.  1.
         -5    1    4    4    0  501  0.14282056982E+03 -0.41465465148E+02 -0.84070465439E+02  0.17088714265E+03  0.41800000000E+01 0.  1.
</event>
<event>
11    1  0.1002087E-008  0.1733292E+03  0.7561462E-02  0.1075170E+00
         22   -1    0    0    0    0  0.00000000000E+00  0.00000000000E+00  0.29543112893E+04  0.29543112893E+04  0.00000000000E+00 0. -1.
         22   -1    0    0    0    0 -0.00000000000E+00 -0.00000000000E+00 -0.36970410601E+02  0.36970410601E+02  0.00000000000E+00 0. -1.
        -24    2    1    2    0    0 -0.74318764772E+02  0.92984486780E+02  0.15116822677E+03  0.20774336132E+03  0.78333120770E+02 0.  0.
         25    2    1    2    0    0  0.49395649838E+02 -0.12036069474E+03  0.10752381580E+04  0.10902809163E+04  0.12509497598E+03 0.  0.
         24    2    1    2    0    0  0.24923114933E+02  0.27376207964E+02  0.16909344939E+04  0.16932574223E+04  0.80564364616E+02 0.  0.
        -13    1    5    5    0    0  0.33071854157E+02  0.31059807310E+02  0.44815179699E+03  0.45044255163E+03  0.00000000000E+00 0.  1.
         14    1    5    5    0    0 -0.81487392235E+01 -0.36835993462E+01  0.12427826970E+04  0.12428148706E+04  0.00000000000E+00 0. -1.
         11    1    3    3    0    0 -0.82235765759E+02  0.95280343729E+02  0.15412460440E+03  0.19898607678E+03  0.00000000000E+00 0. -1.
        -12    1    3    3    0    0  0.79170009869E+01 -0.22958569489E+01 -0.29563776349E+01  0.87572845378E+01  0.00000000000E+00 0.  1.
          5    1    4    4  501    0  0.42497363620E+02  0.14313788817E+02  0.30699633845E+03  0.31028234672E+03  0.41800000000E+01 0.  1.
         -5    1    4    4    0  501  0.68982862186E+01 -0.13467448356E+03  0.76824181956E+03  0.77999856961E+03  0.41800000000E+01 0.  1.
</event>
<event>
11    1  0.1002087E-008  0.1339271E+03  0.7561462E-02  0.1114536E+00
         22   -1    0    0    0    0  0.00000000000E+00  0.00000000000E+00  0.28602492258E+03  0.28602492258E+03  0.00000000000E+00 0.  1.
         22   -1    0    0    0    0 -0.00000000000E+00 -0.00000000000E+00 -0.17344188868E+04  0.17344188868E+04  0.00000000000E+00 0. -1.
        -24    2    1    2    0    0  0.29886236045E+02  0.36947793099E+02 -0.15548833231E+04  0.15577835968E+04  0.82275509512E+02 0.  0.
         25    2    1    2    0    0 -0.16149703031E+02 -0.56318054915E+02 -0.14332274801E+03  0.19904903252E+03  0.12508625437E+03 0.  0.
         24    2    1    2    0    0 -0.13736533015E+02  0.19370261816E+02  0.24981210687E+03  0.26361118008E+03  0.80751880097E+02 0.  0.
        -11    1    5    5    0    0 -0.44284955694E+02  0.28034175466E+02  0.15699116307E+03  0.16550920693E+03  0.00000000000E+00 0.  1.
         12    1    5    5    0    0  0.30548422679E+02 -0.86639136500E+01  0.92820943803E+02  0.98101973152E+02  0.00000000000E+00 0. -1.
         13    1    3    3    0    0  0.40073115640E+02  0.40919271939E+02 -0.15230209773E+04  0.15240974833E+04  0.00000000000E+00 0. -1.
        -14    1    3    3    0    0 -0.10186879595E+02 -0.39714788402E+01 -0.31862345798E+02  0.33686113457E+02  0.00000000000E+00 0.  1.
          5    1    4    4  501    0 -0.98184380548E+01  0.34461988903E+02 -0.81008641484E+02  0.88678649065E+02  0.41800000000E+01 0.  1.
         -5    1    4    4    0  501 -0.63312649757E+01 -0.90780043818E+02 -0.62314106531E+02  0.11037038346E+03  0.41800000000E+01 0.  1.
</event>
<event>
11    1  0.1002087E-008  0.1296982E+03  0.7561462E-02  0.1119640E+00
         22   -1    0    0    0    0  0.00000000000E+00  0.00000000000E+00  0.25793712340E+03  0.25793712340E+03  0.00000000000E+00 0.  1.
         22   -1    0    0    0    0 -0.00000000000E+00 -0.00000000000E+00 -0.10744674401E+04  0.10744674401E+04  0.00000000000E+00 0.  1.
        -24    2    1    2    0    0 -0.32265792709E+01 -0.49074099184E+01 -0.10068971261E+04  0.10101792191E+04  0.81152564768E+02 0.  0.
         25    2    1    2    0    0  0.25401748139E+02  0.29782257402E+02  0.22840053984E+02  0.13304318813E+03  0.12508633089E+03 0.  0.
         24    2    1    2    0    0 -0.22175168868E+02 -0.24874847483E+02  0.16752675535E+03  0.18918215629E+03  0.81327598947E+02 0.  0.
        -11    1    5    5    0    0 -0.43916577731E+02 -0.13297915619E+02  0.15479889197E+03  0.16145648738E+03  0.00000000000E+00 0.  1.
         12    1    5    5    0    0  0.21741408863E+02 -0.11576931864E+02  0.12727863372E+02  0.27725668915E+02  0.00000000000E+00 0. -1.
         13    1    3    3    0    0  0.33749211724E+01 -0.18775510538E+02 -0.56037143796E+02  0.59195197218E+02  0.00000000000E+00 0. -1.
        -14    1    3    3    0    0 -0.66015004433E+01  0.13868100620E+02 -0.95085998225E+03  0.95098402188E+03  0.00000000000E+00 0.  1.
          5    1    4    4  501    0 -0.42874533017E+02  0.16427716938E+02 -0.21047139577E+02  0.50680863742E+02  0.41800000000E+01 0. -1.
         -5    1    4    4    0  501  0.68276281156E+02  0.13354540464E+02  0.43887193561E+02  0.82362324385E+02  0.41800000000E+01 0. -1.
</event>
<event>
11    1  0.1002087E-008  0.2190692E+03  0.7561462E-02  0.1041802E+00
         22   -1    0    0    0    0  0.00000000000E+00  0.00000000000E+00  0.38880730053E+04  0.38880730053E+04  0.00000000000E+00 0. -1.
         22   -1    0    0    0    0 -0.00000000000E+00 -0.00000000000E+00 -0.20196604478E+04  0.20196604478E+04  0.00000000000E+00 0.  1.
         24    2    1    2    0    0 -0.35153357416E+02  0.31952605039E+02 -0.19519602112E+04  0.19548611787E+04  0.95272420555E+02 0.  0.
         25    2    1    2    0    0 -0.12006878047E+03  0.62516958045E+02  0.69941211259E+02  0.19713973659E+03  0.12508965034E+03 0.  0.
        -24    2    1    2    0    0  0.15522213789E+03 -0.94469563084E+02  0.37504315576E+04  0.37557325378E+04  0.82289838053E+02 0.  0.
        -13    1    3    3    0    0 -0.48648226198E+02  0.19785417164E+01 -0.17082915333E+04  0.17089852332E+04  0.00000000000E+00 0.  1.
         14    1    3    3    0    0  0.13494868782E+02  0.29974063323E+02 -0.24366867790E+03  0.24587594544E+03  0.00000000000E+00 0. -1.
         11    1    5    5    0    0  0.90402919406E+02 -0.37156300578E+02  0.26907017566E+04  0.26924764106E+04  0.00000000000E+00 0. -1.
        -12    1    5    5    0    0  0.64819218479E+02 -0.57313262506E+02  0.10597298009E+04  0.10632561272E+04  0.00000000000E+00 0.  1.
          5    1    4    4  501    0 -0.14013343600E+03  0.68338860094E+02  0.41113308257E+02  0.16129276549E+03  0.41800000000E+01 0.  1.
         -5    1    4    4    0  501  0.20064655533E+02 -0.58219020490E+01  0.28827903003E+02  0.35846971095E+02  0.41800000000E+01 0.  1.
</event>
<event>
11    1  0.1002087E-008  0.1328478E+03  0.7561462E-02  0.1115819E+00
         22   -1    0    0    0    0  0.00000000000E+00  0.00000000000E+00  0.49607841039E+03  0.49607841039E+03  0.00000000000E+00 0. -1.
         22   -1    0    0    0    0 -0.00000000000E+00 -0.00000000000E+00 -0.12146186111E+04  0.12146186111E+04  0.00000000000E+00 0.  1.
         24    2    1    2    0    0 -0.43649147032E+02 -0.13389851706E+02 -0.11129446142E+04  0.11168354131E+04  0.81185526343E+02 0.  0.
         25    2    1    2    0    0  0.27733043691E+02 -0.11180303791E+02 -0.52395601492E+02  0.13888834162E+03  0.12510216416E+03 0.  0.
        -24    2    1    2    0    0  0.15916103341E+02  0.24570155497E+02  0.44680001492E+03  0.45497326675E+03  0.80705670447E+02 0.  0.
        -13    1    3    3    0    0 -0.44897695186E+02 -0.35867524577E+02 -0.47047880455E+03  0.47397530303E+03  0.00000000000E+00 0.  1.
         14    1    3    3    0    0  0.12485481541E+01  0.22477672871E+02 -0.64246580962E+03  0.64286011012E+03  0.00000000000E+00 0. -1.
         11    1    5    5    0    0  0.33917628652E+02 -0.16709080088E+02  0.26473404050E+03  0.26742047620E+03  0.00000000000E+00 0. -1.
        -12    1    5    5    0    0 -0.18001525311E+02  0.41279235585E+02  0.18206597442E+03  0.18755279056E+03  0.00000000000E+00 0.  1.
          5    1    4    4  501    0 -0.18186943932E+02  0.47982653870E+02 -0.91032304409E+01  0.52282322122E+02  0.41800000000E+01 0. -1.
         -5    1    4    4    0  501  0.45919987623E+02 -0.59162957661E+02 -0.43292371052E+02  0.86606019501E+02  0.41800000000E+01 0. -1.
</event>
<event>
11    1  0.1002087E-008  0.1425627E+03  0.7561462E-02  0.1104730E+00
         22   -1    0    0    0    0  0.00000000000E+00  0.00000000000E+00  0.51621317426E+03  0.51621317426E+03  0.00000000000E+00 0. -1.
         22   -1    0    0    0    0 -0.00000000000E+00 -0.00000000000E+00 -0.53893720095E+03  0.53893720095E+03  0.00000000000E+00 0.  1.
         24    2    1    2    0    0  0.17876403841E+02  0.64015246279E+02 -0.34548648075E+03  0.36142207838E+03  0.82749578778E+02 0.  0.
         25    2    1    2    0    0 -0.27442886230E+02 -0.70620724396E+02 -0.15258553440E+03  0.21135242126E+03  0.12508837655E+03 0.  0.
        -24    2    1    2    0    0  0.95664823889E+01  0.66054781167E+01  0.47534798845E+03  0.48237587557E+03  0.81213455018E+02 0.  0.
        -13    1    3    3    0    0  0.39541199443E+02  0.63081147449E+02 -0.18407819323E+03  0.19856363927E+03  0.00000000000E+00 0.  1.
         14    1    3    3    0    0 -0.21664795602E+02  0.93409883021E+00 -0.16140828752E+03  0.16285843911E+03  0.00000000000E+00 0. -1.
         11    1    5    5    0    0  0.35941130274E+02  0.29300687265E+02  0.23607286364E+03  0.24058406445E+03  0.00000000000E+00 0. -1.
        -12    1    5    5    0    0 -0.26374647885E+02 -0.22695209148E+02  0.23927512481E+03  0.24179181112E+03  0.00000000000E+00 0.  1.
          5    1    4    4  501    0 -0.16736164390E+02  0.11901536398E+02 -0.12011565244E+03  0.12193025928E+03  0.41800000000E+01 0. -1.
         -5    1    4    4    0  501 -0.10706721840E+02 -0.82522260794E+02 -0.32469881952E+02  0.89422161979E+02  0.41800000000E+01 0. -1.
</event>
<event>
11    1  0.1002087E-008  0.3330522E+03  0.7561462E-02  0.9870982E-01
         22   -1    0    0    0    0  0.00000000000E+00  0.00000000000E+00  0.48399756373E+03  0.48399756373E+03  0.00000000000E+00 0.  1.
         22   -1    0    0    0    0 -0.00000000000E+00 -0.00000000000E+00 -0.20360388801E+04  0.20360388801E+04  0.00000000000E+00 0. -1.
         24    2    1    2    0    0  0.67533217034E+02  0.26176327864E+03 -0.92381315565E+03  0.96591989935E+03  0.80559021704E+02 0.  0.
         25    2    1    2    0    0 -0.91939073092E+02 -0.36275562465E+03 -0.10450878493E+04  0.11170947483E+04  0.12509047742E+03 0.  0.
        -24    2    1    2    0    0  0.24405856058E+02  0.10099234601E+03  0.41685968855E+03  0.43702179621E+03  0.80130834655E+02 0.  0.
        -11    1    3    3    0    0 -0.24598154064E+01  0.38319183300E+01 -0.35722403033E+00  0.45674827783E+01  0.00000000000E+00 0.  1.
         12    1    3    3    0    0  0.69993032440E+02  0.25793136031E+03 -0.92345593162E+03  0.96135241657E+03  0.00000000000E+00 0. -1.
         11    1    5    5    0    0 -0.37409513698E+01  0.57754833967E+02  0.96427046992E+02  0.11246239796E+03  0.00000000000E+00 0. -1.
        -12    1    5    5    0    0  0.28146807428E+02  0.43237512048E+02  0.32043264156E+03  0.32455939825E+03  0.00000000000E+00 0.  1.
          5    1    4    4  501    0 -0.47076251969E+02 -0.22824440347E+03 -0.80663491880E+03  0.83963625806E+03  0.41800000000E+01 0.  1.
         -5    1    4    4    0  501 -0.44862821122E+02 -0.13451122118E+03 -0.23845293049E+03  0.27745849023E+03  0.41800000000E+01 0.  1.
</event>
<event>
11    1  0.1002087E-008  0.1351683E+03  0.7561462E-02  0.1113077E+00
         22   -1    0    0    0    0  0.00000000000E+00  0.00000000000E+00  0.88748111437E+03  0.88748111437E+03  0.00000000000E+00 0.  1.
         22   -1    0    0    0    0 -0.00000000000E+00 -0.00000000000E+00 -0.13699046881E+04  0.13699046881E+04  0.00000000000E+00 0. -1.
        -24    2    1    2    0    0 -0.21900308980E+02  0.46452053321E+02 -0.13279520624E+04  0.13313606222E+04  0.80168630670E+02 0.  0.
         25    2    1    2    0    0  0.31949060597E+02 -0.31394145897E+02  0.77715920399E+02  0.15392529776E+03  0.12508756188E+03 0.  0.
         24    2    1    2    0    0 -0.10048751617E+02 -0.15057907423E+02  0.76781256833E+03  0.77209988252E+03  0.79210924248E+02 0.  0.
        -11    1    5    5    0    0  0.16921599070E+02 -0.24411847836E+02  0.65694633634E+03  0.65761749342E+03  0.00000000000E+00 0.  1.
         12    1    5    5    0    0 -0.26970350687E+02  0.93539404128E+01  0.11086623199E+03  0.11448238910E+03  0.00000000000E+00 0. -1.
         13    1    3    3    0    0  0.19574771097E+02  0.37825056220E+02 -0.96591475018E+03  0.96685325213E+03  0.00000000000E+00 0. -1.
        -14    1    3    3    0    0 -0.41475080077E+02  0.86269971009E+01 -0.36203731225E+03  0.36450737004E+03  0.00000000000E+00 0.  1.
          5    1    4    4  501    0 -0.36884883953E+02 -0.31599986595E+02  0.68901147109E+02  0.84403165166E+02  0.41800000000E+01 0. -1.
         -5    1    4    4    0  501  0.68833944550E+02  0.20584069751E+00  0.88147732894E+01  0.69522132597E+02  0.41800000000E+01 0. -1.
</event>
<event>
11    1  0.1002087E-008  0.1465303E+03  0.7561462E-02  0.1100478E+00
         22   -1    0    0    0    0  0.00000000000E+00  0.00000000000E+00  0.13571129935E+03  0.13571129935E+03  0.00000000000E+00 0.  1.
         22   -1    0    0    0    0 -0.00000000000E+00 -0.00000000000E+00 -0.96520778113E+03  0.96520778113E+03  0.00000000000E+00 0. -1.
         24    2    1    2    0    0 -0.22519148899E+02 -0.73736158978E+02 -0.73458785380E+03  0.74295135697E+03  0.80082898727E+02 0.  0.
         25    2    1    2    0    0  0.74815140652E+02  0.48341799207E+02 -0.16971069408E+03  0.22887383260E+03  0.12508907524E+03 0.  0.
        -24    2    1    2    0    0 -0.52295991753E+02  0.25394359771E+02  0.74802066105E+02  0.12909389091E+03  0.87693439404E+02 0.  0.
        -13    1    3    3    0    0 -0.17412218222E+02 -0.33065228152E+02 -0.95512928087E+02  0.10256321996E+03  0.00000000000E+00 0.  1.
         14    1    3    3    0    0 -0.51069306763E+01 -0.40670930827E+02 -0.63907492572E+03  0.64038813702E+03  0.00000000000E+00 0. -1.
         13    1    5    5    0    0 -0.61677640525E+02  0.11925789344E+02  0.11710571558E+02  0.63902216537E+02  0.00000000000E+00 0. -1.
        -14    1    5    5    0    0  0.93816487717E+01  0.13468570427E+02  0.63091494547E+02  0.65191674370E+02  0.00000000000E+00 0.  1.
          5    1    4    4  501    0  0.84844688030E+02  0.34636679167E+02 -0.43627274655E+02  0.10158312913E+03  0.41800000000E+01 0. -1.
         -5    1    4    4    0  501 -0.10029547379E+02  0.13705120040E+02 -0.12608341942E+03  0.12729070347E+03  0.41800000000E+01 0. -1.
</event>
<event>
11    1  0.1002087E-008  0.1387308E+03  0.7561462E-02  0.1108984E+00
         22   -1    0    0    0    0  0.00000000000E+00  0.00000000000E+00  0.23472833205E+03  0.23472833205E+03  0.00000000000E+00 0.  1.
         22   -1    0    0    0    0 -0.00000000000E+00 -0.00000000000E+00 -0.30108220798E+03  0.30108220798E+03  0.00000000000E+00 0. -1.
        -24    2    1    2    0    0 -0.48116474526E+02  0.26855377847E+02 -0.17716945174E+03  0.20223705178E+03  0.80463681505E+02 0.  0.
         25    2    1    2    0    0  0.58142642610E+02 -0.62973623649E+02 -0.41581851146E+02  0.15723576620E+03  0.12509113343E+03 0.  0.
         24    2    1    2    0    0 -0.10026168083E+02  0.36118245802E+02  0.15239742696E+03  0.17633772205E+03  0.80405004490E+02 0.  0.
        -13    1    5    5    0    0  0.29732464278E+02  0.27079147848E+02  0.11174393620E+03  0.11876029201E+03  0.00000000000E+00 0.  1.
         14    1    5    5    0    0 -0.39758632361E+02  0.90390979545E+01  0.40653490756E+02  0.57577430037E+02  0.00000000000E+00 0. -1.
         13    1    3    3    0    0  0.15815540607E+02  0.51488236239E+01 -0.92304422898E+02  0.93790981421E+02  0.00000000000E+00 0. -1.
        -14    1    3    3    0    0 -0.63932015133E+02  0.21706554223E+02 -0.84865028842E+02  0.10844607036E+03  0.00000000000E+00 0.  1.
          5    1    4    4  501    0 -0.23858907218E+02  0.28725037699E+01 -0.45812444876E+02  0.51901360647E+02  0.41800000000E+01 0.  1.
         -5    1    4    4    0  501  0.82001549827E+02 -0.65846127419E+02  0.42305937302E+01  0.10533440555E+03  0.41800000000E+01 0.  1.
</event>
<event>
11    1  0.1002087E-008  0.2136995E+03  0.7561462E-02  0.1045238E+00
         22   -1    0    0    0    0  0.00000000000E+00  0.00000000000E+00  0.83558014890E+03  0.83558014890E+03  0.00000000000E+00 0. -1.
         22   -1    0    0    0    0 -0.00000000000E+00 -0.00000000000E+00 -0.78338664663E+03  0.78338664663E+03  0.00000000000E+00 0. -1.
         24    2    1    2    0    0  0.11703671710E+03  0.11788307575E+03 -0.62253557304E+03  0.64943306974E+03  0.81355759916E+02 0.  0.
         25    2    1    2    0    0 -0.17217023629E+03 -0.17083626441E+03 -0.12453053962E+02  0.27318628433E+03  0.12509215759E+03 0.  0.
        -24    2    1    2    0    0  0.55133519193E+02  0.52953188657E+02  0.68718212927E+03  0.69634744147E+03  0.82684553072E+02 0.  0.
        -11    1    3    3    0    0  0.90076708635E+02  0.11929950690E+03 -0.43510086808E+03  0.46006407292E+03  0.00000000000E+00 0.  1.
         12    1    3    3    0    0  0.26960008467E+02 -0.14164311504E+01 -0.18743470496E+03  0.18936899682E+03  0.00000000000E+00 0. -1.
         11    1    5    5    0    0  0.66847021341E+02  0.64444137192E+02  0.63176873510E+03  0.63855564028E+03  0.00000000000E+00 0. -1.
        -12    1    5    5    0    0 -0.11713502148E+02 -0.11490948535E+02  0.55413394170E+02  0.57791801186E+02  0.00000000000E+00 0.  1.
          5    1    4    4  501    0 -0.67732975993E+02 -0.55891779206E+02 -0.64830622368E+02  0.10923428498E+03  0.41800000000E+01 0. -1.
         -5    1    4    4    0  501 -0.10443726030E+03 -0.11494448520E+03  0.52377568405E+02  0.16395199935E+03  0.41800000000E+01 0. -1.
</event>
<event>
11    1  0.1002087E-008  0.1450746E+03  0.7561462E-02  0.1102021E+00
         22   -1    0    0    0    0  0.00000000000E+00  0.00000000000E+00  0.69990384845E+03  0.69990384845E+03  0.00000000000E+00 0. -1.
         22   -1    0    0    0    0 -0.00000000000E+00 -0.00000000000E+00 -0.57294596872E+03  0.57294596872E+03  0.00000000000E+00 0.  1.
         24    2    1    2    0    0 -0.30087881383E+02  0.45587911918E+02 -0.52531859315E+03  0.53365081704E+03  0.76420101466E+02 0.  0.
         25    2    1    2    0    0  0.70866758806E+02 -0.97969236320E+02  0.16201394459E+03  0.23775933077E+03  0.12514356698E+03 0.  0.
        -24    2    1    2    0    0 -0.40778877424E+02  0.52381324402E+02  0.49026252828E+03  0.50143966936E+03  0.81717044566E+02 0.  0.
        -13    1    3    3    0    0 -0.24489321891E+02  0.55767329438E+02 -0.51342419283E+03  0.51702429701E+03  0.00000000000E+00 0.  1.
         14    1    3    3    0    0 -0.55985594914E+01 -0.10179417521E+02 -0.11894400314E+02  0.16626520029E+02  0.00000000000E+00 0. -1.
         11    1    5    5    0    0  0.57255096708E+01  0.51034584645E+02  0.16332599487E+03  0.17120949417E+03  0.00000000000E+00 0. -1.
        -12    1    5    5    0    0 -0.46504387094E+02  0.13467397572E+01  0.32693653341E+03  0.33023017519E+03  0.00000000000E+00 0.  1.
          5    1    4    4  501    0  0.78011505120E+02 -0.63868049433E+01  0.99049511483E+02  0.12631256602E+03  0.41800000000E+01 0. -1.
         -5    1    4    4    0  501 -0.71447463139E+01 -0.91582431377E+02  0.62964433109E+02  0.11144676475E+03  0.41800000000E+01 0. -1.
</event>
<event>
11    1  0.1002087E-008  0.2575300E+03  0.7561462E-02  0.1019963E+00
         22   -1    0    0    0    0  0.00000000000E+00  0.00000000000E+00  0.60942573988E+03  0.60942573988E+03  0.00000000000E+00 0.  1.
         22   -1    0    0    0    0 -0.00000000000E+00 -0.00000000000E+00 -0.15227317351E+04  0.15227317351E+04  0.00000000000E+00 0. -1.
        -24    2    1    2    0    0 -0.81017195212E+02 -0.20554658722E+03 -0.13536551903E+04  0.13737009206E+04  0.76541879728E+02 0.  0.
         25    2    1    2    0    0  0.42218590587E+02  0.31189423321E+03  0.47739824210E+02  0.34203277047E+03  0.12508758197E+03 0.  0.
         24    2    1    2    0    0  0.38798604625E+02 -0.10634764599E+03  0.39260937089E+03  0.41642378398E+03  0.80321206578E+02 0.  0.
        -11    1    5    5    0    0  0.43515848399E+02 -0.93436759269E+02  0.38869856641E+03  0.40213260571E+03  0.00000000000E+00 0.  1.
         12    1    5    5    0    0 -0.47172437740E+01 -0.12910886719E+02  0.39108044785E+01  0.14291178271E+02  0.00000000000E+00 0. -1.
         11    1    3    3    0    0 -0.71857890472E+02 -0.13662626110E+03 -0.10964786617E+04  0.11072920785E+04  0.00000000000E+00 0. -1.
        -12    1    3    3    0    0 -0.91593047405E+01 -0.68920326122E+02 -0.25717652864E+03  0.26640884201E+03  0.00000000000E+00 0.  1.
          5    1    4    4  501    0 -0.39078275063E+02  0.63034850290E+02 -0.67456330545E+01  0.74588738414E+02  0.41800000000E+01 0. -1.
         -5    1    4    4    0  501  0.81296865650E+02  0.24885938292E+03  0.54485457264E+02  0.26744403206E+03  0.41800000000E+01 0. -1.
</event>
<event>
11    1  0.1002087E-008  0.1927758E+03  0.7561462E-02  0.1059753E+00
         22   -1    0    0    0    0  0.00000000000E+00  0.00000000000E+00  0.10813414563E+03  0.10813414563E+03  0.00000000000E+00 0.  1.
         22   -1    0    0    0    0 -0.00000000000E+00 -0.00000000000E+00 -0.10925988235E+04  0.10925988235E+04  0.00000000000E+00 0. -1.
         24    2    1    2    0    0 -0.36514273018E+02  0.57587549480E+02 -0.73523383726E+03  0.74249338248E+03  0.77961590451E+02 0.  0.
         25    2    1    2    0    0  0.80376129609E+02 -0.17602415077E+03 -0.19200497130E+03  0.29993163583E+03  0.12509297864E+03 0.  0.
        -24    2    1    2    0    0 -0.43861856591E+02  0.11843660129E+03 -0.57225869309E+02  0.15830795081E+03  0.76390550363E+02 0.  0.
        -11    1    3    3    0    0 -0.11269559485E+02  0.49982533005E+02 -0.19507973858E+03  0.20169620964E+03  0.00000000000E+00 0.  1.
         12    1    3    3    0    0 -0.25244713533E+02  0.76050164753E+01 -0.54015409867E+03  0.54079717284E+03  0.00000000000E+00 0. -1.
         13    1    5    5    0    0  0.14821250117E+02 -0.50208273771E+00 -0.36838691492E+01  0.15280459221E+02  0.00000000000E+00 0. -1.
        -14    1    5    5    0    0 -0.58683106707E+02  0.11893868403E+03 -0.53542000160E+02  0.14302749159E+03  0.00000000000E+00 0.  1.
          5    1    4    4  501    0 -0.70978837194E+01 -0.11504122466E+03 -0.59442586761E+02  0.12975267568E+03  0.41800000000E+01 0. -1.
         -5    1    4    4    0  501  0.87474013328E+02 -0.60982926105E+02 -0.13256238454E+03  0.17017896015E+03  0.41800000000E+01 0. -1.
</event>
<event>
11    1  0.1002087E-008  0.1816642E+03  0.7561462E-02  0.1068305E+00
         22   -1    0    0    0    0  0.00000000000E+00  0.00000000000E+00  0.32457369367E+04  0.32457369367E+04  0.00000000000E+00 0. -1.
         22   -1    0    0    0    0 -0.00000000000E+00 -0.00000000000E+00 -0.64071473077E+02  0.64071473077E+02  0.00000000000E+00 0. -1.
         24    2    1    2    0    0  0.82276563906E+02  0.94045785097E+02  0.93881181997E+02  0.17561579820E+03  0.80082392451E+02 0.  0.
         25    2    1    2    0    0 -0.11324890948E+03 -0.10532022686E+03  0.42117022235E+03  0.46577780852E+03  0.12508774934E+03 0.  0.
        -24    2    1    2    0    0  0.30972345577E+02  0.11274441759E+02  0.26666140593E+04  0.26684148030E+04  0.92307208843E+02 0.  0.
        -13    1    3    3    0    0 -0.32576195610E+01  0.23249597184E+02  0.51808524584E+02  0.56879513658E+02  0.00000000000E+00 0.  1.
         14    1    3    3    0    0  0.85534183467E+02  0.70796187913E+02  0.42072657413E+02  0.11873628454E+03  0.00000000000E+00 0. -1.
         11    1    5    5    0    0  0.18766133380E+02  0.46434619055E+02  0.88789721868E+03  0.88930861491E+03  0.00000000000E+00 0. -1.
        -12    1    5    5    0    0  0.12206212197E+02 -0.35160177296E+02  0.17787168406E+04  0.17791061881E+04  0.00000000000E+00 0.  1.
          5    1    4    4  501    0 -0.39171681611E+02  0.21437777229E+02  0.53229131030E+02  0.69604681760E+02  0.41800000000E+01 0.  1.
         -5    1    4    4    0  501 -0.74077227872E+02 -0.12675800409E+03  0.36794109132E+03  0.39617312676E+03  0.41800000000E+01 0.  1.
</event>
<event>
11    1  0.1002087E-008  0.1263289E+03  0.7561462E-02  0.1123864E+00
         22   -1    0    0    0    0  0.00000000000E+00  0.00000000000E+00  0.42212723617E+03  0.42212723617E+03  0.00000000000E+00 0.  1.
         22   -1    0    0    0    0 -0.00000000000E+00 -0.00000000000E+00 -0.54262519029E+03  0.54262519029E+03  0.00000000000E+00 0.  1.
        -24    2    1    2    0    0  0.93713551549E+01 -0.12978802284E+02 -0.43523131170E+03  0.44464111337E+03  0.89572057113E+02 0.  0.
         25    2    1    2    0    0 -0.15119744433E+02  0.29283094105E+02 -0.55519363089E+02  0.14076746804E+03  0.12508786555E+03 0.  0.
         24    2    1    2    0    0  0.57483892777E+01 -0.16304291821E+02  0.37025272067E+03  0.37934384504E+03  0.80720515968E+02 0.  0.
        -11    1    5    5    0    0 -0.12326533183E+02  0.72795754001E+01  0.32433459076E+03  0.32465036948E+03  0.00000000000E+00 0.  1.
         12    1    5    5    0    0  0.18074922460E+02 -0.23583867221E+02  0.45918129906E+02  0.54693475563E+02  0.00000000000E+00 0. -1.
         11    1    3    3    0    0 -0.61101938638E+01 -0.32522555153E+02 -0.59496533834E+02  0.68080016164E+02  0.00000000000E+00 0. -1.
        -12    1    3    3    0    0  0.15481549019E+02  0.19543752869E+02 -0.37573477786E+03  0.37656109721E+03  0.00000000000E+00 0.  1.
          5    1    4    4  501    0 -0.34773332793E+02  0.15823725710E+02  0.31973561716E+02  0.49993559762E+02  0.41800000000E+01 0.  1.
         -5    1    4    4    0  501  0.19653588360E+02  0.13459368395E+02 -0.87492924805E+02  0.90773908277E+02  0.41800000000E+01 0.  1.
</event>
<event>
11    1  0.1002087E-008  0.1375515E+03  0.7561462E-02  0.1110324E+00
         22   -1    0    0    0    0  0.00000000000E+00  0.00000000000E+00  0.37761709931E+03  0.37761709931E+03  0.00000000000E+00 0. -1.
         22   -1    0    0    0    0 -0.00000000000E+00 -0.00000000000E+00 -0.36890952546E+03  0.36890952546E+03  0.00000000000E+00 0. -1.
         24    2    1    2    0    0 -0.58003673601E+02 -0.15018256721E+02 -0.24680422056E+03  0.26640603208E+03  0.80435542242E+02 0.  0.
         25    2    1    2    0    0  0.45520050632E+02  0.66397510308E+01 -0.66183462958E+02  0.14881017853E+03  0.12509219465E+03 0.  0.
        -24    2    1    2    0    0  0.12483622969E+02  0.83785056906E+01  0.32169525737E+03  0.33131041416E+03  0.77799175561E+02 0.  0.
        -11    1    3    3    0    0  0.10620557037E+01  0.26973253160E+02 -0.83190291351E+02  0.87460327712E+02  0.00000000000E+00 0.  1.
         12    1    3    3    0    0 -0.59065729305E+02 -0.41991509881E+02 -0.16361392921E+03  0.17894570437E+03  0.00000000000E+00 0. -1.
         13    1    5    5    0    0 -0.24637111059E+02 -0.18547951648E+01  0.23686550212E+03  0.23815056918E+03  0.00000000000E+00 0. -1.
        -14    1    5    5    0    0  0.37120734028E+02  0.10233300855E+02  0.84829755243E+02  0.93159844975E+02  0.00000000000E+00 0.  1.
          5    1    4    4  501    0  0.16974215981E+02 -0.25253493412E+02 -0.93127011331E+02  0.98061080848E+02  0.41800000000E+01 0.  1.
         -5    1    4    4    0  501  0.28545834651E+02  0.31893244443E+02  0.26943548373E+02  0.50749097686E+02  0.41800000000E+01 0.  1.
</event>
<event>
11    1  0.1002087E-008  0.1580504E+04  0.7561462E-02  0.8264762E-01
         22   -1    0    0    0    0  0.00000000000E+00  0.00000000000E+00  0.11455628328E+04  0.11455628328E+04  0.00000000000E+00 0. -1.
         22   -1    0    0    0    0 -0.00000000000E+00 -0.00000000000E+00 -0.54514501505E+03  0.54514501505E+03  0.00000000000E+00 0. -1.
        -24    2    1    2    0    0  0.38163145919E+03  0.81966610652E+02  0.22282080667E+03  0.45674445999E+03  0.81272959453E+02 0.  0.
         25    2    1    2    0    0 -0.63805442682E+03 -0.23020256347E+03 -0.67668522028E+02  0.69306081112E+03  0.12509031628E+03 0.  0.
         24    2    1    2    0    0  0.25642296763E+03  0.14823595282E+03  0.44526553309E+03  0.54090257673E+03  0.81163825178E+02 0.  0.
        -11    1    5    5    0    0  0.18222434929E+03  0.88564052431E+02  0.35995843830E+03  0.41306099085E+03  0.00000000000E+00 0.  1.
         12    1    5    5    0    0  0.74198618334E+02  0.59671900390E+02  0.85307094799E+02  0.12784158589E+03  0.00000000000E+00 0. -1.
         11    1    3    3    0    0  0.83923399466E+02 -0.94115313431E+01  0.70812007835E+02  0.11020913916E+03  0.00000000000E+00 0. -1.
        -12    1    3    3    0    0  0.29770805972E+03  0.91378141995E+02  0.15200879884E+03  0.34653532083E+03  0.00000000000E+00 0.  1.
          5    1    4    4  501    0 -0.25351814094E+03 -0.88045033518E+02  0.34274691534E+02  0.27058381805E+03  0.41800000000E+01 0. -1.
         -5    1    4    4    0  501 -0.38453628588E+03 -0.14215752995E+03 -0.10194321356E+03  0.42247699307E+03  0.41800000000E+01 0. -1.
</event>
<event>
11    1  0.1002087E-008  0.1455677E+03  0.7561462E-02  0.1101496E+00
         22   -1    0    0    0    0  0.00000000000E+00  0.00000000000E+00  0.22874573011E+03  0.22874573011E+03  0.00000000000E+00 0.  1.
         22   -1    0    0    0    0 -0.00000000000E+00 -0.00000000000E+00 -0.27443088154E+03  0.27443088154E+03  0.00000000000E+00 0. -1.
        -24    2    1    2    0    0 -0.10840662824E+02 -0.75883485046E+02 -0.16307477607E+03  0.19618239631E+03  0.77577875440E+02 0.  0.
         25    2    1    2    0    0 -0.39147969410E+02 -0.18607121712E+01 -0.80557076174E+01  0.13133074811E+03  0.12508735034E+03 0.  0.
         24    2    1    2    0    0  0.49988632233E+02  0.77744197217E+02  0.12544533227E+03  0.17566346723E+03  0.81105479338E+02 0.  0.
        -11    1    5    5    0    0  0.57615549441E+02  0.22624226645E+02  0.91537387804E+02  0.11050113364E+03  0.00000000000E+00 0.  1.
         12    1    5    5    0    0 -0.76269172081E+01  0.55119970572E+02  0.33907944463E+02  0.65162333596E+02  0.00000000000E+00 0. -1.
         11    1    3    3    0    0 -0.31411710700E+02 -0.66402029991E+02 -0.15603754247E+03  0.17246344487E+03  0.00000000000E+00 0. -1.
        -12    1    3    3    0    0  0.20571047877E+02 -0.94814550542E+01 -0.70372336028E+01  0.23718951441E+02  0.00000000000E+00 0.  1.
          5    1    4    4  501    0 -0.24527404709E+02 -0.11459415625E+02  0.57318777283E+02  0.63528154526E+02  0.41800000000E+01 0. -1.
         -5    1    4    4    0  501 -0.14620564700E+02  0.95987034537E+01 -0.65374484901E+02  0.67802593580E+02  0.41800000000E+01 0. -1.
</event>
<event>
11    1  0.1002087E-008  0.1569636E+03  0.7561462E-02  0.1089968E+00
         22   -1    0    0    0    0  0.00000000000E+00  0.00000000000E+00  0.73441912181E+03  0.73441912181E+03  0.00000000000E+00 0.  1.
         22   -1    0    0    0    0 -0.00000000000E+00 -0.00000000000E+00 -0.17524591208E+03  0.17524591208E+03  0.00000000000E+00 0. -1.
        -24    2    1    2    0    0  0.96623442970E+02 -0.43194986048E+02 -0.76426665341E+02  0.15357895920E+03  0.80892304850E+02 0.  0.
         25    2    1    2    0    0 -0.55968969651E+02  0.42786630056E+02  0.33465658022E+02  0.14741336630E+03  0.12509008363E+03 0.  0.
         24    2    1    2    0    0 -0.40654473318E+02  0.40835599241E+00  0.60213421705E+03  0.60867270838E+03  0.79144789023E+02 0.  0.
        -13    1    5    5    0    0 -0.12100224045E+02  0.32076201267E+02  0.42889636839E+03  0.43026432914E+03  0.00000000000E+00 0.  1.
         14    1    5    5    0    0 -0.28554249274E+02 -0.31667845275E+02  0.17323784866E+03  0.17840837924E+03  0.00000000000E+00 0. -1.
         13    1    3    3    0    0  0.90248123878E+02 -0.53250652932E+02 -0.88102598534E+02  0.13690297210E+03  0.00000000000E+00 0. -1.
        -14    1    3    3    0    0  0.63753190912E+01  0.10055666884E+02  0.11675933192E+02  0.16675987104E+02  0.00000000000E+00 0.  1.
          5    1    4    4  501    0 -0.39521096370E+02  0.87105674551E+02  0.17407130531E+02  0.97312877826E+02  0.41800000000E+01 0.  1.
         -5    1    4    4    0  501 -0.16447873281E+02 -0.44319044495E+02  0.16058527491E+02  0.50100488477E+02  0.41800000000E+01 0.  1.
</event>
<event>
11    1  0.1002087E-008  0.1458977E+03  0.7561462E-02  0.1101146E+00
         22   -1    0    0    0    0  0.00000000000E+00  0.00000000000E+00  0.99832887054E+03  0.99832887054E+03  0.00000000000E+00 0.  1.
         22   -1    0    0    0    0 -0.00000000000E+00 -0.00000000000E+00 -0.29056767244E+03  0.29056767244E+03  0.00000000000E+00 0. -1.
        -24    2    1    2    0    0 -0.61066669208E+02 -0.43017220210E+02 -0.22963986684E+03  0.25437402134E+03  0.79950328129E+02 0.  0.
         25    2    1    2    0    0  0.69838890018E+02  0.37468890171E+02  0.70847659156E+02  0.16416383415E+03  0.12509590458E+03 0.  0.
         24    2    1    2    0    0 -0.87722208103E+01  0.55483300391E+01  0.86655340578E+03  0.87035868750E+03  0.80633144573E+02 0.  0.
        -13    1    5    5    0    0  0.24758193738E+01 -0.36739997429E+02  0.45407840807E+03  0.45556904830E+03  0.00000000000E+00 0.  1.
         14    1    5    5    0    0 -0.11248040184E+02  0.42288327468E+02  0.41247499771E+03  0.41478963919E+03  0.00000000000E+00 0. -1.
         11    1    3    3    0    0 -0.18003960174E+01 -0.42134564426E+02 -0.14524801733E+03  0.15124665115E+03  0.00000000000E+00 0. -1.
        -12    1    3    3    0    0 -0.59266273190E+02 -0.88265578402E+00 -0.84391849510E+02  0.10312737019E+03  0.00000000000E+00 0.  1.
          5    1    4    4  501    0  0.93758800357E+02 -0.58864920058E+01  0.26854368430E+02  0.97795669313E+02  0.41800000000E+01 0. -1.
         -5    1    4    4    0  501 -0.23919910340E+02  0.43355382176E+02  0.43993290726E+02  0.66368164832E+02  0.41800000000E+01 0. -1.
</event>
<event>
11    1  0.1002087E-008  0.1337750E+03  0.7561462E-02  0.1114716E+00
         22   -1    0    0    0    0  0.00000000000E+00  0.00000000000E+00  0.93726594412E+03  0.93726594412E+03  0.00000000000E+00 0.  1.
         22   -1    0    0    0    0 -0.00000000000E+00 -0.00000000000E+00 -0.38097492361E+03  0.38097492361E+03  0.00000000000E+00 0.  1.
        -24    2    1    2    0    0  0.89355075433E+01  0.46492054430E+02 -0.35255968223E+03  0.36462343317E+03  0.80065998163E+02 0.  0.
         25    2    1    2    0    0  0.30272152941E+02 -0.11137165991E+02  0.19953591103E+03  0.23770312633E+03  0.12509099395E+03 0.  0.
         24    2    1    2    0    0 -0.39207660484E+02 -0.35354888440E+02  0.70931479171E+03  0.71591430823E+03  0.81354865872E+02 0.  0.
        -13    1    5    5    0    0 -0.51821237306E+02 -0.51639821826E+02  0.61742205142E+03  0.62174118523E+03  0.00000000000E+00 0.  1.
         14    1    5    5    0    0  0.12613576822E+02  0.16284933386E+02  0.91892740292E+02  0.94173122992E+02  0.00000000000E+00 0. -1.
         13    1    3    3    0    0  0.11053183292E+02 -0.21673484683E+02 -0.77130789146E+02  0.80876890602E+02  0.00000000000E+00 0. -1.
        -14    1    3    3    0    0 -0.21176757484E+01  0.68165539114E+02 -0.27542889309E+03  0.28374654257E+03  0.00000000000E+00 0.  1.
          5    1    4    4  501    0  0.51724634308E+02 -0.57698538704E+02  0.12547070903E+03  0.14752942211E+03  0.41800000000E+01 0.  1.
         -5    1    4    4    0  501 -0.21452481367E+02  0.46561372714E+02  0.74065202004E+02  0.90173704225E+02  0.41800000000E+01 0.  1.
</event>
<event>
11    1  0.1002087E-008  0.1331037E+03  0.7561462E-02  0.1115513E+00
         22   -1    0    0    0    0  0.00000000000E+00  0.00000000000E+00  0.14551992743E+03  0.14551992743E+03  0.00000000000E+00 0. -1.
         22   -1    0    0    0    0 -0.00000000000E+00 -0.00000000000E+00 -0.86679623273E+03  0.86679623273E+03  0.00000000000E+00 0.  1.
         24    2    1    2    0    0  0.56119732246E+02 -0.31648688764E+01 -0.60209111346E+03  0.61120353579E+03  0.88862886009E+02 0.  0.
         25    2    1    2    0    0 -0.57462014828E+01 -0.23871721671E+02 -0.22355318585E+03  0.25734380387E+03  0.12508768348E+03 0.  0.
        -24    2    1    2    0    0 -0.50373530764E+02  0.27036590547E+02  0.10436799401E+03  0.14376882049E+03  0.80674195017E+02 0.  0.
        -13    1    3    3    0    0  0.15308431471E+02  0.17253929085E+01 -0.51140788441E+03  0.51163986289E+03  0.00000000000E+00 0.  1.
         14    1    3    3    0    0  0.40811300775E+02 -0.48902617849E+01 -0.90683229049E+02  0.99563672904E+02  0.00000000000E+00 0. -1.
         11    1    5    5    0    0 -0.61716654582E+02  0.11782241388E+02  0.10748819553E+03  0.12450493501E+03  0.00000000000E+00 0. -1.
        -12    1    5    5    0    0  0.11343123818E+02  0.15254349159E+02 -0.31202015159E+01  0.19263885479E+02  0.00000000000E+00 0.  1.
          5    1    4    4  501    0  0.25831958092E+02  0.44465724691E+02 -0.79981417157E+02  0.95178727779E+02  0.41800000000E+01 0. -1.
         -5    1    4    4    0  501 -0.31578159574E+02 -0.68337446362E+02 -0.14357176870E+03  0.16216507609E+03  0.41800000000E+01 0. -1.
</event>
<event>
11    1  0.1002087E-008  0.1667980E+03  0.7561462E-02  0.1080852E+00
         22   -1    0    0    0    0  0.00000000000E+00  0.00000000000E+00  0.10008104073E+04  0.10008104073E+04  0.00000000000E+00 0. -1.
         22   -1    0    0    0    0 -0.00000000000E+00 -0.00000000000E+00 -0.26459964844E+03  0.26459964844E+03  0.00000000000E+00 0. -1.
         24    2    1    2    0    0 -0.42512416995E+02 -0.98869514018E+02 -0.19932575108E+03  0.24051277598E+03  0.80827928127E+02 0.  0.
         25    2    1    2    0    0  0.62157196204E+02  0.12289690831E+03  0.16256733462E+03  0.24706211256E+03  0.12507750423E+03 0.  0.
        -24    2    1    2    0    0 -0.19644779208E+02 -0.24027394292E+02  0.77296917536E+03  0.77783516725E+03  0.81135493590E+02 0.  0.
        -11    1    3    3    0    0  0.18274875191E+02 -0.41673831315E+02 -0.39725031520E+02  0.60404945236E+02  0.00000000000E+00 0.  1.
         12    1    3    3    0    0 -0.60787292187E+02 -0.57195682703E+02 -0.15960071956E+03  0.18010783074E+03  0.00000000000E+00 0. -1.
         13    1    5    5    0    0 -0.15178680946E+02 -0.39381977699E+02  0.18934280301E+03  0.19398976668E+03  0.00000000000E+00 0. -1.
        -14    1    5    5    0    0 -0.44660982623E+01  0.15354583408E+02  0.58362637235E+03  0.58384540057E+03  0.00000000000E+00 0.  1.
          5    1    4    4  501    0 -0.10340608519E+02  0.85746978111E+02  0.30221526573E+02  0.91598501669E+02  0.41800000000E+01 0.  1.
         -5    1    4    4    0  501  0.72497804722E+02  0.37149930199E+02  0.13234580804E+03  0.15546361089E+03  0.41800000000E+01 0.  1.
</event>
<event>
11    1  0.1002087E-008  0.1301767E+03  0.7561462E-02  0.1119052E+00
         22   -1    0    0    0    0  0.00000000000E+00  0.00000000000E+00  0.19532699256E+03  0.19532699256E+03  0.00000000000E+00 0. -1.
         22   -1    0    0    0    0 -0.00000000000E+00 -0.00000000000E+00 -0.10555574823E+04  0.10555574823E+04  0.00000000000E+00 0. -1.
         24    2    1    2    0    0 -0.15309261259E+02 -0.32545233969E+02 -0.93818872405E+03  0.94231691015E+03  0.80433273573E+02 0.  0.
         25    2    1    2    0    0 -0.14107003545E+02  0.47157927799E+02 -0.58426011798E+02  0.14657578476E+03  0.12509190270E+03 0.  0.
        -24    2    1    2    0    0  0.29416264804E+02 -0.14612693830E+02  0.13638424608E+03  0.16199177997E+03  0.81005103200E+02 0.  0.
        -11    1    3    3    0    0  0.72020733394E+01 -0.12147036593E+02 -0.25712827982E+02  0.29335471382E+02  0.00000000000E+00 0.  1.
         12    1    3    3    0    0 -0.22511334598E+02 -0.20398197376E+02 -0.91247589606E+03  0.91298143877E+03  0.00000000000E+00 0. -1.
         13    1    5    5    0    0  0.14411647289E+02 -0.40467430431E+02  0.12094444889E+03  0.12834667203E+03  0.00000000000E+00 0. -1.
        -14    1    5    5    0    0  0.15004617515E+02  0.25854736601E+02  0.15439797190E+02  0.33645107947E+02  0.00000000000E+00 0.  1.
          5    1    4    4  501    0 -0.21479573621E+02  0.84656757879E+02 -0.63126165883E+02  0.10784490696E+03  0.41800000000E+01 0. -1.
         -5    1    4    4    0  501  0.73725700760E+01 -0.37498830080E+02  0.47001540851E+01  0.38730877802E+02  0.41800000000E+01 0. -1.
</event>
<event>
11    1  0.1002087E-008  0.2001052E+03  0.7561462E-02  0.1054449E+00
         22   -1    0    0    0    0  0.00000000000E+00  0.00000000000E+00  0.30697575628E+03  0.30697575628E+03  0.00000000000E+00 0. -1.
         22   -1    0    0    0    0 -0.00000000000E+00 -0.00000000000E+00 -0.80599222388E+03  0.80599222388E+03  0.00000000000E+00 0.  1.
         24    2    1    2    0    0 -0.13694183964E+02  0.76960679491E+01 -0.66494709014E+03  0.66995883476E+03  0.80271087281E+02 0.  0.
         25    2    1    2    0    0 -0.11238301167E+03  0.91635396636E+02 -0.82525405384E+01  0.19168434310E+03  0.12509114972E+03 0.  0.
        -24    2    1    2    0    0  0.12607719563E+03 -0.99331464585E+02  0.17418316307E+03  0.25132480230E+03  0.84036794560E+02 0.  0.
        -13    1    3    3    0    0  0.92046919386E+01 -0.47909938804E+01 -0.59829805542E+03  0.59838803722E+03  0.00000000000E+00 0.  1.
         14    1    3    3    0    0 -0.22898875903E+02  0.12487061829E+02 -0.66649034719E+02  0.71570797535E+02  0.00000000000E+00 0. -1.
         11    1    5    5    0    0  0.98529785529E+02 -0.11109696464E+03  0.12679479046E+03  0.19526283076E+03  0.00000000000E+00 0. -1.
        -12    1    5    5    0    0  0.27547410102E+02  0.11765500051E+02  0.47388372606E+02  0.56061971541E+02  0.00000000000E+00 0.  1.
          5    1    4    4  501    0 -0.38957847294E+02 -0.19154837115E+02  0.30446947604E+02  0.53189384928E+02  0.41800000000E+01 0.  1.
         -5    1    4    4    0  501 -0.73425164373E+02  0.11079023375E+03 -0.38699488142E+02  0.13849495818E+03  0.41800000000E+01 0.  1.
</event>
<event>
11    1  0.1002087E-008  0.1402571E+03  0.7561462E-02  0.1107272E+00
         22   -1    0    0    0    0  0.00000000000E+00  0.00000000000E+00  0.37571121974E+03  0.37571121974E+03  0.00000000000E+00 0. -1.
         22   -1    0    0    0    0 -0.00000000000E+00 -0.00000000000E+00 -0.16793679923E+04  0.16793679923E+04  0.00000000000E+00 0. -1.
         24    2    1    2    0    0 -0.48927947502E+02  0.40130867720E+02 -0.16072016139E+04  0.16104329140E+04  0.79954438703E+02 0.  0.
         25    2    1    2    0    0  0.56847523723E+02 -0.43018271141E+02  0.14268711968E+02  0.14468363892E+03  0.12509015398E+03 0.  0.
        -24    2    1    2    0    0 -0.79195762205E+01  0.28874034210E+01  0.28927612937E+03  0.29996265910E+03  0.78904125661E+02 0.  0.
        -11    1    3    3    0    0 -0.43773227921E+02  0.52281522585E+02 -0.74098114674E+03  0.74411189542E+03  0.00000000000E+00 0.  1.
         12    1    3    3    0    0 -0.51547195808E+01 -0.12150654865E+02 -0.86622046718E+03  0.86632101863E+03  0.00000000000E+00 0. -1.
         11    1    5    5    0    0 -0.26854700404E+02  0.10881640282E+02  0.27073754114E+03  0.27228367782E+03  0.00000000000E+00 0. -1.
        -12    1    5    5    0    0  0.18935124184E+02 -0.79942368614E+01  0.18538588232E+02  0.27678981276E+02  0.00000000000E+00 0.  1.
          5    1    4    4  501    0  0.48983427391E+02  0.31893495706E+02 -0.19872208322E+02  0.61878496191E+02  0.41800000000E+01 0. -1.
         -5    1    4    4    0  501  0.78640963321E+01 -0.74911766848E+02  0.34140920289E+02  0.82805142724E+02  0.41800000000E+01 0. -1.
</event>
<event>
11    1  0.1002087E-008  0.1773246E+03  0.7561462E-02  0.1071828E+00
         22   -1    0    0    0    0  0.00000000000E+00  0.00000000000E+00  0.17466326909E+04  0.17466326909E+04  0.00000000000E+00 0.  1.
         22   -1    0    0    0    0 -0.00000000000E+00 -0.00000000000E+00 -0.64062847392E+02  0.64062847392E+02  0.00000000000E+00 0. -1.
        -24    2    1    2    0    0 -0.77666709780E+01 -0.10596286002E+03  0.16957799032E+03  0.21544211796E+03  0.79813297809E+02 0.  0.
         25    2    1    2    0    0 -0.55391032218E+02  0.14990281039E+03  0.23043904249E+03  0.30706457123E+03  0.12508988604E+03 0.  0.
         24    2    1    2    0    0  0.63157703196E+02 -0.43939950361E+02  0.12825528107E+04  0.12881888491E+04  0.92569887191E+02 0.  0.
        -13    1    5    5    0    0  0.65150815989E+02 -0.68486517150E+02  0.10842686786E+04  0.10883811828E+04  0.00000000000E+00 0.  1.
         14    1    5    5    0    0 -0.19931127929E+01  0.24546566789E+02  0.19828413216E+03  0.19980766628E+03  0.00000000000E+00 0. -1.
         11    1    3    3    0    0  0.20517671719E+02 -0.10152034918E+03  0.14135974560E+03  0.17524250006E+03  0.00000000000E+00 0. -1.
        -12    1    3    3    0    0 -0.28284342697E+02 -0.44425108475E+01  0.28218244717E+02  0.40199617900E+02  0.00000000000E+00 0.  1.
          5    1    4    4  501    0  0.97262156779E+01 -0.19068443139E+02  0.24348666197E+02  0.32688449653E+02  0.41800000000E+01 0. -1.
         -5    1    4    4    0  501 -0.65117247896E+02  0.16897125353E+03  0.20609037630E+03  0.27437612158E+03  0.41800000000E+01 0. -1.
</event>
<event>
11    1  0.1002087E-008  0.1287364E+03  0.7561462E-02  0.1120831E+00
         22   -1    0    0    0    0  0.00000000000E+00  0.00000000000E+00  0.12304919947E+04  0.12304919947E+04  0.00000000000E+00 0.  1.
         22   -1    0    0    0    0 -0.00000000000E+00 -0.00000000000E+00 -0.13353581106E+03  0.13353581106E+03  0.00000000000E+00 0.  1.
         24    2    1    2    0    0  0.16443119665E+02 -0.30776034227E+02 -0.63252258826E+02  0.10836653982E+03  0.80776966011E+02 0.  0.
         25    2    1    2    0    0  0.99962373730E+01  0.19053503599E+02  0.41227159229E+02  0.13345225026E+03  0.12508742415E+03 0.  0.
        -24    2    1    2    0    0 -0.26439357038E+02  0.11722530628E+02  0.11189812832E+04  0.11222090157E+04  0.79984406597E+02 0.  0.
        -13    1    3    3    0    0 -0.88562873522E+01 -0.21854328098E+02 -0.75338920887E+02  0.78943007814E+02  0.00000000000E+00 0.  1.
         14    1    3    3    0    0  0.25299407017E+02 -0.89217061287E+01  0.12086662061E+02  0.29423532002E+02  0.00000000000E+00 0. -1.
         11    1    5    5    0    0 -0.41203300076E+02  0.30393819379E+02  0.46794634305E+03  0.47073907440E+03  0.00000000000E+00 0. -1.
        -12    1    5    5    0    0  0.14763943038E+02 -0.18671288751E+02  0.65103494017E+03  0.65146994125E+03  0.00000000000E+00 0.  1.
          5    1    4    4  501    0  0.48355926771E+02 -0.34141511877E+02  0.30980510516E+02  0.66941787539E+02  0.41800000000E+01 0. -1.
         -5    1    4    4    0  501 -0.38359689398E+02  0.53195015475E+02  0.10246648714E+02  0.66510462726E+02  0.41800000000E+01 0. -1.
</event>
<event>
11    1  0.1002087E-008  0.1599851E+03  0.7561462E-02  0.1087091E+00
         22   -1    0    0    0    0  0.00000000000E+00  0.00000000000E+00  0.18665492565E+04  0.18665492565E+04  0.00000000000E+00 0.  1.
         22   -1    0    0    0    0 -0.00000000000E+00 -0.00000000000E+00 -0.66203519825E+03  0.66203519825E+03  0.00000000000E+00 0. -1.
         24    2    1    2    0    0 -0.63136110438E+02  0.78008643548E+02 -0.62946349074E+03  0.64273536622E+03  0.82540583412E+02 0.  0.
         25    2    1    2    0    0  0.65641805445E+02 -0.48349646167E+02  0.19994201672E+03  0.24953953799E+03  0.12508651431E+03 0.  0.
        -24    2    1    2    0    0 -0.25056950073E+01 -0.29658997380E+02  0.16340355322E+04  0.16363095505E+04  0.80937567529E+02 0.  0.
        -11    1    3    3    0    0  0.13270946621E+02  0.17789170374E+02 -0.44393075371E+02  0.49631821926E+02  0.00000000000E+00 0.  1.
         12    1    3    3    0    0 -0.76407057059E+02  0.60219473173E+02 -0.58507041537E+03  0.59310354429E+03  0.00000000000E+00 0. -1.
         13    1    5    5    0    0  0.41808775837E+01  0.17151588697E+02  0.10006200761E+03  0.10160739195E+03  0.00000000000E+00 0. -1.
        -14    1    5    5    0    0 -0.66865725910E+01 -0.46810586078E+02  0.15339735246E+04  0.15347021585E+04  0.00000000000E+00 0.  1.
          5    1    4    4  501    0  0.80024026160E+02  0.17002106518E+02  0.11835151491E+03  0.14393564489E+03  0.41800000000E+01 0.  1.
         -5    1    4    4    0  501 -0.14382220715E+02 -0.65351752685E+02  0.81590501816E+02  0.10560389310E+03  0.41800000000E+01 0.  1.
</event>
<event>
11    1  0.1002087E-008  0.2522494E+03  0.7561462E-02  0.1022708E+00
         22   -1    0    0    0    0  0.00000000000E+00  0.00000000000E+00  0.16408281055E+03  0.16408281055E+03  0.00000000000E+00 0. -1.
         22   -1    0    0    0    0 -0.00000000000E+00 -0.00000000000E+00 -0.24356953516E+04  0.24356953516E+04  0.00000000000E+00 0. -1.
        -24    2    1    2    0    0 -0.60571634328E+02  0.20409890867E+03 -0.19877845106E+04  0.20007532116E+04  0.80005409078E+02 0.  0.
         25    2    1    2    0    0  0.98351406264E+02 -0.25172342889E+03 -0.36428796719E+03  0.47052228214E+03  0.12509121148E+03 0.  0.
         24    2    1    2    0    0 -0.37779771935E+02  0.47624520218E+02  0.80459936755E+02  0.12850266846E+03  0.79647525297E+02 0.  0.
        -11    1    5    5    0    0 -0.44159371203E+01 -0.11049734482E+02 -0.10064253174E+02  0.15584810706E+02  0.00000000000E+00 0.  1.
         12    1    5    5    0    0 -0.33363834815E+02  0.58674254700E+02  0.90524189928E+02  0.11291785776E+03  0.00000000000E+00 0. -1.
         13    1    3    3    0    0 -0.37610916693E+02  0.16731043831E+03 -0.12516969905E+04  0.12633893778E+04  0.00000000000E+00 0. -1.
        -14    1    3    3    0    0 -0.22960717635E+02  0.36788470364E+02 -0.73608752015E+03  0.73736383382E+03  0.00000000000E+00 0.  1.
          5    1    4    4  501    0  0.12217787835E+03 -0.19345006408E+03 -0.24291849302E+03  0.33373226980E+03  0.41800000000E+01 0.  1.
         -5    1    4    4    0  501 -0.23826472091E+02 -0.58273364812E+02 -0.12136947417E+03  0.13679001235E+03  0.41800000000E+01 0.  1.
</event>
<event>
11    1  0.1002087E-008  0.1285416E+03  0.7561462E-02  0.1121074E+00
         22   -1    0    0    0    0  0.00000000000E+00  0.00000000000E+00  0.62482740750E+03  0.62482740750E+03  0.00000000000E+00 0. -1.
         22   -1    0    0    0    0 -0.00000000000E+00 -0.00000000000E+00 -0.29647100216E+03  0.29647100216E+03  0.00000000000E+00 0. -1.
        -24    2    1    2    0    0  0.20411131060E+02  0.12750768860E+01 -0.25712003331E+03  0.27146276445E+03  0.84634986019E+02 0.  0.
         25    2    1    2    0    0 -0.56646695351E+00 -0.25133666599E+02  0.11648224973E+03  0.17276426047E+03  0.12508938049E+03 0.  0.
         24    2    1    2    0    0 -0.19844664106E+02  0.23858589713E+02  0.46899418891E+03  0.47707138474E+03  0.81722175114E+02 0.  0.
        -13    1    5    5    0    0 -0.12967652547E+02 -0.59578180170E+01  0.10902451999E+02  0.17958815876E+02  0.00000000000E+00 0.  1.
         14    1    5    5    0    0 -0.68770115598E+01  0.29816407730E+02  0.45809173692E+03  0.45911256886E+03  0.00000000000E+00 0. -1.
         11    1    3    3    0    0  0.35283307175E+02 -0.28949161304E+01 -0.25301654589E+03  0.25548124158E+03  0.00000000000E+00 0. -1.
        -12    1    3    3    0    0 -0.14872176115E+02  0.41699930163E+01 -0.41034874221E+01  0.15981522868E+02  0.00000000000E+00 0.  1.
          5    1    4    4  501    0 -0.62359296863E+02 -0.63542820514E+01  0.54941393238E+02  0.83457102133E+02  0.41800000000E+01 0. -1.
         -5    1    4    4    0  501  0.61792829909E+02 -0.18779384548E+02  0.61540856497E+02  0.89307158339E+02  0.41800000000E+01 0. -1.
</event>
<event>
11    1  0.1002087E-008  0.1306686E+03  0.7561462E-02  0.1118450E+00
         22   -1    0    0    0    0  0.00000000000E+00  0.00000000000E+00  0.63239955640E+03  0.63239955640E+03  0.00000000000E+00 0. -1.
         22   -1    0    0    0    0 -0.00000000000E+00 -0.00000000000E+00 -0.35402244148E+03  0.35402244148E+03  0.00000000000E+00 0.  1.
         24    2    1    2    0    0  0.19361891573E+02 -0.19772495200E+02 -0.15797301670E+03  0.17950160261E+03  0.80619581513E+02 0.  0.
         25    2    1    2    0    0 -0.45785783135E+02  0.43172934007E+02 -0.15535492870E+03  0.20915348542E+03  0.12509910639E+03 0.  0.
        -24    2    1    2    0    0  0.26423891562E+02 -0.23400438808E+02  0.59170506032E+03  0.59776690986E+03  0.77230806845E+02 0.  0.
        -11    1    3    3    0    0  0.20988384506E+02 -0.48175172771E+02 -0.73396574087E+02  0.90268580599E+02  0.00000000000E+00 0.  1.
         12    1    3    3    0    0 -0.16264929333E+01  0.28402677571E+02 -0.84576442610E+02  0.89233022010E+02  0.00000000000E+00 0. -1.
         11    1    5    5    0    0  0.15874639113E+02 -0.49297416114E+02  0.27534044340E+03  0.28016887617E+03  0.00000000000E+00 0. -1.
        -12    1    5    5    0    0  0.10549252449E+02  0.25896977307E+02  0.31636461692E+03  0.31759803369E+03  0.00000000000E+00 0.  1.
          5    1    4    4  501    0 -0.19900685557E+02  0.73415793360E+02 -0.37942718205E+02  0.85106041296E+02  0.41800000000E+01 0. -1.
         -5    1    4    4    0  501 -0.25885097578E+02 -0.30242859352E+02 -0.11741221050E+03  0.12404744412E+03  0.41800000000E+01 0. -1.
</event>
<event>
11    1  0.1002087E-008  0.2336644E+03  0.7561462E-02  0.1032980E+00
         22   -1    0    0    0    0  0.00000000000E+00  0.00000000000E+00  0.25867856145E+04  0.25867856145E+04  0.00000000000E+00 0. -1.
         22   -1    0    0    0    0 -0.00000000000E+00 -0.00000000000E+00 -0.19741393479E+03  0.19741393479E+03  0.00000000000E+00 0. -1.
        -24    2    1    2    0    0 -0.19504275657E+03 -0.40567505010E+02 -0.11990267498E+03  0.24604253433E+03  0.80454197393E+02 0.  0.
         25    2    1    2    0    0  0.16794336276E+03  0.41583980849E+02  0.81905551064E+03  0.84642340667E+03  0.12508578370E+03 0.  0.
         24    2    1    2    0    0  0.27099393809E+02 -0.10164758393E+01  0.16902188441E+04  0.16917336083E+04  0.66237831077E+02 0.  0.
        -11    1    5    5    0    0  0.21308659599E+01  0.22543204386E+02  0.23014730031E+03  0.23125854901E+03  0.00000000000E+00 0.  1.
         12    1    5    5    0    0  0.24968527849E+02 -0.23559680225E+02  0.14600715438E+04  0.14604750593E+04  0.00000000000E+00 0. -1.
         13    1    3    3    0    0 -0.17714453677E+03 -0.10423679462E+02 -0.11281507337E+03  0.21027620117E+03  0.00000000000E+00 0. -1.
        -14    1    3    3    0    0 -0.17898219796E+02 -0.30143825548E+02 -0.70876016146E+01  0.35766333152E+02  0.00000000000E+00 0.  1.
          5    1    4    4  501    0  0.17442585451E+03  0.12302533684E+02  0.59016707007E+03  0.61554071682E+03  0.41800000000E+01 0. -1.
         -5    1    4    4    0  501 -0.64824917580E+01  0.29281447164E+02  0.22888844057E+03  0.23088268985E+03  0.41800000000E+01 0. -1.
</event>
<event>
11    1  0.1002087E-008  0.1849475E+03  0.7561462E-02  0.1065710E+00
         22   -1    0    0    0    0  0.00000000000E+00  0.00000000000E+00  0.31366563217E+03  0.31366563217E+03  0.00000000000E+00 0. -1.
         22   -1    0    0    0    0 -0.00000000000E+00 -0.00000000000E+00 -0.11372650683E+04  0.11372650683E+04  0.00000000000E+00 0.  1.
         24    2    1    2    0    0  0.93486314682E+02  0.28433861154E+02 -0.10306009425E+04  0.10383429485E+04  0.80433827225E+02 0.  0.
         25    2    1    2    0    0 -0.11533937378E+03 -0.13604684777E+03  0.15264524880E+03  0.26600843807E+03  0.12509197102E+03 0.  0.
        -24    2    1    2    0    0  0.21853059098E+02  0.10761298662E+03  0.54356257538E+02  0.14657931391E+03  0.80453598136E+02 0.  0.
        -11    1    3    3    0    0 -0.46234659211E+01  0.85620274396E+01 -0.37658285990E+03  0.37670855462E+03  0.00000000000E+00 0.  1.
         12    1    3    3    0    0  0.98109780603E+02  0.19871833714E+02 -0.65401808259E+03  0.66163439389E+03  0.00000000000E+00 0. -1.
         11    1    5    5    0    0 -0.24836500625E+02  0.61518396627E+02  0.93068394369E+01  0.66992403653E+02  0.00000000000E+00 0. -1.
        -12    1    5    5    0    0  0.46689559723E+02  0.46094589989E+02  0.45049418101E+02  0.79586910259E+02  0.00000000000E+00 0.  1.
          5    1    4    4  501    0 -0.28366345448E+02 -0.32663799007E+02  0.11904181527E+03  0.12672805333E+03  0.41800000000E+01 0.  1.
         -5    1    4    4    0  501 -0.86973028332E+02 -0.10338304876E+03  0.33603433535E+02  0.13928038474E+03  0.41800000000E+01 0.  1.
</event>
<event>
11    1  0.1002087E-008  0.1520771E+03  0.7561462E-02  0.1094775E+00
         22   -1    0    0    0    0  0.00000000000E+00  0.00000000000E+00  0.87972249620E+03  0.87972249620E+03  0.00000000000E+00 0. -1.
         22   -1    0    0    0    0 -0.00000000000E+00 -0.00000000000E+00 -0.20454096848E+03  0.20454096848E+03  0.00000000000E+00 0. -1.
         24    2    1    2    0    0  0.73658348081E+02 -0.67842091364E+01 -0.13674611132E+03  0.17551554038E+03  0.81453227178E+02 0.  0.
         25    2    1    2    0    0 -0.15147269577E+03 -0.78896159541E+01  0.17881929861E+03  0.26577204382E+03  0.12510880910E+03 0.  0.
        -24    2    1    2    0    0  0.77814347693E+02  0.14673825091E+02  0.63310834043E+03  0.64297588048E+03  0.79507347535E+02 0.  0.
        -13    1    3    3    0    0 -0.94967567345E+01  0.19164333183E+01  0.50346538958E+01  0.10918280313E+02  0.00000000000E+00 0.  1.
         14    1    3    3    0    0  0.83155104816E+02 -0.87006424548E+01 -0.14178076522E+03  0.16459726007E+03  0.00000000000E+00 0. -1.
         13    1    5    5    0    0  0.77327491360E+02  0.21343599382E+01  0.62008081699E+03  0.62488744267E+03  0.00000000000E+00 0. -1.
        -14    1    5    5    0    0  0.48685633289E+00  0.12539465152E+02  0.13027523437E+02  0.18088437807E+02  0.00000000000E+00 0.  1.
          5    1    4    4  501    0 -0.57899198881E+02 -0.32485124991E+02  0.15101572494E+03  0.16501764196E+03  0.41800000000E+01 0. -1.
         -5    1    4    4    0  501 -0.93573496893E+02  0.24595509037E+02  0.27803573665E+02  0.10075440186E+03  0.41800000000E+01 0. -1.
</event>
<event>
11    1  0.1002087E-008  0.1273979E+03  0.7561462E-02  0.1122508E+00
         22   -1    0    0    0    0  0.00000000000E+00  0.00000000000E+00  0.14730986797E+03  0.14730986797E+03  0.00000000000E+00 0. -1.
         22   -1    0    0    0    0 -0.00000000000E+00 -0.00000000000E+00 -0.16133290625E+04  0.16133290625E+04  0.00000000000E+00 0. -1.
         24    2    1    2    0    0  0.14010716451E+02 -0.14423618577E+01 -0.14810967228E+04  0.14832585146E+04  0.78803162330E+02 0.  0.
         25    2    1    2    0    0 -0.23061606586E+02  0.22847180282E+02 -0.77452692209E+02  0.15065992138E+03  0.12508261684E+03 0.  0.
        -24    2    1    2    0    0  0.90508901349E+01 -0.21404818425E+02  0.92530220477E+02  0.12672049444E+03  0.83403579932E+02 0.  0.
        -13    1    3    3    0    0  0.34663729440E+02  0.26831305518E+02 -0.94826659570E+03  0.94927921583E+03  0.00000000000E+00 0.  1.
         14    1    3    3    0    0 -0.20653012989E+02 -0.28273667375E+02 -0.53283012706E+03  0.53397929877E+03  0.00000000000E+00 0. -1.
         11    1    5    5    0    0  0.14201728910E+02 -0.19874871644E+02  0.10779996113E+03  0.11053294191E+03  0.00000000000E+00 0. -1.
        -12    1    5    5    0    0 -0.51508387748E+01 -0.15299467801E+01 -0.15269740655E+02  0.16187552530E+02  0.00000000000E+00 0.  1.
          5    1    4    4  501    0  0.96005376129E+01 -0.43504492758E+02 -0.18017883794E+01  0.44783144753E+02  0.41800000000E+01 0.  1.
         -5    1    4    4    0  501 -0.32662144199E+02  0.66351673040E+02 -0.75650903830E+02  0.10587677663E+03  0.41800000000E+01 0.  1.
</event>
<event>
11    1  0.1002087E-008  0.2542442E+03  0.7561462E-02  0.1021662E+00
         22   -1    0    0    0    0  0.00000000000E+00  0.00000000000E+00  0.77247023439E+03  0.77247023439E+03  0.00000000000E+00 0.  1.
         22   -1    0    0    0    0 -0.00000000000E+00 -0.00000000000E+00 -0.35739900950E+03  0.35739900950E+03  0.00000000000E+00 0.  1.
         24    2    1    2    0    0  0.13749349716E+03  0.17064842143E+03 -0.13203649295E+03  0.27265018224E+03  0.94229193502E+02 0.  0.
         25    2    1    2    0    0 -0.14442434034E+03 -0.17222158007E+03 -0.43482780936E+02  0.26087723786E+03  0.12509004064E+03 0.  0.
        -24    2    1    2    0    0  0.69308431819E+01  0.15731586395E+01  0.59059049877E+03  0.59634182379E+03  0.82315989620E+02 0.  0.
        -13    1    3    3    0    0  0.78829298542E+02  0.27313407960E+02 -0.52146783739E+02  0.98383777206E+02  0.00000000000E+00 0.  1.
         14    1    3    3    0    0  0.58664198618E+02  0.14333501347E+03 -0.79889709209E+02  0.17426640504E+03  0.00000000000E+00 0. -1.
         13    1    5    5    0    0 -0.15047269304E+02  0.29993469726E+02  0.12690444762E+03  0.13126601756E+03  0.00000000000E+00 0. -1.
        -14    1    5    5    0    0  0.21978112486E+02 -0.28420311086E+02  0.46368605115E+03  0.46507580623E+03  0.00000000000E+00 0.  1.
          5    1    4    4  501    0 -0.13434666640E+03 -0.12378827342E+03  0.15964355429E+02  0.18342545203E+03  0.41800000000E+01 0.  1.
         -5    1    4    4    0  501 -0.10077673943E+02 -0.48433306651E+02 -0.59447136365E+02  0.77451785823E+02  0.41800000000E+01 0.  1.
</event>
<event>
11    1  0.1002087E-008  0.1399068E+03  0.7561462E-02  0.1107663E+00
         22   -1    0    0    0    0  0.00000000000E+00  0.00000000000E+00  0.62654093620E+03  0.62654093620E+03  0.00000000000E+00 0. -1.
         22   -1    0    0    0    0 -0.00000000000E+00 -0.00000000000E+00 -0.45041877237E+03  0.45041877237E+03  0.00000000000E+00 0. -1.
        -24    2    1    2    0    0  0.49476001702E+02 -0.44688422501E+02 -0.40371493976E+03  0.41570294524E+03  0.73336595518E+02 0.  0.
         25    2    1    2    0    0 -0.67902625001E+02 -0.18921295462E+02  0.11267490459E+03  0.18251549825E+03  0.12508993195E+03 0.  0.
         24    2    1    2    0    0  0.18426623299E+02  0.63609717963E+02  0.46716219901E+03  0.47874126509E+03  0.81036670995E+02 0.  0.
        -13    1    5    5    0    0 -0.16476316176E+02 -0.66754653127E+01  0.32428563485E+02  0.36981651687E+02  0.00000000000E+00 0.  1.
         14    1    5    5    0    0  0.34902939475E+02  0.70285183276E+02  0.43473363553E+03  0.44175961340E+03  0.00000000000E+00 0. -1.
         13    1    3    3    0    0 -0.62195460781E+01 -0.36673048248E+02 -0.97367307782E+02  0.10423045546E+03  0.00000000000E+00 0. -1.
        -14    1    3    3    0    0  0.55695547780E+02 -0.80153742528E+01 -0.30634763198E+03  0.31147248977E+03  0.00000000000E+00 0.  1.
          5    1    4    4  501    0  0.26362276823E+02  0.49249039826E+01 -0.72252846700E+01  0.28087389646E+02  0.41800000000E+01 0.  1.
         -5    1    4    4    0  501 -0.94264901824E+02 -0.23846199445E+02  0.11990018926E+03  0.15442810861E+03  0.41800000000E+01 0.  1.
</event>
<event>
11    1  0.1002087E-008  0.1670091E+03  0.7561462E-02  0.1080664E+00
         22   -1    0    0    0    0  0.00000000000E+00  0.00000000000E+00  0.48440029593E+03  0.48440029593E+03  0.00000000000E+00 0. -1.
         22   -1    0    0    0    0 -0.00000000000E+00 -0.00000000000E+00 -0.30369850115E+03  0.30369850115E+03  0.00000000000E+00 0. -1.
         24    2    1    2    0    0 -0.70295921055E+02  0.76636728535E+02 -0.18830116289E+03  0.22956208898E+03  0.80166826513E+02 0.  0.
         25    2    1    2    0    0  0.10758541992E+03 -0.96050991067E+02  0.13318984800E+02  0.19138121988E+03  0.12509580530E+03 0.  0.
        -24    2    1    2    0    0 -0.37289498866E+02  0.19414262532E+02  0.35568397287E+03  0.36715548822E+03  0.80775266399E+02 0.  0.
        -11    1    3    3    0    0 -0.82951509287E+02  0.69984360701E+02 -0.12909628726E+03  0.16865531424E+03  0.00000000000E+00 0.  1.
         12    1    3    3    0    0  0.12655588232E+02  0.66523678345E+01 -0.59204875628E+02  0.60906774742E+02  0.00000000000E+00 0. -1.
         13    1    5    5    0    0 -0.55823222578E+02  0.24801400908E+02  0.32651049448E+03  0.33217532219E+03  0.00000000000E+00 0. -1.
        -14    1    5    5    0    0  0.18533723712E+02 -0.53871383769E+01  0.29173478388E+02  0.34980166034E+02  0.00000000000E+00 0.  1.
          5    1    4    4  501    0 -0.98469314051E+00  0.26573490874E+02  0.46560389918E+01  0.27317963631E+02  0.41800000000E+01 0. -1.
         -5    1    4    4    0  501  0.10857011306E+03 -0.12262448194E+03  0.86629458087E+01  0.16406325625E+03  0.41800000000E+01 0. -1.
</event>
<event>
11    1  0.1002087E-008  0.1737261E+03  0.7561462E-02  0.1074834E+00
         22   -1    0    0    0    0  0.00000000000E+00  0.00000000000E+00  0.17526202517E+04  0.17526202517E+04  0.00000000000E+00 0. -1.
         22   -1    0    0    0    0 -0.00000000000E+00 -0.00000000000E+00 -0.15053920080E+03  0.15053920080E+03  0.00000000000E+00 0. -1.
         24    2    1    2    0    0 -0.90814030266E+01 -0.48629177268E+01 -0.11390262737E+03  0.13971137592E+03  0.80245499504E+02 0.  0.
         25    2    1    2    0    0  0.46545136575E+02  0.11818329454E+03  0.37951469583E+03  0.41929650029E+03  0.12507761576E+03 0.  0.
        -24    2    1    2    0    0 -0.37463733549E+02 -0.11332037681E+03  0.13364689824E+04  0.13441515763E+04  0.79681113494E+02 0.  0.
        -11    1    3    3    0    0 -0.16156628935E+02 -0.39484503778E+02 -0.43448571428E+02  0.60892044277E+02  0.00000000000E+00 0.  1.
         12    1    3    3    0    0  0.70752259088E+01  0.34621586051E+02 -0.70454055939E+02  0.78819331643E+02  0.00000000000E+00 0. -1.
         13    1    5    5    0    0 -0.53322189501E+02 -0.97237958241E+02  0.85624804546E+03  0.86339978675E+03  0.00000000000E+00 0. -1.
        -14    1    5    5    0    0  0.15858455952E+02 -0.16082418569E+02  0.48022093699E+03  0.48075178953E+03  0.00000000000E+00 0.  1.
          5    1    4    4  501    0  0.15403478102E+02  0.13163876527E+03  0.22606171903E+03  0.26208282063E+03  0.41800000000E+01 0. -1.
         -5    1    4    4    0  501  0.31141658473E+02 -0.13455470735E+02  0.15345297680E+03  0.15721367967E+03  0.41800000000E+01 0. -1.
</event>
<event>
11    1  0.1002087E-008  0.1524333E+03  0.7561462E-02  0.1094418E+00
         22   -1    0    0    0    0  0.00000000000E+00  0.00000000000E+00  0.28492346552E+03  0.28492346552E+03  0.00000000000E+00 0. -1.
         22   -1    0    0    0    0 -0.00000000000E+00 -0.00000000000E+00 -0.28248053672E+03  0.28248053672E+03  0.00000000000E+00 0. -1.
        -24    2    1    2    0    0 -0.37478235927E+01  0.20491049348E+02 -0.18607048010E+03  0.20461924694E+03  0.82540192440E+02 0.  0.
         25    2    1    2    0    0 -0.23626310664E+02  0.66955570332E+02  0.79047765314E+01  0.14405365476E+03  0.12509084300E+03 0.  0.
         24    2    1    2    0    0  0.27374134257E+02 -0.87446619680E+02  0.18060863236E+03  0.21873110054E+03  0.82629061120E+02 0.  0.
        -13    1    5    5    0    0 -0.12253672824E+01  0.66756106423E+01 -0.51589097083E+01  0.85252361728E+01  0.00000000000E+00 0.  1.
         14    1    5    5    0    0  0.28599501539E+02 -0.94122230323E+02  0.18576754207E+03  0.21020586437E+03  0.00000000000E+00 0. -1.
         11    1    3    3    0    0  0.74736855311E-01  0.41872274158E+02 -0.17556977626E+03  0.18049387598E+03  0.00000000000E+00 0. -1.
        -12    1    3    3    0    0 -0.38225604480E+01 -0.21381224810E+02 -0.10500703832E+02  0.24125370955E+02  0.00000000000E+00 0.  1.
          5    1    4    4  501    0  0.27843895978E+01 -0.33286126534E+02 -0.16478890208E+02  0.37479931531E+02  0.41800000000E+01 0.  1.
         -5    1    4    4    0  501 -0.26410700262E+02  0.10024169687E+03  0.24383666740E+02  0.10657372323E+03  0.41800000000E+01 0.  1.
</event>
<event>
11    1  0.1002087E-008  0.1909491E+03  0.7561462E-02  0.1061115E+00
         22   -1    0    0    0    0  0.00000000000E+00  0.00000000000E+00  0.39575285624E+03  0.39575285624E+03  0.00000000000E+00 0. -1.
         22   -1    0    0    0    0 -0.00000000000E+00 -0.00000000000E+00 -0.25295715553E+04  0.25295715553E+04  0.00000000000E+00 0. -1.
         24    2    1    2    0    0  0.38348287636E+02  0.52571857830E+02 -0.23001213222E+04  0.23024123586E+04  0.79436646321E+02 0.  0.
         25    2    1    2    0    0 -0.10388691176E+02 -0.19016334322E+03 -0.14624534184E+03  0.27074927001E+03  0.12508974854E+03 0.  0.
        -24    2    1    2    0    0 -0.27959596460E+02  0.13759148539E+03  0.31254796496E+03  0.35216278295E+03  0.81358708262E+02 0.  0.
        -13    1    3    3    0    0 -0.42620891136E+01  0.58958894309E+02 -0.14393809166E+04  0.14405942315E+04  0.00000000000E+00 0.  1.
         14    1    3    3    0    0  0.42610376750E+02 -0.63870364789E+01 -0.86074040552E+03  0.86181812706E+03  0.00000000000E+00 0. -1.
         11    1    5    5    0    0 -0.45306370167E+02  0.10736037835E+03  0.17485260016E+03  0.21012460541E+03  0.00000000000E+00 0. -1.
        -12    1    5    5    0    0  0.17346773706E+02  0.30231107035E+02  0.13769536481E+03  0.14203817754E+03  0.00000000000E+00 0.  1.
          5    1    4    4  501    0  0.34852389850E+02 -0.13922984472E+03 -0.14265135690E+03  0.20240187935E+03  0.41800000000E+01 0. -1.
         -5    1    4    4    0  501 -0.45241081026E+02 -0.50933498497E+02 -0.35939849394E+01  0.68347390655E+02  0.41800000000E+01 0. -1.
</event>
<event>
11    1  0.1002087E-008  0.1416073E+03  0.7561462E-02  0.1105777E+00
         22   -1    0    0    0    0  0.00000000000E+00  0.00000000000E+00  0.21177336901E+03  0.21177336901E+03  0.00000000000E+00 0.  1.
         22   -1    0    0    0    0 -0.00000000000E+00 -0.00000000000E+00 -0.50662972150E+03  0.50662972150E+03  0.00000000000E+00 0. -1.
         24    2    1    2    0    0  0.19592603531E+02 -0.66634172826E+01 -0.42084360986E+03  0.42918151240E+03  0.81603648082E+02 0.  0.
         25    2    1    2    0    0 -0.12446131182E+02  0.71212674770E+02  0.27895024439E+02  0.14714554983E+03  0.12509008440E+03 0.  0.
        -24    2    1    2    0    0 -0.71464723485E+01 -0.64549257488E+02  0.98092232936E+02  0.14207602828E+03  0.79660736510E+02 0.  0.
        -11    1    3    3    0    0 -0.58999234750E+01  0.22645761365E+01  0.10653913241E+01  0.64087799745E+01  0.00000000000E+00 0.  1.
         12    1    3    3    0    0  0.25492527006E+02 -0.89279934192E+01 -0.42190900119E+03  0.42277273242E+03  0.00000000000E+00 0. -1.
         11    1    5    5    0    0 -0.20573104075E+02 -0.65015487565E+02  0.33269479786E+02  0.75875717590E+02  0.00000000000E+00 0. -1.
        -12    1    5    5    0    0  0.13426631726E+02  0.46623007725E+00  0.64822753150E+02  0.66200310693E+02  0.00000000000E+00 0.  1.
          5    1    4    4  501    0 -0.48287480408E+02  0.66512774232E+00 -0.22288073177E+02  0.53351230211E+02  0.41800000000E+01 0. -1.
         -5    1    4    4    0  501  0.35841349226E+02  0.70547547028E+02  0.50183097616E+02  0.93794319617E+02  0.41800000000E+01 0. -1.
</event>
<event>
11    1  0.1002087E-008  0.4135552E+03  0.7561462E-02  0.9610588E-01
         22   -1    0    0    0    0  0.00000000000E+00  0.00000000000E+00  0.18696339963E+04  0.18696339963E+04  0.00000000000E+00 0. -1.
         22   -1    0    0    0    0 -0.00000000000E+00 -0.00000000000E+00 -0.25677749750E+03  0.25677749750E+03  0.00000000000E+00 0. -1.
         24    2    1    2    0    0 -0.42044642834E+02  0.36268182632E+03  0.63658049168E+02  0.37938560928E+03  0.81087817650E+02 0.  0.
         25    2    1    2    0    0  0.21667981639E+03 -0.49825235303E+03  0.92393157133E+03  0.10791212833E+04  0.12509054858E+03 0.  0.
        -24    2    1    2    0    0 -0.17463517355E+03  0.13557052671E+03  0.62526687828E+03  0.66790460124E+03  0.79126959558E+02 0.  0.
        -13    1    3    3    0    0 -0.18655663560E+02  0.13777192616E+03 -0.15311946700E+02  0.13986991504E+03  0.00000000000E+00 0.  1.
         14    1    3    3    0    0 -0.23388979273E+02  0.22490990016E+03  0.78969995868E+02  0.23951569424E+03  0.00000000000E+00 0. -1.
         11    1    5    5    0    0 -0.18090886913E+03  0.13783773120E+03  0.59685031561E+03  0.63871555353E+03  0.00000000000E+00 0. -1.
        -12    1    5    5    0    0  0.62736955792E+01 -0.22672044890E+01  0.28416562677E+02  0.29189047720E+02  0.00000000000E+00 0.  1.
          5    1    4    4  501    0  0.26124862262E+02 -0.22421635376E+02  0.20173809080E+02  0.40120981218E+02  0.41800000000E+01 0. -1.
         -5    1    4    4    0  501  0.19055495413E+03 -0.47583071766E+03  0.90375776225E+03  0.10390003020E+04  0.41800000000E+01 0. -1.
</event>
<event>
11    1  0.1002087E-008  0.2787438E+03  0.7561462E-02  0.1009611E+00
         22   -1    0    0    0    0  0.00000000000E+00  0.00000000000E+00  0.94403279300E+03  0.94403279300E+03  0.00000000000E+00 0. -1.
         22   -1    0    0    0    0 -0.00000000000E+00 -0.00000000000E+00 -0.22795479561E+04  0.22795479561E+04  0.00000000000E+00 0.  1.
         24    2    1    2    0    0 -0.21490852493E+03  0.12390383455E+03 -0.19601006636E+04  0.19774638437E+04  0.82648697834E+02 0.  0.
         25    2    1    2    0    0  0.20535800683E+03 -0.15795652889E+03 -0.24148222317E+03  0.37561012964E+03  0.12508848626E+03 0.  0.
        -24    2    1    2    0    0  0.95505180993E+01  0.34052694341E+02  0.86606772371E+03  0.87050677576E+03  0.80361347671E+02 0.  0.
        -11    1    3    3    0    0 -0.18656558815E+03  0.11743351011E+03 -0.14631892967E+04  0.14797027627E+04  0.00000000000E+00 0.  1.
         12    1    3    3    0    0 -0.28342936778E+02  0.64703244396E+01 -0.49691136697E+03  0.49776108103E+03  0.00000000000E+00 0. -1.
         13    1    5    5    0    0  0.32143392597E+02  0.43300588489E+02  0.37782526235E+03  0.38165438229E+03  0.00000000000E+00 0. -1.
        -14    1    5    5    0    0 -0.22592874497E+02 -0.92478941483E+01  0.48824246136E+03  0.48885239347E+03  0.00000000000E+00 0.  1.
          5    1    4    4  501    0  0.20956236557E+03 -0.12853394846E+03 -0.17241351268E+03  0.30030193593E+03  0.41800000000E+01 0. -1.
         -5    1    4    4    0  501 -0.42043587343E+01 -0.29422580427E+02 -0.69068710490E+02  0.75308193712E+02  0.41800000000E+01 0. -1.
</event>
<event>
11    1  0.1002087E-008  0.8911907E+03  0.7561462E-02  0.8790006E-01
         22   -1    0    0    0    0  0.00000000000E+00  0.00000000000E+00  0.16680794531E+04  0.16680794531E+04  0.00000000000E+00 0. -1.
         22   -1    0    0    0    0 -0.00000000000E+00 -0.00000000000E+00 -0.11903221993E+03  0.11903221993E+03  0.00000000000E+00 0. -1.
        -24    2    1    2    0    0 -0.15349946023E+03  0.32026340235E+03  0.71019118192E+03  0.79813357399E+03  0.80715276531E+02 0.  0.
         25    2    1    2    0    0  0.16036419902E+03 -0.36950178168E+03  0.61078251431E+03  0.74226032909E+03  0.12508746285E+03 0.  0.
         24    2    1    2    0    0 -0.68647387925E+01  0.49238379327E+02  0.22807353695E+03  0.24671776997E+03  0.79878514787E+02 0.  0.
        -11    1    5    5    0    0  0.25417008545E+02  0.65518032820E+01  0.14862295103E+03  0.15092293405E+03  0.00000000000E+00 0.  1.
         12    1    5    5    0    0 -0.32281747337E+02  0.42686576045E+02  0.79450585914E+02  0.95794835913E+02  0.00000000000E+00 0. -1.
         11    1    3    3    0    0 -0.83437661000E+02  0.24569104311E+03  0.54866157215E+03  0.60692293802E+03  0.00000000000E+00 0. -1.
        -12    1    3    3    0    0 -0.70061799226E+02  0.74572359239E+02  0.16152960977E+03  0.19121063596E+03  0.00000000000E+00 0.  1.
          5    1    4    4  501    0 -0.49906914524E+01 -0.10127323963E+02 -0.26454104103E+01  0.12326406129E+02  0.41800000000E+01 0. -1.
         -5    1    4    4    0  501  0.16535489047E+03 -0.35937445772E+03  0.61342792472E+03  0.72993392296E+03  0.41800000000E+01 0. -1.
</event>
<event>
11    1  0.1011022E-008  0.1992527E+03  0.7561462E-02  0.1055053E+00
         22   -1    0    0    0    0  0.00000000000E+00  0.00000000000E+00  0.10816661070E+04  0.10816661070E+04  0.00000000000E+00 0.  1.
         22   -1    0    0    0    0 -0.00000000000E+00 -0.00000000000E+00 -0.33556227788E+03  0.33556227788E+03  0.00000000000E+00 0.  1.
         24    2    1    2    0    0  0.48699830799E+02  0.32396576135E+02 -0.24783606782E+03  0.26706991333E+03  0.80513417705E+02 0.  0.
         25    2    1    2    0    0  0.43787629307E+02  0.99201559192E+02  0.28260595452E+02  0.16794198429E+03  0.12509013952E+03 0.  0.
        -24    2    1    2    0    0 -0.92487460106E+02 -0.13159813533E+03  0.96567930144E+03  0.98221648722E+03  0.79628606863E+02 0.  0.
        -11    1    3    3    0    0  0.49421120613E+01  0.34466242251E+02 -0.19660036189E+03  0.19965983227E+03  0.00000000000E+00 0.  1.
         12    1    3    3    0    0  0.43757718738E+02 -0.20696661163E+01 -0.51235705930E+02  0.67410081064E+02  0.00000000000E+00 0. -1.
         11    1    5    5    0    0 -0.31297852706E+02 -0.10822319512E+03  0.55143070609E+03  0.56282114314E+03  0.00000000000E+00 0. -1.
        -12    1    5    5    0    0 -0.61189607400E+02 -0.23374940205E+02  0.41424859535E+03  0.41939534408E+03  0.00000000000E+00 0.  1.
          5    1    4    4  501    0  0.31089308518E+02  0.99408649805E+02  0.69037483240E+02  0.12502908163E+03  0.41800000000E+01 0.  1.
         -5    1    4    4    0  501  0.12698320789E+02 -0.20709061292E+00 -0.40776887787E+02  0.42912902663E+02  0.41800000000E+01 0.  1.
</event>
<event>
11    1  0.1002087E-008  0.1563616E+03  0.7561462E-02  0.1090550E+00
         22   -1    0    0    0    0  0.00000000000E+00  0.00000000000E+00  0.16357785681E+04  0.16357785681E+04  0.00000000000E+00 0.  1.
         22   -1    0    0    0    0 -0.00000000000E+00 -0.00000000000E+00 -0.51323562811E+02  0.51323562811E+02  0.00000000000E+00 0.  1.
         24    2    1    2    0    0  0.33868298764E+02  0.98322505955E+01  0.28551734843E+02  0.92439014326E+02  0.80535923624E+02 0.  0.
         25    2    1    2    0    0 -0.28285549252E+02 -0.10202920745E+03  0.39867097275E+03  0.43104024511E+03  0.12508843643E+03 0.  0.
        -24    2    1    2    0    0 -0.55827495122E+01  0.92196956850E+02  0.11572322977E+04  0.11636228715E+04  0.79373485705E+02 0.  0.
        -11    1    3    3    0    0 -0.20139798327E+01 -0.11514168798E+02 -0.23180092379E+02  0.25960525429E+02  0.00000000000E+00 0.  1.
         12    1    3    3    0    0  0.35882278597E+02  0.21346419393E+02  0.51731827222E+02  0.66478488897E+02  0.00000000000E+00 0. -1.
         13    1    5    5    0    0  0.24567372506E+02  0.23346635117E+02  0.64669249013E+03  0.64757995488E+03  0.00000000000E+00 0. -1.
        -14    1    5    5    0    0 -0.30150122018E+02  0.68850321733E+02  0.51053980761E+03  0.51604291664E+03  0.00000000000E+00 0.  1.
          5    1    4    4  501    0 -0.59279299934E+02 -0.35528341367E+02  0.30071565144E+03  0.30858333374E+03  0.41800000000E+01 0.  1.
         -5    1    4    4    0  501  0.30993750682E+02 -0.66500866079E+02  0.97955321305E+02  0.12245691137E+03  0.41800000000E+01 0.  1.
</event>
<event>
11    1  0.1002087E-008  0.1553464E+03  0.7561462E-02  0.1091538E+00
         22   -1    0    0    0    0  0.00000000000E+00  0.00000000000E+00  0.42560042765E+03  0.42560042765E+03  0.00000000000E+00 0.  1.
         22   -1    0    0    0    0 -0.00000000000E+00 -0.00000000000E+00 -0.73157528951E+03  0.73157528951E+03  0.00000000000E+00 0. -1.
         24    2    1    2    0    0 -0.82378082747E+02 -0.10518778080E+02 -0.49340924884E+03  0.50575803431E+03  0.73767941691E+02 0.  0.
         25    2    1    2    0    0  0.16699255286E+03 -0.20790671489E+02 -0.17506671555E+03  0.27315918290E+03  0.12509524202E+03 0.  0.
        -24    2    1    2    0    0 -0.84614470115E+02  0.31309449569E+02  0.36250110252E+03  0.37825849995E+03  0.59435286400E+02 0.  0.
        -11    1    3    3    0    0 -0.30981605347E+02  0.14447309032E+02 -0.63941562366E+02  0.72505917041E+02  0.00000000000E+00 0.  1.
         12    1    3    3    0    0 -0.51396477400E+02 -0.24966087112E+02 -0.42946768647E+03  0.43325211727E+03  0.00000000000E+00 0. -1.
         11    1    5    5    0    0 -0.19935301076E+02 -0.10217382793E+02  0.32821368316E+02  0.39737304366E+02  0.00000000000E+00 0. -1.
        -12    1    5    5    0    0 -0.64679169039E+02  0.41526832361E+02  0.32967973421E+03  0.33852119558E+03  0.00000000000E+00 0.  1.
          5    1    4    4  501    0  0.13002919646E+03 -0.57361701919E+02 -0.16867289043E+03  0.22060365624E+03  0.41800000000E+01 0.  1.
         -5    1    4    4    0  501  0.36963356399E+02  0.36571030430E+02 -0.63938251198E+01  0.52555526661E+02  0.41800000000E+01 0.  1.
</event>
<event>
11    1  0.1002087E-008  0.1500186E+03  0.7561462E-02  0.1096860E+00
         22   -1    0    0    0    0  0.00000000000E+00  0.00000000000E+00  0.17869961703E+04  0.17869961703E+04  0.00000000000E+00 0.  1.
         22   -1    0    0    0    0 -0.00000000000E+00 -0.00000000000E+00 -0.12664741539E+04  0.12664741539E+04  0.00000000000E+00 0. -1.
        -24    2    1    2    0    0 -0.17132939898E+02 -0.59661604206E+02 -0.12218259370E+04  0.12256270259E+04  0.73823719567E+02 0.  0.
         25    2    1    2    0    0  0.94625923346E+02  0.83518173748E+02  0.15376690643E+03  0.23499007212E+03  0.12508685689E+03 0.  0.
         24    2    1    2    0    0 -0.77492983448E+02 -0.23856569542E+02  0.15885810469E+04  0.15928532262E+04  0.83769679937E+02 0.  0.
        -13    1    5    5    0    0 -0.39719538873E+02 -0.26134671918E+02  0.13830792333E+04  0.13838962491E+04  0.00000000000E+00 0.  1.
         14    1    5    5    0    0 -0.37773444576E+02  0.22781023761E+01  0.20550181362E+03  0.20895697707E+03  0.00000000000E+00 0. -1.
         13    1    3    3    0    0 -0.45675401460E+02 -0.27427324104E+02 -0.70591221695E+03  0.70791988138E+03  0.00000000000E+00 0. -1.
        -14    1    3    3    0    0  0.28542461562E+02 -0.32234280102E+02 -0.51591372006E+03  0.51770714451E+03  0.00000000000E+00 0.  1.
          5    1    4    4  501    0  0.76332817076E+02  0.79081858894E+02  0.36115248747E+02  0.11576883415E+03  0.41800000000E+01 0.  1.
         -5    1    4    4    0  501  0.18293106270E+02  0.44363148536E+01  0.11765165768E+03  0.11922123797E+03  0.41800000000E+01 0.  1.
</event>
<event>
11    1  0.1002087E-008  0.1391755E+03  0.7561462E-02  0.1108483E+00
         22   -1    0    0    0    0  0.00000000000E+00  0.00000000000E+00  0.23051612027E+04  0.23051612027E+04  0.00000000000E+00 0.  1.
         22   -1    0    0    0    0 -0.00000000000E+00 -0.00000000000E+00 -0.49535191552E+02  0.49535191552E+02  0.00000000000E+00 0.  1.
        -24    2    1    2    0    0  0.21274460433E+02  0.52575022915E+01  0.28984093536E+02  0.90492842276E+02  0.82877215374E+02 0.  0.
         25    2    1    2    0    0 -0.80338064251E+02  0.24907484794E+01  0.29912161704E+03  0.33403869705E+03  0.12509077084E+03 0.  0.
         24    2    1    2    0    0  0.59063603818E+02 -0.77482507709E+01  0.19275203006E+04  0.19301648549E+04  0.81567845385E+02 0.  0.
        -13    1    5    5    0    0  0.42709704411E+02  0.34250164102E+02  0.90813229544E+03  0.90978099486E+03  0.00000000000E+00 0.  1.
         14    1    5    5    0    0  0.16353899407E+02 -0.41998414873E+02  0.10193880051E+04  0.10203838601E+04  0.00000000000E+00 0. -1.
         13    1    3    3    0    0 -0.27260707548E+02  0.12782287004E+02 -0.53320973823E+01  0.30577185933E+02  0.00000000000E+00 0. -1.
        -14    1    3    3    0    0  0.48535167981E+02 -0.75247847121E+01  0.34316190918E+02  0.59915656343E+02  0.00000000000E+00 0.  1.
          5    1    4    4  501    0 -0.62822656786E+02  0.54854686317E+02  0.23457118514E+03  0.24899163864E+03  0.41800000000E+01 0. -1.
         -5    1    4    4    0  501 -0.17515407465E+02 -0.52363937838E+02  0.64550431902E+02  0.85047058405E+02  0.41800000000E+01 0. -1.
</event>
<event>
11    1  0.1002087E-008  0.1312733E+03  0.7561462E-02  0.1117714E+00
         22   -1    0    0    0    0  0.00000000000E+00  0.00000000000E+00  0.77608128421E+03  0.77608128421E+03  0.00000000000E+00 0. -1.
         22   -1    0    0    0    0 -0.00000000000E+00 -0.00000000000E+00 -0.15722990076E+03  0.15722990076E+03  0.00000000000E+00 0.  1.
        -24    2    1    2    0    0  0.20100525233E+02 -0.35099149357E+02 -0.12369840740E+03  0.15339316658E+03  0.81192278939E+02 0.  0.
         25    2    1    2    0    0 -0.25587662203E+02  0.17808202646E+02  0.25602586671E+03  0.28665040964E+03  0.12508937758E+03 0.  0.
         24    2    1    2    0    0  0.54871369698E+01  0.17290946711E+02  0.48652392415E+03  0.49326760875E+03  0.79235847707E+02 0.  0.
        -13    1    5    5    0    0  0.37103046664E+02  0.14226198857E+02  0.14749877574E+03  0.15275768279E+03  0.00000000000E+00 0.  1.
         14    1    5    5    0    0 -0.31615909695E+02  0.30647478541E+01  0.33902514840E+03  0.34050992596E+03  0.00000000000E+00 0. -1.
         13    1    3    3    0    0 -0.29620089122E+02 -0.19558262370E+02 -0.70532433094E+02  0.78960112871E+02  0.00000000000E+00 0. -1.
        -14    1    3    3    0    0  0.49720614355E+02 -0.15540886987E+02 -0.53165974308E+02  0.74433053708E+02  0.00000000000E+00 0.  1.
          5    1    4    4  501    0  0.48473789736E+01 -0.41479354122E+02  0.18277530926E+03  0.18753218384E+03  0.41800000000E+01 0.  1.
         -5    1    4    4    0  501 -0.30435041176E+02  0.59287556767E+02  0.73250557446E+02  0.99118225796E+02  0.41800000000E+01 0.  1.
</event>
<event>
11    1  0.1002087E-008  0.1329247E+03  0.7561462E-02  0.1115727E+00
         22   -1    0    0    0    0  0.00000000000E+00  0.00000000000E+00  0.32102201887E+03  0.32102201887E+03  0.00000000000E+00 0.  1.
         22   -1    0    0    0    0 -0.00000000000E+00 -0.00000000000E+00 -0.10107673146E+04  0.10107673146E+04  0.00000000000E+00 0. -1.
         24    2    1    2    0    0 -0.66461332890E+01 -0.87542631844E+01 -0.95521996234E+03  0.95896970402E+03  0.84005407903E+02 0.  0.
         25    2    1    2    0    0 -0.10716291965E+02 -0.34805926647E+02  0.52951490134E+02  0.14063460270E+03  0.12509172525E+03 0.  0.
        -24    2    1    2    0    0  0.17362425254E+02  0.43560189831E+02  0.21252317643E+03  0.23218502679E+03  0.80900198990E+02 0.  0.
        -11    1    3    3    0    0  0.32318204807E+02  0.18265647109E+02 -0.38848944417E+03  0.39025907864E+03  0.00000000000E+00 0.  1.
         12    1    3    3    0    0 -0.38964338096E+02 -0.27019910293E+02 -0.56673051817E+03  0.56871062538E+03  0.00000000000E+00 0. -1.
         13    1    5    5    0    0  0.32114801976E+02  0.37884550945E+02  0.55938255093E+02  0.74804332021E+02  0.00000000000E+00 0. -1.
        -14    1    5    5    0    0 -0.14752376722E+02  0.56756388860E+01  0.15658492134E+03  0.15738069477E+03  0.00000000000E+00 0.  1.
          5    1    4    4  501    0  0.17088064198E+02  0.74298326908E+01  0.80614059198E+02  0.82845055931E+02  0.41800000000E+01 0.  1.
         -5    1    4    4    0  501 -0.27804356162E+02 -0.42235759338E+02 -0.27662569064E+02  0.57789546768E+02  0.41800000000E+01 0.  1.
</event>
<event>
11    1  0.1002087E-008  0.1134507E+04  0.7561462E-02  0.8560648E-01
         22   -1    0    0    0    0  0.00000000000E+00  0.00000000000E+00  0.94440277612E+03  0.94440277612E+03  0.00000000000E+00 0.  1.
         22   -1    0    0    0    0 -0.00000000000E+00 -0.00000000000E+00 -0.18602930941E+04  0.18602930941E+04  0.00000000000E+00 0.  1.
        -24    2    1    2    0    0 -0.28361499559E+03 -0.10815396523E+04 -0.97879214993E+03  0.14881725575E+04  0.80361701375E+02 0.  0.
         25    2    1    2    0    0  0.21550146063E+03  0.11297049460E+04 -0.46636932616E+02  0.11577987197E+04  0.12509487393E+03 0.  0.
         24    2    1    2    0    0  0.68113534961E+02 -0.48165293676E+02  0.10953876462E+03  0.15872459290E+03  0.78964588764E+02 0.  0.
        -13    1    5    5    0    0  0.40353622956E+02 -0.51208117302E+02  0.11312628856E+03  0.13056892175E+03  0.00000000000E+00 0.  1.
         14    1    5    5    0    0  0.27759912005E+02  0.30428236257E+01 -0.35875239432E+01  0.28155671155E+02  0.00000000000E+00 0. -1.
         11    1    3    3    0    0 -0.12120727795E+03 -0.58474741152E+03 -0.55551089829E+03  0.81560596958E+03  0.00000000000E+00 0. -1.
        -12    1    3    3    0    0 -0.16240771764E+03 -0.49679224077E+03 -0.42328125164E+03  0.67256658795E+03  0.00000000000E+00 0.  1.
          5    1    4    4  501    0  0.17266357683E+03  0.69823616411E+03  0.17369420081E+02  0.71948983370E+03  0.41800000000E+01 0. -1.
         -5    1    4    4    0  501  0.42837883799E+02  0.43146878185E+03 -0.64006352697E+02  0.43830888604E+03  0.41800000000E+01 0. -1.
</event>
<event>
11    1  0.1002087E-008  0.1363183E+03  0.7561462E-02  0.1111741E+00
         22   -1    0    0    0    0  0.00000000000E+00  0.00000000000E+00  0.12662853823E+04  0.12662853823E+04  0.00000000000E+00 0. -1.
         22   -1    0    0    0    0 -0.00000000000E+00 -0.00000000000E+00 -0.13339134218E+03  0.13339134218E+03  0.00000000000E+00 0.  1.
        -24    2    1    2    0    0  0.35894257830E+02  0.38197565285E+02 -0.94158400023E+02  0.13074516354E+03  0.74034058078E+02 0.  0.
         25    2    1    2    0    0 -0.56251982971E+02 -0.59492987058E+02  0.27570436767E+03  0.31363726254E+03  0.12510688632E+03 0.  0.
         24    2    1    2    0    0  0.20357725141E+02  0.21295421772E+02  0.95134807244E+03  0.95529429837E+03  0.81584983923E+02 0.  0.
        -11    1    5    5    0    0  0.13119623870E+02 -0.23089937680E+02  0.12836152863E+03  0.13107994425E+03  0.00000000000E+00 0.  1.
         12    1    5    5    0    0  0.72381012711E+01  0.44385359453E+02  0.82298654381E+03  0.82421435412E+03  0.00000000000E+00 0. -1.
         11    1    3    3    0    0  0.11383204100E+02  0.45657369617E+02 -0.17979228727E+02  0.50372863742E+02  0.00000000000E+00 0. -1.
        -12    1    3    3    0    0  0.24511053729E+02 -0.74598043318E+01 -0.76179171295E+02  0.80372299798E+02  0.00000000000E+00 0.  1.
          5    1    4    4  501    0  0.39687129504E+02 -0.26611025060E+02  0.84792412234E+02  0.97418891779E+02  0.41800000000E+01 0.  1.
         -5    1    4    4    0  501 -0.95939112475E+02 -0.32881961998E+02  0.19091195543E+03  0.21621837076E+03  0.41800000000E+01 0.  1.
</event>
<event>
11    1  0.1002087E-008  0.1514957E+03  0.7561462E-02  0.1095360E+00
         22   -1    0    0    0    0  0.00000000000E+00  0.00000000000E+00  0.63144238803E+03  0.63144238803E+03  0.00000000000E+00 0.  1.
         22   -1    0    0    0    0 -0.00000000000E+00 -0.00000000000E+00 -0.55713071682E+02  0.55713071682E+02  0.00000000000E+00 0. -1.
         24    2    1    2    0    0  0.10421657308E+02 -0.32049630228E+02  0.89815566547E+02  0.12472181657E+03  0.79705117752E+02 0.  0.
         25    2    1    2    0    0  0.69082873852E+02  0.60878743881E+02  0.19606590172E+03  0.25013110488E+03  0.12508024184E+03 0.  0.
        -24    2    1    2    0    0 -0.79504531160E+02 -0.28829113653E+02  0.28984784808E+03  0.31230253825E+03  0.79806090584E+02 0.  0.
        -13    1    3    3    0    0 -0.17922919919E+02 -0.49862820432E+02  0.52513273072E+02  0.74600105688E+02  0.00000000000E+00 0.  1.
         14    1    3    3    0    0  0.28344577227E+02  0.17813190204E+02  0.37302293475E+02  0.50121710884E+02  0.00000000000E+00 0. -1.
         11    1    5    5    0    0 -0.38953547834E+02  0.18247173089E+02  0.57614975014E+02  0.71901485106E+02  0.00000000000E+00 0. -1.
        -12    1    5    5    0    0 -0.40550983326E+02 -0.47076286742E+02  0.23223287306E+03  0.24040105315E+03  0.00000000000E+00 0.  1.
          5    1    4    4  501    0 -0.13635533395E+02  0.45936823092E+02  0.14242827987E+03  0.15033099080E+03  0.41800000000E+01 0.  1.
         -5    1    4    4    0  501  0.82718407247E+02  0.14941920789E+02  0.53637621846E+02  0.99800114086E+02  0.41800000000E+01 0.  1.
</event>
<event>
11    1  0.1002087E-008  0.1307907E+03  0.7561462E-02  0.1118301E+00
         22   -1    0    0    0    0  0.00000000000E+00  0.00000000000E+00  0.11835539382E+04  0.11835539382E+04  0.00000000000E+00 0. -1.
         22   -1    0    0    0    0 -0.00000000000E+00 -0.00000000000E+00 -0.34505382148E+03  0.34505382148E+03  0.00000000000E+00 0. -1.
        -24    2    1    2    0    0  0.17899051041E+02  0.17639899701E+02 -0.28216642017E+03  0.29444646196E+03  0.80307460415E+02 0.  0.
         25    2    1    2    0    0 -0.37575482974E+02 -0.49484317736E+02  0.33720390156E+02  0.14368430970E+03  0.12508997369E+03 0.  0.
         24    2    1    2    0    0  0.19676431934E+02  0.31844418035E+02  0.10869461467E+04  0.10904769880E+04  0.79290015579E+02 0.  0.
        -13    1    5    5    0    0  0.27619621672E+02  0.87178279545E+01  0.12869028144E+03  0.13190918301E+03  0.00000000000E+00 0.  1.
         14    1    5    5    0    0 -0.79431897378E+01  0.23126590081E+02  0.95825586527E+03  0.95856780498E+03  0.00000000000E+00 0. -1.
         11    1    3    3    0    0 -0.93958166562E+00  0.26250620920E+02 -0.26815692281E+03  0.26944037033E+03  0.00000000000E+00 0. -1.
        -12    1    3    3    0    0  0.18838632706E+02 -0.86107212187E+01 -0.14009497356E+02  0.25006091624E+02  0.00000000000E+00 0.  1.
          5    1    4    4  501    0 -0.15830520680E+01  0.87150596398E+01 -0.41072752059E+02  0.42224420423E+02  0.41800000000E+01 0. -1.
         -5    1    4    4    0  501 -0.35992430907E+02 -0.58199377376E+02  0.74793142214E+02  0.10145988928E+03  0.41800000000E+01 0. -1.
</event>
<event>
11    1  0.1002087E-008  0.1369247E+03  0.7561462E-02  0.1111042E+00
         22   -1    0    0    0    0  0.00000000000E+00  0.00000000000E+00  0.99194619546E+03  0.99194619546E+03  0.00000000000E+00 0. -1.
         22   -1    0    0    0    0 -0.00000000000E+00 -0.00000000000E+00 -0.38193912891E+03  0.38193912891E+03  0.00000000000E+00 0.  1.
         24    2    1    2    0    0 -0.40760442892E+02 -0.37153693216E+02 -0.35817290803E+03  0.37083349910E+03  0.78662833564E+02 0.  0.
         25    2    1    2    0    0  0.78541126597E+02  0.54692039234E+02  0.44634583815E+03  0.47331940818E+03  0.12508687859E+03 0.  0.
        -24    2    1    2    0    0 -0.37780683705E+02 -0.17538346017E+02  0.52183413642E+03  0.52973241709E+03  0.81059201458E+02 0.  0.
        -11    1    3    3    0    0 -0.71107246772E+01  0.94424184466E+01 -0.23069304172E+03  0.23099567349E+03  0.00000000000E+00 0.  1.
         12    1    3    3    0    0 -0.33649718215E+02 -0.46596111663E+02 -0.12747986631E+03  0.13983782561E+03  0.00000000000E+00 0. -1.
         11    1    5    5    0    0 -0.22084247537E+02 -0.45983129472E+02  0.41341580363E+03  0.41655106395E+03  0.00000000000E+00 0. -1.
        -12    1    5    5    0    0 -0.15696436167E+02  0.28444783455E+02  0.10841833279E+03  0.11318135314E+03  0.00000000000E+00 0.  1.
          5    1    4    4  501    0 -0.34073283060E+02  0.67354500226E+01  0.94467311595E+02  0.10073678705E+03  0.41800000000E+01 0.  1.
         -5    1    4    4    0  501  0.11261440966E+03  0.47956589211E+02  0.35187852656E+03  0.37258262112E+03  0.41800000000E+01 0.  1.
</event>
<event>
11    1  0.1002087E-008  0.1564662E+03  0.7561462E-02  0.1090449E+00
         22   -1    0    0    0    0  0.00000000000E+00  0.00000000000E+00  0.15426765799E+03  0.15426765799E+03  0.00000000000E+00 0.  1.
         22   -1    0    0    0    0 -0.00000000000E+00 -0.00000000000E+00 -0.12687707259E+04  0.12687707259E+04  0.00000000000E+00 0. -1.
         24    2    1    2    0    0 -0.88507587488E+02  0.31424022173E+02 -0.11164151668E+04  0.11232466527E+04  0.80493202977E+02 0.  0.
         25    2    1    2    0    0  0.28280902901E+02 -0.10973014080E+03 -0.22531924430E+02  0.17028751173E+03  0.12509850424E+03 0.  0.
        -24    2    1    2    0    0  0.60226684587E+02  0.78306118629E+02  0.24444023336E+02  0.12950421953E+03  0.80092014885E+02 0.  0.
        -11    1    3    3    0    0  0.65264278502E+00  0.34416033363E+02 -0.29521709757E+03  0.29721713274E+03  0.00000000000E+00 0.  1.
         12    1    3    3    0    0 -0.89160230273E+02 -0.29920111900E+01 -0.82119806927E+03  0.82602951992E+03  0.00000000000E+00 0. -1.
         13    1    5    5    0    0  0.62894907833E+02  0.16349716599E+02  0.90900991106E+01  0.65617928693E+02  0.00000000000E+00 0. -1.
        -14    1    5    5    0    0 -0.26682232455E+01  0.61956402030E+02  0.15353924225E+02  0.63886290837E+02  0.00000000000E+00 0.  1.
          5    1    4    4  501    0  0.73613452437E+01 -0.12468494867E+03  0.13635485616E+02  0.12571366154E+03  0.41800000000E+01 0. -1.
         -5    1    4    4    0  501  0.20919557657E+02  0.14954807872E+02 -0.36167410046E+02  0.44573850187E+02  0.41800000000E+01 0. -1.
</event>
<event>
11    1  0.1002087E-008  0.1412089E+03  0.7561462E-02  0.1106216E+00
         22   -1    0    0    0    0  0.00000000000E+00  0.00000000000E+00  0.14967741206E+04  0.14967741206E+04  0.00000000000E+00 0.  1.
         22   -1    0    0    0    0 -0.00000000000E+00 -0.00000000000E+00 -0.28189682268E+03  0.28189682268E+03  0.00000000000E+00 0.  1.
         24    2    1    2    0    0 -0.29137270108E+02 -0.47833358000E+02 -0.24699768195E+03  0.26535915684E+03  0.79187224867E+02 0.  0.
         25    2    1    2    0    0  0.75145085534E+02 -0.18014704495E+00  0.20074183760E+03  0.24817701247E+03  0.12509087827E+03 0.  0.
        -24    2    1    2    0    0 -0.46007815426E+02  0.48013505045E+02  0.12611331423E+04  0.12651347740E+04  0.75413380658E+02 0.  0.
        -13    1    3    3    0    0 -0.42136125797E+01 -0.51278154957E+02 -0.22826284604E+03  0.23398959504E+03  0.00000000000E+00 0.  1.
         14    1    3    3    0    0 -0.24923657529E+02  0.34447969578E+01 -0.18734835917E+02  0.31369561800E+02  0.00000000000E+00 0. -1.
         13    1    5    5    0    0  0.31851373634E+01 -0.13846795554E+02  0.43440334777E+03  0.43463564902E+03  0.00000000000E+00 0. -1.
        -14    1    5    5    0    0 -0.49192952789E+02  0.61860300598E+02  0.82672979452E+03  0.83049912495E+03  0.00000000000E+00 0.  1.
          5    1    4    4  501    0  0.10739911352E+03  0.17160700261E+02  0.14378883060E+03  0.18033790346E+03  0.41800000000E+01 0. -1.
         -5    1    4    4    0  501 -0.32254027982E+02 -0.17340847305E+02  0.56953006996E+02  0.67839109017E+02  0.41800000000E+01 0. -1.
</event>
<event>
11    1  0.1002087E-008  0.2128428E+03  0.7561462E-02  0.1045796E+00
         22   -1    0    0    0    0  0.00000000000E+00  0.00000000000E+00  0.38648064189E+03  0.38648064189E+03  0.00000000000E+00 0.  1.
         22   -1    0    0    0    0 -0.00000000000E+00 -0.00000000000E+00 -0.24808177182E+04  0.24808177182E+04  0.00000000000E+00 0.  1.
        -24    2    1    2    0    0 -0.16466085790E+03 -0.47964924501E+02 -0.22932804265E+04  0.23011666673E+04  0.82577746762E+02 0.  0.
         25    2    1    2    0    0  0.16772373403E+03  0.85174113503E+02 -0.10502473574E+03  0.24912445921E+03  0.12508765122E+03 0.  0.
         24    2    1    2    0    0 -0.30628761311E+01 -0.37209189002E+02  0.30396808585E+03  0.31700723362E+03  0.81872364078E+02 0.  0.
        -11    1    5    5    0    0  0.84324693824E-01 -0.62868931318E+02  0.18951615772E+03  0.19967194012E+03  0.00000000000E+00 0.  1.
         12    1    5    5    0    0 -0.31472008249E+01  0.25659742316E+02  0.11445192812E+03  0.11733529350E+03  0.00000000000E+00 0. -1.
         13    1    3    3    0    0 -0.60224291702E+02 -0.33717282563E+02 -0.49360013544E+03  0.49840236171E+03  0.00000000000E+00 0. -1.
        -14    1    3    3    0    0 -0.10443656620E+03 -0.14247641938E+02 -0.17996802910E+04  0.18027643056E+04  0.00000000000E+00 0.  1.
          5    1    4    4  501    0  0.11806479211E+03  0.10981876028E+03 -0.10688565325E+03  0.19349798581E+03  0.41800000000E+01 0. -1.
         -5    1    4    4    0  501  0.49658941928E+02 -0.24644646775E+02  0.18609175094E+01  0.55626473393E+02  0.41800000000E+01 0. -1.
</event>
<event>
11    1  0.1002087E-008  0.1577941E+03  0.7561462E-02  0.1089171E+00
         22   -1    0    0    0    0  0.00000000000E+00  0.00000000000E+00  0.22945751677E+03  0.22945751677E+03  0.00000000000E+00 0. -1.
         22   -1    0    0    0    0 -0.00000000000E+00 -0.00000000000E+00 -0.49860503553E+03  0.49860503553E+03  0.00000000000E+00 0. -1.
        -24    2    1    2    0    0  0.12784230183E+03  0.15512282730E+02 -0.28617068734E+03  0.32287707673E+03  0.75971437630E+02 0.  0.
         25    2    1    2    0    0 -0.36561913310E+02 -0.49221580154E+02 -0.14470667054E+03  0.20086490318E+03  0.12508857411E+03 0.  0.
         24    2    1    2    0    0 -0.91280388519E+02  0.33709297424E+02  0.16172983912E+03  0.20432057239E+03  0.78242759291E+02 0.  0.
        -11    1    5    5    0    0 -0.89097666128E+02  0.32596980705E+02  0.84488526132E+02  0.12704041998E+03  0.00000000000E+00 0.  1.
         12    1    5    5    0    0 -0.21827223908E+01  0.11123167193E+01  0.77241312986E+02  0.77280152415E+02  0.00000000000E+00 0. -1.
         11    1    3    3    0    0  0.41302470303E+02  0.28355389514E+02 -0.17134984095E+03  0.17852364034E+03  0.00000000000E+00 0. -1.
        -12    1    3    3    0    0  0.86539831526E+02 -0.12843106784E+02 -0.11482084639E+03  0.14435343639E+03  0.00000000000E+00 0.  1.
          5    1    4    4  501    0 -0.13499298239E+02 -0.90076145446E+02 -0.83515667993E+02  0.12364579342E+03  0.41800000000E+01 0.  1.
         -5    1    4    4    0  501 -0.23062615072E+02  0.40854565292E+02 -0.61191002545E+02  0.77219109757E+02  0.41800000000E+01 0.  1.
</event>
<event>
11    1  0.1002087E-008  0.1415831E+03  0.7561462E-02  0.1105803E+00
         22   -1    0    0    0    0  0.00000000000E+00  0.00000000000E+00  0.47225876154E+03  0.47225876154E+03  0.00000000000E+00 0. -1.
         22   -1    0    0    0    0 -0.00000000000E+00 -0.00000000000E+00 -0.85019570451E+03  0.85019570451E+03  0.00000000000E+00 0.  1.
         24    2    1    2    0    0  0.33462521727E+02 -0.57395281924E+02 -0.81688717242E+03  0.82371831816E+03  0.82421213665E+02 0.  0.
         25    2    1    2    0    0 -0.38698329070E+02  0.46110685392E+02  0.17989363316E+03  0.22722859588E+03  0.12508940625E+03 0.  0.
        -24    2    1    2    0    0  0.52358073436E+01  0.11284596532E+02  0.25905659628E+03  0.27150755201E+03  0.80319828963E+02 0.  0.
        -11    1    3    3    0    0 -0.20067194624E+01 -0.52862744411E+02 -0.24173453873E+03  0.24745521592E+03  0.00000000000E+00 0.  1.
         12    1    3    3    0    0  0.35469241189E+02 -0.45325375125E+01 -0.57515263368E+03  0.57626310224E+03  0.00000000000E+00 0. -1.
         11    1    5    5    0    0 -0.17594447801E+02  0.68325388570E+01  0.24182347835E+03  0.24255894719E+03  0.00000000000E+00 0. -1.
        -12    1    5    5    0    0  0.22830255145E+02  0.44520576749E+01  0.17233117935E+02  0.28948604824E+02  0.00000000000E+00 0.  1.
          5    1    4    4  501    0 -0.24763387875E+02  0.17177364245E+02 -0.11936562301E+02  0.32683958466E+02  0.41800000000E+01 0. -1.
         -5    1    4    4    0  501 -0.13934941195E+02  0.28933321147E+02  0.19183019546E+03  0.19454463742E+03  0.41800000000E+01 0. -1.
</event>
<event>
11    1  0.1002087E-008  0.5777323E+03  0.7561462E-02  0.9234850E-01
         22   -1    0    0    0    0  0.00000000000E+00  0.00000000000E+00  0.12260267265E+04  0.12260267265E+04  0.00000000000E+00 0.  1.
         22   -1    0    0    0    0 -0.00000000000E+00 -0.00000000000E+00 -0.12977249206E+04  0.12977249206E+04  0.00000000000E+00 0.  1.
        -24    2    1    2    0    0 -0.35669571913E+03  0.42163046415E+03 -0.94178724254E+03  0.10948362100E+04  0.81847615640E+02 0.  0.
         25    2    1    2    0    0  0.40129773805E+03 -0.47215596272E+03  0.86180522283E+02  0.63800131676E+03  0.12508984801E+03 0.  0.
         24    2    1    2    0    0 -0.44602018922E+02  0.50525498569E+02  0.78390852616E+03  0.79091412036E+03  0.80563033120E+02 0.  0.
        -13    1    5    5    0    0 -0.54777451807E+02  0.57617154776E+02  0.75834366827E+03  0.76249945899E+03  0.00000000000E+00 0.  1.
         14    1    5    5    0    0  0.10175432885E+02 -0.70916562072E+01  0.25564857894E+02  0.28414661379E+02  0.00000000000E+00 0. -1.
         13    1    3    3    0    0 -0.11058505336E+02 -0.14944448766E+01 -0.28441698336E+02  0.30552481241E+02  0.00000000000E+00 0. -1.
        -14    1    3    3    0    0 -0.34563721380E+03  0.42312490902E+03 -0.91334554420E+03  0.10642837288E+04  0.00000000000E+00 0.  1.
          5    1    4    4  501    0  0.14876167950E+02  0.16588329423E+01 -0.10811557716E+02  0.18931832448E+02  0.41800000000E+01 0. -1.
         -5    1    4    4    0  501  0.38642157010E+03 -0.47381479566E+03  0.96992079999E+02  0.61906948431E+03  0.41800000000E+01 0. -1.
</event>
<event>
11    1  0.1002087E-008  0.1436222E+03  0.7561462E-02  0.1103580E+00
         22   -1    0    0    0    0  0.00000000000E+00  0.00000000000E+00  0.15094662521E+04  0.15094662521E+04  0.00000000000E+00 0. -1.
         22   -1    0    0    0    0 -0.00000000000E+00 -0.00000000000E+00 -0.65078325525E+03  0.65078325525E+03  0.00000000000E+00 0. -1.
         24    2    1    2    0    0  0.10391154161E+02  0.72621204213E+02 -0.59490878972E+03  0.60498147847E+03  0.81879825458E+02 0.  0.
         25    2    1    2    0    0 -0.75741374934E+01 -0.23904773945E+02  0.33244160558E+02  0.13184038620E+03  0.12509159622E+03 0.  0.
        -24    2    1    2    0    0 -0.28170166673E+01 -0.48716430269E+02  0.14203476260E+04  0.14234276427E+04  0.79860184715E+02 0.  0.
        -13    1    3    3    0    0  0.16430739117E+02 -0.47280390079E+01 -0.28138997942E+02  0.32926080027E+02  0.00000000000E+00 0.  1.
         14    1    3    3    0    0 -0.60395849559E+01  0.77349243221E+02 -0.56676979178E+03  0.57205539844E+03  0.00000000000E+00 0. -1.
         13    1    5    5    0    0  0.12925497698E+02 -0.62562851208E+02  0.12723055126E+04  0.12739083547E+04  0.00000000000E+00 0. -1.
        -14    1    5    5    0    0 -0.15742514365E+02  0.13846420939E+02  0.14804211343E+03  0.14951928799E+03  0.00000000000E+00 0.  1.
          5    1    4    4  501    0  0.48761456099E+02 -0.45525579010E+02  0.21588713092E+02  0.70241034148E+02  0.41800000000E+01 0. -1.
         -5    1    4    4    0  501 -0.56335593593E+02  0.21620805066E+02  0.11655447465E+02  0.61599352048E+02  0.41800000000E+01 0. -1.
</event>
<event>
11    1  0.1002087E-008  0.1346530E+03  0.7561462E-02  0.1113681E+00
         22   -1    0    0    0    0  0.00000000000E+00  0.00000000000E+00  0.19160866408E+03  0.19160866408E+03  0.00000000000E+00 0. -1.
         22   -1    0    0    0    0 -0.00000000000E+00 -0.00000000000E+00 -0.12456130875E+04  0.12456130875E+04  0.00000000000E+00 0. -1.
         24    2    1    2    0    0  0.47917255971E+02  0.16239065964E+02 -0.11513413290E+04  0.11552593835E+04  0.80483641157E+02 0.  0.
         25    2    1    2    0    0 -0.29332580863E+02 -0.56262984321E+01 -0.25874821914E+02  0.13118259621E+03  0.12508921458E+03 0.  0.
        -24    2    1    2    0    0 -0.18584675108E+02 -0.10612767532E+02  0.12321172754E+03  0.15077977190E+03  0.84234131010E+02 0.  0.
        -11    1    3    3    0    0  0.41333139649E+02  0.25245786632E+02 -0.30314546219E+03  0.30699014548E+03  0.00000000000E+00 0.  1.
         12    1    3    3    0    0  0.65841163222E+01 -0.90067206678E+01 -0.84819586681E+03  0.84826923797E+03  0.00000000000E+00 0. -1.
         11    1    5    5    0    0 -0.30558850034E+02 -0.24102337080E+02  0.12658193308E+03  0.13243017688E+03  0.00000000000E+00 0. -1.
        -12    1    5    5    0    0  0.11974174926E+02  0.13489569548E+02 -0.33702055399E+01  0.18349595013E+02  0.00000000000E+00 0.  1.
          5    1    4    4  501    0 -0.39849017975E+02 -0.54276732457E+02 -0.41059331956E+02  0.78976256308E+02  0.41800000000E+01 0.  1.
         -5    1    4    4    0  501  0.10516437112E+02  0.48650434025E+02  0.15184510042E+02  0.52206339898E+02  0.41800000000E+01 0.  1.
</event>
<event>
11    1  0.1002087E-008  0.1732512E+03  0.7561462E-02  0.1075236E+00
         22   -1    0    0    0    0  0.00000000000E+00  0.00000000000E+00  0.25664623555E+03  0.25664623555E+03  0.00000000000E+00 0.  1.
         22   -1    0    0    0    0 -0.00000000000E+00 -0.00000000000E+00 -0.11561864549E+04  0.11561864549E+04  0.00000000000E+00 0.  1.
         24    2    1    2    0    0 -0.68001949814E+02  0.26741552101E+02 -0.97597287157E+03  0.98201717898E+03  0.80593535572E+02 0.  0.
         25    2    1    2    0    0 -0.41313880531E+02  0.44686051023E+02 -0.11851486249E+03  0.18274304935E+03  0.12508225124E+03 0.  0.
        -24    2    1    2    0    0  0.10931583034E+03 -0.71427603125E+02  0.19494751472E+03  0.24807246211E+03  0.80520554557E+02 0.  0.
        -13    1    3    3    0    0  0.47277144021E+01  0.11672400413E+01 -0.48531410255E+03  0.48533853326E+03  0.00000000000E+00 0.  1.
         14    1    3    3    0    0 -0.72729664216E+02  0.25574312060E+02 -0.49065876903E+03  0.49667864572E+03  0.00000000000E+00 0. -1.
         11    1    5    5    0    0  0.54463093396E+02 -0.63630756862E+02  0.62504502583E+02  0.10450796431E+03  0.00000000000E+00 0. -1.
        -12    1    5    5    0    0  0.54852736949E+02 -0.77968462627E+01  0.13244301214E+03  0.14356449779E+03  0.00000000000E+00 0.  1.
          5    1    4    4  501    0  0.20467721371E+02 -0.50404759921E+01  0.15822543728E+02  0.26686313091E+02  0.41800000000E+01 0.  1.
         -5    1    4    4    0  501 -0.61781601903E+02  0.49726527016E+02 -0.13433740621E+03  0.15605673626E+03  0.41800000000E+01 0.  1.
</event>
<event>
11    1  0.1002087E-008  0.1684044E+03  0.7561462E-02  0.1079429E+00
         22   -1    0    0    0    0  0.00000000000E+00  0.00000000000E+00  0.11208322725E+04  0.11208322725E+04  0.00000000000E+00 0.  1.
         22   -1    0    0    0    0 -0.00000000000E+00 -0.00000000000E+00 -0.16774001615E+03  0.16774001615E+03  0.00000000000E+00 0.  1.
         24    2    1    2    0    0 -0.95624961118E+02  0.40588273989E+02 -0.68509185396E+02  0.14868124476E+03  0.81369913884E+02 0.  0.
         25    2    1    2    0    0  0.11144345618E+03 -0.13204089434E+03  0.15186969589E+03  0.26184761478E+03  0.12508128212E+03 0.  0.
        -24    2    1    2    0    0 -0.15818495058E+02  0.91452620348E+02  0.86973174590E+03  0.87804342915E+03  0.76896990209E+02 0.  0.
        -13    1    3    3    0    0 -0.70151479882E+02  0.19773686112E+02 -0.84928284050E+02  0.11191533507E+03  0.00000000000E+00 0.  1.
         14    1    3    3    0    0 -0.25473481236E+02  0.20814587877E+02  0.16419098654E+02  0.36765909690E+02  0.00000000000E+00 0. -1.
         11    1    5    5    0    0  0.11928743021E+02  0.75459347225E+01  0.25066064386E+02  0.28767057978E+02  0.00000000000E+00 0. -1.
        -12    1    5    5    0    0 -0.27747238080E+02  0.83906685625E+02  0.84466568151E+03  0.84927637118E+03  0.00000000000E+00 0.  1.
          5    1    4    4  501    0  0.10465412369E+03 -0.32125568832E+02  0.10286264689E+03  0.15027552796E+03  0.41800000000E+01 0.  1.
         -5    1    4    4    0  501  0.67893324820E+01 -0.99915325504E+02  0.49007048996E+02  0.11157208682E+03  0.41800000000E+01 0.  1.
</event>
<event>
11    1  0.1002087E-008  0.3825880E+03  0.7561462E-02  0.9702577E-01
         22   -1    0    0    0    0  0.00000000000E+00  0.00000000000E+00  0.40993226711E+03  0.40993226711E+03  0.00000000000E+00 0.  1.
         22   -1    0    0    0    0 -0.00000000000E+00 -0.00000000000E+00 -0.53424454888E+03  0.53424454888E+03  0.00000000000E+00 0. -1.
        -24    2    1    2    0    0  0.99813511003E+02  0.20432110478E+02 -0.10849514754E+03  0.16940551379E+03  0.80912440003E+02 0.  0.
         25    2    1    2    0    0  0.23357194135E+03  0.19816934460E+03 -0.12462690688E+03  0.35356341053E+03  0.12509307904E+03 0.  0.
         24    2    1    2    0    0 -0.33338545235E+03 -0.21860145507E+03  0.10880977265E+03  0.42120789167E+03  0.81511136536E+02 0.  0.
        -11    1    5    5    0    0 -0.89858906298E+02 -0.39108049574E+02  0.59609405012E+02  0.11470546521E+03  0.00000000000E+00 0.  1.
         12    1    5    5    0    0 -0.24352654605E+03 -0.17949340550E+03  0.49200367637E+02  0.30650242646E+03  0.00000000000E+00 0. -1.
         13    1    3    3    0    0  0.14850971213E+02  0.38808668363E+02 -0.48066996788E+02  0.63538179596E+02  0.00000000000E+00 0. -1.
        -14    1    3    3    0    0  0.84962539790E+02 -0.18376557885E+02 -0.60428150749E+02  0.10586733420E+03  0.00000000000E+00 0.  1.
          5    1    4    4  501    0  0.11629765627E+03  0.17247932084E+03 -0.10037173364E+03  0.23101129472E+03  0.41800000000E+01 0. -1.
         -5    1    4    4    0  501  0.11727428508E+03  0.25690023753E+02 -0.24255173238E+02  0.12255211582E+03  0.41800000000E+01 0. -1.
</event>
<event>
11    1  0.1002087E-008  0.2244667E+03  0.7561462E-02  0.1038455E+00
         22   -1    0    0    0    0  0.00000000000E+00  0.00000000000E+00  0.89889016718E+03  0.89889016718E+03  0.00000000000E+00 0.  1.
         22   -1    0    0    0    0 -0.00000000000E+00 -0.00000000000E+00 -0.31010708257E+04  0.31010708257E+04  0.00000000000E+00 0. -1.
        -24    2    1    2    0    0  0.44796270644E+02  0.46255502607E+02 -0.29152914000E+04  0.29171463019E+04  0.81684286334E+02 0.  0.
         25    2    1    2    0    0 -0.21781289351E+03  0.18000002271E+02 -0.80176622493E+02  0.26428126074E+03  0.12509930985E+03 0.  0.
         24    2    1    2    0    0  0.17301662286E+03 -0.64255504878E+02  0.79328736392E+03  0.81853343025E+03  0.81416294410E+02 0.  0.
        -11    1    5    5    0    0  0.15081803916E+03 -0.77545203587E+02  0.59943054848E+03  0.62295772087E+03  0.00000000000E+00 0.  1.
         12    1    5    5    0    0  0.22198583698E+02  0.13289698708E+02  0.19385681544E+03  0.19557570939E+03  0.00000000000E+00 0. -1.
         11    1    3    3    0    0  0.77543492033E+01  0.23548913168E+02 -0.23690517387E+04  0.23691814666E+04  0.00000000000E+00 0. -1.
        -12    1    3    3    0    0  0.37041921441E+02  0.22706589439E+02 -0.54623966132E+03  0.54796483532E+03  0.00000000000E+00 0.  1.
          5    1    4    4  501    0 -0.61247482841E+01 -0.48994857608E+01  0.25164714646E+02  0.26688064101E+02  0.41800000000E+01 0.  1.
         -5    1    4    4    0  501 -0.21168814522E+03  0.22899488031E+02 -0.10534133714E+03  0.23759319664E+03  0.41800000000E+01 0.  1.
</event>
<event>
11    1  0.1002087E-008  0.1931386E+03  0.7561462E-02  0.1059485E+00
         22   -1    0    0    0    0  0.00000000000E+00  0.00000000000E+00  0.77374929714E+03  0.77374929714E+03  0.00000000000E+00 0.  1.
         22   -1    0    0    0    0 -0.00000000000E+00 -0.00000000000E+00 -0.26772567458E+03  0.26772567458E+03  0.00000000000E+00 0.  1.
         24    2    1    2    0    0  0.14082123312E+03  0.37543227056E+02 -0.17713584419E+03  0.24541039414E+03  0.87229815206E+02 0.  0.
         25    2    1    2    0    0 -0.17099288973E+03  0.44795998530E+02  0.18628205620E+03  0.28564531107E+03  0.12508792687E+03 0.  0.
        -24    2    1    2    0    0  0.30171656616E+02 -0.82339225586E+02  0.49687741054E+03  0.51041926651E+03  0.77140064717E+02 0.  0.
        -11    1    3    3    0    0  0.15206495440E+03  0.41936446507E+02 -0.16583201244E+03  0.22887261141E+03  0.00000000000E+00 0.  1.
         12    1    3    3    0    0 -0.11243721284E+02 -0.43932194519E+01 -0.11303831750E+02  0.16537782732E+02  0.00000000000E+00 0. -1.
         13    1    5    5    0    0 -0.25936712802E+02 -0.26877569118E+02  0.18358172977E+03  0.18734291632E+03  0.00000000000E+00 0. -1.
        -14    1    5    5    0    0  0.56108369418E+02 -0.55461656467E+02  0.31329568077E+03  0.32307635019E+03  0.00000000000E+00 0.  1.
          5    1    4    4  501    0 -0.14058110837E+03  0.44090713305E+02  0.65980049646E+02  0.16148646501E+03  0.41800000000E+01 0.  1.
         -5    1    4    4    0  501 -0.30411781361E+02  0.70528522528E+00  0.12030200656E+03  0.12415884606E+03  0.41800000000E+01 0.  1.
</event>
<event>
11    1  0.1002087E-008  0.1595245E+03  0.7561462E-02  0.1087525E+00
         22   -1    0    0    0    0  0.00000000000E+00  0.00000000000E+00  0.35035690828E+03  0.35035690828E+03  0.00000000000E+00 0. -1.
         22   -1    0    0    0    0 -0.00000000000E+00 -0.00000000000E+00 -0.62488782129E+03  0.62488782129E+03  0.00000000000E+00 0.  1.
         24    2    1    2    0    0 -0.31085527715E+02 -0.87941045186E+02 -0.48331521283E+03  0.49841525167E+03  0.78257464073E+02 0.  0.
         25    2    1    2    0    0  0.69509917414E+02  0.14703870507E+03 -0.43281950750E+02  0.20970385676E+03  0.12510144232E+03 0.  0.
        -24    2    1    2    0    0 -0.38424389699E+02 -0.59097659888E+02  0.25206625057E+03  0.26712562113E+03  0.53382915426E+02 0.  0.
        -13    1    3    3    0    0 -0.50875870608E+02 -0.62488903899E+02 -0.24456728179E+03  0.25750023814E+03  0.00000000000E+00 0.  1.
         14    1    3    3    0    0  0.19790342893E+02 -0.25452141287E+02 -0.23874793105E+03  0.24091501353E+03  0.00000000000E+00 0. -1.
         13    1    5    5    0    0  0.71495486048E+01 -0.21515478351E+01  0.78536668780E+02  0.78890769716E+02  0.00000000000E+00 0. -1.
        -14    1    5    5    0    0 -0.45573938303E+02 -0.56946112053E+02  0.17352958179E+03  0.18823485142E+03  0.00000000000E+00 0.  1.
          5    1    4    4  501    0 -0.34919910980E+02  0.25460298440E+02 -0.19606321855E+02  0.47639345463E+02  0.41800000000E+01 0. -1.
         -5    1    4    4    0  501  0.10442982839E+03  0.12157840663E+03 -0.23675628895E+02  0.16206451130E+03  0.41800000000E+01 0. -1.
</event>
<event>
11    1  0.1002087E-008  0.1316783E+03  0.7561462E-02  0.1117224E+00
         22   -1    0    0    0    0  0.00000000000E+00  0.00000000000E+00  0.76700406089E+03  0.76700406089E+03  0.00000000000E+00 0. -1.
         22   -1    0    0    0    0 -0.00000000000E+00 -0.00000000000E+00 -0.13980064985E+04  0.13980064985E+04  0.00000000000E+00 0.  1.
         24    2    1    2    0    0 -0.35987636942E+02 -0.86664509686E+00 -0.13753317434E+04  0.13778983276E+04  0.75964041752E+02 0.  0.
         25    2    1    2    0    0  0.52687939167E+02 -0.32857006143E+02  0.26627648916E+03  0.30067929572E+03  0.12509703597E+03 0.  0.
        -24    2    1    2    0    0 -0.16700302225E+02  0.33723651240E+02  0.47805281666E+03  0.48643293606E+03  0.81647541412E+02 0.  0.
        -11    1    3    3    0    0  0.18074466388E+02  0.18910897319E+02 -0.48888745702E+03  0.48958681968E+03  0.00000000000E+00 0.  1.
         12    1    3    3    0    0 -0.54062103330E+02 -0.19777542416E+02 -0.88644428639E+03  0.88831150791E+03  0.00000000000E+00 0. -1.
         11    1    5    5    0    0 -0.41588922844E+02  0.18385645071E+02  0.14181883765E+03  0.14893036346E+03  0.00000000000E+00 0. -1.
        -12    1    5    5    0    0  0.24888620619E+02  0.15338006169E+02  0.33623397902E+03  0.33750257261E+03  0.00000000000E+00 0.  1.
          5    1    4    4  501    0 -0.21652741060E+02 -0.31059024236E+02  0.19270787650E+02  0.42688872538E+02  0.41800000000E+01 0.  1.
         -5    1    4    4    0  501  0.74340680227E+02 -0.17979819072E+01  0.24700570151E+03  0.25799042318E+03  0.41800000000E+01 0.  1.
</event>
<event>
11    1  0.1002087E-008  0.1315472E+03  0.7561462E-02  0.1117382E+00
         22   -1    0    0    0    0  0.00000000000E+00  0.00000000000E+00  0.67132128622E+02  0.67132128622E+02  0.00000000000E+00 0.  1.
         22   -1    0    0    0    0 -0.00000000000E+00 -0.00000000000E+00 -0.87467498153E+03  0.87467498153E+03  0.00000000000E+00 0.  1.
         24    2    1    2    0    0 -0.23876318395E+02  0.25215764578E+02 -0.53079589774E+03  0.53786481436E+03  0.79676596934E+02 0.  0.
         25    2    1    2    0    0  0.41611299155E+02  0.12855618735E+02 -0.28696147389E+03  0.31605555861E+03  0.12508981365E+03 0.  0.
        -24    2    1    2    0    0 -0.17734980760E+02 -0.38071383313E+02  0.10214518723E+02  0.87886737189E+02  0.76523084171E+02 0.  0.
        -11    1    3    3    0    0 -0.10563967080E+02 -0.20626237947E+02 -0.35338418399E+03  0.35414322044E+03  0.00000000000E+00 0.  1.
         12    1    3    3    0    0 -0.13312351316E+02  0.45842002525E+02 -0.17741171375E+03  0.18372159391E+03  0.00000000000E+00 0. -1.
         13    1    5    5    0    0  0.16361163540E+01 -0.14296953352E+02 -0.32361051955E+02  0.35416344186E+02  0.00000000000E+00 0. -1.
        -14    1    5    5    0    0 -0.19371097114E+02 -0.23774429960E+02  0.42575570678E+02  0.52470393003E+02  0.00000000000E+00 0.  1.
          5    1    4    4  501    0  0.61735419203E+02 -0.40670362334E+02 -0.14152999121E+03  0.15972961894E+03  0.41800000000E+01 0.  1.
         -5    1    4    4    0  501 -0.20124120048E+02  0.53525981069E+02 -0.14543148268E+03  0.15632593966E+03  0.41800000000E+01 0.  1.
</event>
<event>
11    1  0.1002087E-008  0.1958126E+03  0.7561462E-02  0.1057525E+00
         22   -1    0    0    0    0  0.00000000000E+00  0.00000000000E+00  0.96247463519E+03  0.96247463519E+03  0.00000000000E+00 0.  1.
         22   -1    0    0    0    0 -0.00000000000E+00 -0.00000000000E+00 -0.10122972244E+04  0.10122972244E+04  0.00000000000E+00 0. -1.
        -24    2    1    2    0    0 -0.53116700328E+01 -0.52383024350E+02 -0.94216514909E+03  0.94714121928E+03  0.81419444914E+02 0.  0.
         25    2    1    2    0    0 -0.11025538344E+03 -0.52508038809E+02  0.73182511834E+02  0.18950439730E+03  0.12507155088E+03 0.  0.
         24    2    1    2    0    0  0.11556705347E+03  0.10489106316E+03  0.81916004808E+03  0.83812624298E+03  0.84110259915E+02 0.  0.
        -11    1    5    5    0    0  0.11247893012E+03  0.10042126445E+03  0.81892229528E+03  0.83268821643E+03  0.00000000000E+00 0.  1.
         12    1    5    5    0    0  0.30881233518E+01  0.44697987078E+01  0.23775279599E+00  0.54380265462E+01  0.00000000000E+00 0. -1.
         11    1    3    3    0    0  0.34148183200E+02 -0.42609231370E+02 -0.45021217059E+03  0.45351145913E+03  0.00000000000E+00 0. -1.
        -12    1    3    3    0    0 -0.39459853232E+02 -0.97737929807E+01 -0.49195297850E+03  0.49362976015E+03  0.00000000000E+00 0.  1.
          5    1    4    4  501    0 -0.12544629196E+03 -0.61522173744E+02  0.30428106228E+02  0.14305625494E+03  0.41800000000E+01 0.  1.
         -5    1    4    4    0  501  0.15190908518E+02  0.90141349351E+01  0.42754405605E+02  0.46448142362E+02  0.41800000000E+01 0.  1.
</event>
<event>
11    1  0.1002087E-008  0.2072910E+03  0.7561462E-02  0.1049484E+00
         22   -1    0    0    0    0  0.00000000000E+00  0.00000000000E+00  0.52114142967E+03  0.52114142967E+03  0.00000000000E+00 0. -1.
         22   -1    0    0    0    0 -0.00000000000E+00 -0.00000000000E+00 -0.11196105478E+04  0.11196105478E+04  0.00000000000E+00 0.  1.
        -24    2    1    2    0    0 -0.73251049757E+02  0.14865042989E+03 -0.10461950291E+04  0.10623605604E+04  0.81383381915E+02 0.  0.
         25    2    1    2    0    0 -0.34582926549E+02 -0.18312203361E+03  0.24735909073E+03  0.33401169631E+03  0.12509050924E+03 0.  0.
         24    2    1    2    0    0  0.10783397631E+03  0.34471603716E+02  0.20036682024E+03  0.24437972073E+03  0.82207830170E+02 0.  0.
        -13    1    5    5    0    0  0.80359392595E+02 -0.16445497625E+02  0.11987358015E+03  0.14525068533E+03  0.00000000000E+00 0.  1.
         14    1    5    5    0    0  0.27474583711E+02  0.50917101342E+02  0.80493240087E+02  0.99129035398E+02  0.00000000000E+00 0. -1.
         11    1    3    3    0    0 -0.16999309769E+02  0.15878257660E+02 -0.43304220106E+02  0.49156394069E+02  0.00000000000E+00 0. -1.
        -12    1    3    3    0    0 -0.56251739988E+02  0.13277217223E+03 -0.10028908090E+04  0.10132041664E+04  0.00000000000E+00 0.  1.
          5    1    4    4  501    0 -0.20849977472E+02 -0.19269273973E+03  0.25021033742E+03  0.31652472077E+03  0.41800000000E+01 0.  1.
         -5    1    4    4    0  501 -0.13732949077E+02  0.95707061202E+01 -0.28512466875E+01  0.17486975543E+02  0.41800000000E+01 0.  1.
</event>
<event>
11    1  0.1002087E-008  0.2498313E+03  0.7561462E-02  0.1023989E+00
         22   -1    0    0    0    0  0.00000000000E+00  0.00000000000E+00  0.50692676437E+03  0.50692676437E+03  0.00000000000E+00 0.  1.
         22   -1    0    0    0    0 -0.00000000000E+00 -0.00000000000E+00 -0.13883444522E+04  0.13883444522E+04  0.00000000000E+00 0. -1.
        -24    2    1    2    0    0  0.89932696428E+01 -0.79136800402E+02 -0.11381564519E+04  0.11436940147E+04  0.79324511677E+02 0.  0.
         25    2    1    2    0    0  0.15393871723E+03  0.21273948569E+03 -0.11887109072E+03  0.31421798122E+03  0.12508951226E+03 0.  0.
         24    2    1    2    0    0 -0.16293198688E+03 -0.13360268529E+03  0.37560985485E+03  0.43735922061E+03  0.76182773204E+02 0.  0.
        -11    1    5    5    0    0 -0.73804184273E+02 -0.10867953377E+03  0.22784573694E+03  0.26300566252E+03  0.00000000000E+00 0.  1.
         12    1    5    5    0    0 -0.89127802603E+02 -0.24923151522E+02  0.14776411791E+03  0.17435355810E+03  0.00000000000E+00 0. -1.
         11    1    3    3    0    0  0.27644910490E+02 -0.85284314165E+02 -0.80906056412E+03  0.81401268524E+03  0.00000000000E+00 0. -1.
        -12    1    3    3    0    0 -0.18651640847E+02  0.61475137636E+01 -0.32909588781E+03  0.32968132948E+03  0.00000000000E+00 0.  1.
          5    1    4    4  501    0  0.50271457422E+02  0.25910047867E+02  0.19105690591E+02  0.59841873507E+02  0.41800000000E+01 0.  1.
         -5    1    4    4    0  501  0.10366725981E+03  0.18682943783E+03 -0.13797678132E+03  0.25437610772E+03  0.41800000000E+01 0.  1.
</event>
<event>
11    1  0.1002087E-008  0.1444668E+03  0.7561462E-02  0.1102671E+00
         22   -1    0    0    0    0  0.00000000000E+00  0.00000000000E+00  0.65728412828E+03  0.65728412828E+03  0.00000000000E+00 0.  1.
         22   -1    0    0    0    0 -0.00000000000E+00 -0.00000000000E+00 -0.17549807502E+04  0.17549807502E+04  0.00000000000E+00 0. -1.
         24    2    1    2    0    0  0.27427821695E+02  0.67587962568E+02 -0.16820579234E+04  0.16855842878E+04  0.80963668157E+02 0.  0.
         25    2    1    2    0    0 -0.20121956023E+02 -0.42717394233E+02 -0.31096064265E+01  0.13374605474E+03  0.12509463866E+03 0.  0.
        -24    2    1    2    0    0 -0.73058656715E+01 -0.24870568336E+02  0.58747090792E+03  0.59293453592E+03  0.76009048045E+02 0.  0.
        -11    1    3    3    0    0  0.32573822564E+02  0.43724907255E+02 -0.45094538669E+03  0.45422974716E+03  0.00000000000E+00 0.  1.
         12    1    3    3    0    0 -0.51460008694E+01  0.23863055313E+02 -0.12311125367E+04  0.12313545407E+04  0.00000000000E+00 0. -1.
         11    1    5    5    0    0 -0.33305775612E+02 -0.40742126415E+01  0.13023337126E+03  0.13448644871E+03  0.00000000000E+00 0. -1.
        -12    1    5    5    0    0  0.25999909940E+02 -0.20796355694E+02  0.45723753666E+03  0.45844808720E+03  0.00000000000E+00 0.  1.
          5    1    4    4  501    0 -0.13235165885E+02 -0.68340025331E+02 -0.45712971245E+02  0.83382712947E+02  0.41800000000E+01 0.  1.
         -5    1    4    4    0  501 -0.68867901386E+01  0.25622631099E+02  0.42603364819E+02  0.50363341794E+02  0.41800000000E+01 0.  1.
</event>
<event>
11    1  0.1002087E-008  0.2414256E+03  0.7561462E-02  0.1028569E+00
         22   -1    0    0    0    0  0.00000000000E+00  0.00000000000E+00  0.13882951409E+03  0.13882951409E+03  0.00000000000E+00 0.  1.
         22   -1    0    0    0    0 -0.00000000000E+00 -0.00000000000E+00 -0.18324250343E+04  0.18324250343E+04  0.00000000000E+00 0.  1.
         24    2    1    2    0    0 -0.17993052432E+03 -0.13461534346E+03 -0.15523526630E+04  0.15709251203E+04  0.86664057434E+02 0.  0.
         25    2    1    2    0    0  0.13389380013E+03  0.33175160529E+02 -0.17808230425E+03  0.25766205097E+03  0.12509310307E+03 0.  0.
        -24    2    1    2    0    0  0.46036724187E+02  0.10144018293E+03  0.36839447073E+02  0.14266737713E+03  0.81162460223E+02 0.  0.
        -11    1    3    3    0    0 -0.17038122346E+03 -0.90106440281E+02 -0.11547135768E+04  0.11706888469E+04  0.00000000000E+00 0.  1.
         12    1    3    3    0    0 -0.95493008616E+01 -0.44508903181E+02 -0.39763908623E+03  0.40023627335E+03  0.00000000000E+00 0. -1.
         11    1    5    5    0    0  0.43405741818E+02  0.12975110647E+02  0.29058073639E+02  0.53821775915E+02  0.00000000000E+00 0. -1.
        -12    1    5    5    0    0  0.26309823683E+01  0.88465072287E+02  0.77813734340E+01  0.88845601216E+02  0.00000000000E+00 0.  1.
          5    1    4    4  501    0 -0.21684186047E+02  0.18210750668E+02 -0.39176891254E+02  0.48519445305E+02  0.41800000000E+01 0. -1.
         -5    1    4    4    0  501  0.15557798618E+03  0.14964409861E+02 -0.13890541300E+03  0.20914260567E+03  0.41800000000E+01 0. -1.
</event>
<event>
11    1  0.1002087E-008  0.1890523E+03  0.7561462E-02  0.1062547E+00
         22   -1    0    0    0    0  0.00000000000E+00  0.00000000000E+00  0.66481560111E+03  0.66481560111E+03  0.00000000000E+00 0.  1.
         22   -1    0    0    0    0 -0.00000000000E+00 -0.00000000000E+00 -0.17394191907E+04  0.17394191907E+04  0.00000000000E+00 0.  1.
        -24    2    1    2    0    0 -0.41256311412E+02  0.25502255190E+02 -0.15248454878E+04  0.15278451641E+04  0.82490214378E+02 0.  0.
         25    2    1    2    0    0  0.12470247939E+03  0.88807516055E+02 -0.15405165232E+03  0.25064140219E+03  0.12510682490E+03 0.  0.
         24    2    1    2    0    0 -0.83446167978E+02 -0.11430977125E+03  0.60429355059E+03  0.62574822550E+03  0.79750609251E+02 0.  0.
        -11    1    5    5    0    0 -0.99316616281E+02 -0.10199950831E+03  0.53015754556E+03  0.54893962608E+03  0.00000000000E+00 0.  1.
         12    1    5    5    0    0  0.15870448303E+02 -0.12310262937E+02  0.74136005024E+02  0.76808599413E+02  0.00000000000E+00 0. -1.
         11    1    3    3    0    0 -0.36664969503E+02  0.39075374964E+02 -0.49356134117E+03  0.49646148130E+03  0.00000000000E+00 0. -1.
        -12    1    3    3    0    0 -0.45913419082E+01 -0.13573119774E+02 -0.10312841466E+04  0.10313836828E+04  0.00000000000E+00 0.  1.
          5    1    4    4  501    0  0.46139525373E+02 -0.25340217835E+02 -0.16441721181E+02  0.55306283883E+02  0.41800000000E+01 0. -1.
         -5    1    4    4    0  501  0.78562954017E+02  0.11414773389E+03 -0.13760993114E+03  0.19533511831E+03  0.41800000000E+01 0. -1.
</event>
<event>
11    1  0.1002087E-008  0.1467037E+03  0.7561462E-02  0.1100295E+00
         22   -1    0    0    0    0  0.00000000000E+00  0.00000000000E+00  0.29877744510E+03  0.29877744510E+03  0.00000000000E+00 0. -1.
         22   -1    0    0    0    0 -0.00000000000E+00 -0.00000000000E+00 -0.10207617860E+04  0.10207617860E+04  0.00000000000E+00 0. -1.
         24    2    1    2    0    0  0.35534785077E+02  0.67899928194E+02 -0.95491286660E+03  0.96142740701E+03  0.81307779130E+02 0.  0.
         25    2    1    2    0    0 -0.98432006348E+02 -0.34960442258E+02  0.12018437345E+03  0.20249028270E+03  0.12508772349E+03 0.  0.
        -24    2    1    2    0    0  0.62897221270E+02 -0.32939485936E+02  0.11274415223E+03  0.15562154141E+03  0.80409888139E+02 0.  0.
        -13    1    3    3    0    0 -0.13249122584E+02 -0.12157377726E+02 -0.15482708090E+03  0.15586778391E+03  0.00000000000E+00 0.  1.
         14    1    3    3    0    0  0.48783907661E+02  0.80057305921E+02 -0.80008578571E+03  0.80555962310E+03  0.00000000000E+00 0. -1.
         11    1    5    5    0    0  0.61762512677E+02 -0.10301366881E+02  0.11686577684E+03  0.13258331693E+03  0.00000000000E+00 0. -1.
        -12    1    5    5    0    0  0.11347085937E+01 -0.22638119055E+02 -0.41216246028E+01  0.23038224483E+02  0.00000000000E+00 0.  1.
          5    1    4    4  501    0  0.35516630948E+01  0.35021525243E+02  0.46458162342E+02  0.58437614507E+02  0.41800000000E+01 0. -1.
         -5    1    4    4    0  501 -0.10198366944E+03 -0.69981967502E+02  0.73726211112E+02  0.14405266819E+03  0.41800000000E+01 0. -1.
</event>
<event>
11    1  0.1002087E-008  0.1855835E+03  0.7561462E-02  0.1065214E+00
         22   -1    0    0    0    0  0.00000000000E+00  0.00000000000E+00  0.81534323167E+03  0.81534323167E+03  0.00000000000E+00 0. -1.
         22   -1    0    0    0    0 -0.00000000000E+00 -0.00000000000E+00 -0.37274586617E+03  0.37274586617E+03  0.00000000000E+00 0.  1.
        -24    2    1    2    0    0  0.13339461644E+03  0.42241283461E+02 -0.33093153125E+03  0.36794859244E+03  0.79322371252E+02 0.  0.
         25    2    1    2    0    0 -0.76053002990E+02 -0.47939841845E+02  0.30878314540E+03  0.34507453674E+03  0.12508843802E+03 0.  0.
         24    2    1    2    0    0 -0.57341613448E+02  0.56985583840E+01  0.46474575134E+03  0.47506596866E+03  0.79865680908E+02 0.  0.
        -13    1    5    5    0    0 -0.46376866570E+02  0.84477977941E+00  0.10121314212E+03  0.11133565262E+03  0.00000000000E+00 0.  1.
         14    1    5    5    0    0 -0.10964746879E+02  0.48537786046E+01  0.36353260922E+03  0.36373031604E+03  0.00000000000E+00 0. -1.
         13    1    3    3    0    0  0.98357584594E+00  0.25890820339E+02 -0.74660478389E+02  0.79028406492E+02  0.00000000000E+00 0. -1.
        -14    1    3    3    0    0  0.13241104059E+03  0.16350463122E+02 -0.25627105286E+03  0.28892018595E+03  0.00000000000E+00 0.  1.
          5    1    4    4  501    0 -0.37678350846E+02  0.39106516578E+02  0.75406013152E+02  0.93018906577E+02  0.41800000000E+01 0.  1.
         -5    1    4    4    0  501 -0.38374652144E+02 -0.87046358423E+02  0.23337713225E+03  0.25205563017E+03  0.41800000000E+01 0.  1.
</event>
<event>
11    1  0.1002087E-008  0.1293845E+03  0.7561462E-02  0.1120028E+00
         22   -1    0    0    0    0  0.00000000000E+00  0.00000000000E+00  0.47544378095E+03  0.47544378095E+03  0.00000000000E+00 0.  1.
         22   -1    0    0    0    0 -0.00000000000E+00 -0.00000000000E+00 -0.59509220299E+03  0.59509220299E+03  0.00000000000E+00 0.  1.
         24    2    1    2    0    0  0.31655025310E+02  0.80978270861E+01 -0.55617828142E+03  0.56304349424E+03  0.81339290958E+02 0.  0.
         25    2    1    2    0    0 -0.51607248765E+02  0.56429329874E+00  0.12157244975E+03  0.18190974093E+03  0.12509063417E+03 0.  0.
        -24    2    1    2    0    0  0.19952223454E+02 -0.86621203848E+01  0.31495740963E+03  0.32558274876E+03  0.79579098113E+02 0.  0.
        -11    1    3    3    0    0  0.12292140980E+01  0.58444530302E+01 -0.49144089160E+03  0.49147718008E+03  0.00000000000E+00 0.  1.
         12    1    3    3    0    0  0.30425811212E+02  0.22533740558E+01 -0.64737389818E+02  0.71566314164E+02  0.00000000000E+00 0. -1.
         11    1    5    5    0    0 -0.82291691138E+01 -0.18825313517E+02  0.18597237542E+02  0.27712251759E+02  0.00000000000E+00 0. -1.
        -12    1    5    5    0    0  0.28181392568E+02  0.10163193132E+02  0.29636017209E+03  0.29787049700E+03  0.00000000000E+00 0.  1.
          5    1    4    4  501    0 -0.65669764072E+02 -0.29155483646E+02  0.19465408913E+02  0.74558263687E+02  0.41800000000E+01 0. -1.
         -5    1    4    4    0  501  0.14062515307E+02  0.29719776945E+02  0.10210704084E+03  0.10735147725E+03  0.41800000000E+01 0. -1.
</event>
<event>
11    1  0.1002087E-008  0.2365476E+03  0.7561462E-02  0.1031320E+00
         22   -1    0    0    0    0  0.00000000000E+00  0.00000000000E+00  0.10844378955E+04  0.10844378955E+04  0.00000000000E+00 0. -1.
         22   -1    0    0    0    0 -0.00000000000E+00 -0.00000000000E+00 -0.50939515244E+03  0.50939515244E+03  0.00000000000E+00 0.  1.
        -24    2    1    2    0    0  0.97718446424E+02  0.17874180584E+03 -0.44608721143E+03  0.49721477832E+03  0.82043937319E+02 0.  0.
         25    2    1    2    0    0 -0.40177467866E+01 -0.17740876464E+03  0.33253462932E+03  0.39713880210E+03  0.12509970574E+03 0.  0.
         24    2    1    2    0    0 -0.93700699637E+02 -0.13330412013E+01  0.68859532514E+03  0.69947946749E+03  0.79538704595E+02 0.  0.
        -13    1    5    5    0    0  0.53255325195E+01 -0.20226029170E+02  0.85814041430E+02  0.88326118783E+02  0.00000000000E+00 0.  1.
         14    1    5    5    0    0 -0.99026232157E+02  0.18892987969E+02  0.60278128371E+03  0.61115334871E+03  0.00000000000E+00 0. -1.
         11    1    3    3    0    0  0.70000080141E+02  0.49624758389E+02 -0.20702490124E+03  0.22410251583E+03  0.00000000000E+00 0. -1.
        -12    1    3    3    0    0  0.27718366283E+02  0.12911704745E+03 -0.23906231018E+03  0.27311226249E+03  0.00000000000E+00 0.  1.
          5    1    4    4  501    0  0.15063588790E+02 -0.19073392167E+03  0.27598496771E+03  0.33584448095E+03  0.41800000000E+01 0.  1.
         -5    1    4    4    0  501 -0.19081335577E+02  0.13325157029E+02  0.56549661602E+02  0.61294321144E+02  0.41800000000E+01 0.  1.
</event>
<event>
11    1  0.1002087E-008  0.1344431E+03  0.7561462E-02  0.1113927E+00
         22   -1    0    0    0    0  0.00000000000E+00  0.00000000000E+00  0.13403675093E+04  0.13403675093E+04  0.00000000000E+00 0. -1.
         22   -1    0    0    0    0 -0.00000000000E+00 -0.00000000000E+00 -0.74252229236E+02  0.74252229236E+02  0.00000000000E+00 0.  1.
        -24    2    1    2    0    0 -0.22180060035E+02 -0.10695446783E+02 -0.33193529731E+02  0.90029236789E+02  0.79981906803E+02 0.  0.
         25    2    1    2    0    0 -0.19252167231E+02 -0.23772582632E+02  0.39684913455E+03  0.41722011754E+03  0.12509040435E+03 0.  0.
         24    2    1    2    0    0  0.41432227265E+02  0.34468029415E+02  0.90245967521E+03  0.90737038417E+03  0.77349041260E+02 0.  0.
        -11    1    5    5    0    0  0.37479151769E+02  0.44901534967E+02  0.35414598197E+03  0.35894318660E+03  0.00000000000E+00 0.  1.
         12    1    5    5    0    0  0.39530754965E+01 -0.10433505552E+02  0.54831369324E+03  0.54842719757E+03  0.00000000000E+00 0. -1.
         13    1    3    3    0    0  0.27488703905E+02  0.15975892024E+01  0.24908324540E+01  0.27647520321E+02  0.00000000000E+00 0. -1.
        -14    1    3    3    0    0 -0.49668763939E+02 -0.12293035985E+02 -0.35684362185E+02  0.62381716468E+02  0.00000000000E+00 0.  1.
          5    1    4    4  501    0 -0.18591673397E+02 -0.19514989089E+02  0.81395523715E+01  0.28464185069E+02  0.41800000000E+01 0. -1.
         -5    1    4    4    0  501 -0.66049383368E+00 -0.42575935432E+01  0.38870958218E+03  0.38875593247E+03  0.41800000000E+01 0. -1.
</event>
<event>
11    1  0.1002087E-008  0.1461727E+03  0.7561462E-02  0.1100855E+00
         22   -1    0    0    0    0  0.00000000000E+00  0.00000000000E+00  0.22323220012E+03  0.22323220012E+03  0.00000000000E+00 0. -1.
         22   -1    0    0    0    0 -0.00000000000E+00 -0.00000000000E+00 -0.23914893273E+04  0.23914893273E+04  0.00000000000E+00 0.  1.
         24    2    1    2    0    0 -0.30514872423E+02  0.69591179980E+02 -0.23309549733E+04  0.23335733831E+04  0.80246849911E+02 0.  0.
         25    2    1    2    0    0  0.40675102757E+02 -0.23441748581E+02  0.10473663438E+03  0.16976672057E+03  0.12508795813E+03 0.  0.
        -24    2    1    2    0    0 -0.10160230334E+02 -0.46149431400E+02  0.57961211765E+02  0.11138142374E+03  0.82542832435E+02 0.  0.
        -13    1    3    3    0    0 -0.12896210453E+02  0.48152603494E+02 -0.21431240140E+04  0.21437036934E+04  0.00000000000E+00 0.  1.
         14    1    3    3    0    0 -0.17618661970E+02  0.21438576486E+02 -0.18783095932E+03  0.18986968976E+03  0.00000000000E+00 0. -1.
         11    1    5    5    0    0 -0.16084583323E+02  0.10542317743E+02  0.50321572745E+02  0.53871281474E+02  0.00000000000E+00 0. -1.
        -12    1    5    5    0    0  0.59243529891E+01 -0.56691749143E+02  0.76396390203E+01  0.57510142267E+02  0.00000000000E+00 0.  1.
          5    1    4    4  501    0  0.79335854374E+02 -0.37171640081E+02  0.90776902216E+02  0.12622926361E+03  0.41800000000E+01 0. -1.
         -5    1    4    4    0  501 -0.38660751617E+02  0.13729891500E+02  0.13959732167E+02  0.43537456958E+02  0.41800000000E+01 0. -1.
</event>
<event>
11    1  0.1002087E-008  0.1820282E+03  0.7561462E-02  0.1068014E+00
         22   -1    0    0    0    0  0.00000000000E+00  0.00000000000E+00  0.25203879307E+04  0.25203879307E+04  0.00000000000E+00 0. -1.
         22   -1    0    0    0    0 -0.00000000000E+00 -0.00000000000E+00 -0.14030277866E+03  0.14030277866E+03  0.00000000000E+00 0. -1.
         24    2    1    2    0    0 -0.23822503607E+02 -0.12971708992E+03 -0.84955743339E+02  0.17683687141E+03  0.81607387326E+02 0.  0.
         25    2    1    2    0    0  0.55020136236E+01  0.14199816199E+03  0.11007706209E+04  0.11169320193E+04  0.12508967079E+03 0.  0.
        -24    2    1    2    0    0  0.18320489984E+02 -0.12281072065E+02  0.13642702744E+04  0.13669218186E+04  0.82191309903E+02 0.  0.
        -11    1    3    3    0    0 -0.24405473775E+02 -0.27338565546E+02  0.91553259459E+01  0.37773592753E+02  0.00000000000E+00 0.  1.
         12    1    3    3    0    0  0.58297016786E+00 -0.10237852438E+03 -0.94111069285E+02  0.13906327865E+03  0.00000000000E+00 0. -1.
         13    1    5    5    0    0 -0.23037777385E+02 -0.68532589523E+01  0.99710995401E+03  0.99739960233E+03  0.00000000000E+00 0. -1.
        -14    1    5    5    0    0  0.41358267369E+02 -0.54278131130E+01  0.36716032040E+03  0.36952221626E+03  0.00000000000E+00 0.  1.
          5    1    4    4  501    0 -0.54340405344E+01 -0.98206625531E+01  0.38302366588E+03  0.38321087567E+03  0.41800000000E+01 0.  1.
         -5    1    4    4    0  501  0.10936054158E+02  0.15181882454E+03  0.71774695506E+03  0.73372114366E+03  0.41800000000E+01 0.  1.
</event>
<event>
11    1  0.1002087E-008  0.2002925E+03  0.7561462E-02  0.1054317E+00
         22   -1    0    0    0    0  0.00000000000E+00  0.00000000000E+00  0.28514113980E+03  0.28514113980E+03  0.00000000000E+00 0. -1.
         22   -1    0    0    0    0 -0.00000000000E+00 -0.00000000000E+00 -0.77818326527E+03  0.77818326527E+03  0.00000000000E+00 0. -1.
         24    2    1    2    0    0 -0.47096698109E+02  0.38307489553E+02 -0.53628892921E+03  0.54544271993E+03  0.78844038435E+02 0.  0.
         25    2    1    2    0    0 -0.65915129411E+02 -0.14760742246E+03 -0.15221650124E+03  0.25485315355E+03  0.12509001229E+03 0.  0.
        -24    2    1    2    0    0  0.11301182752E+03  0.10929993291E+03  0.19546330497E+03  0.26302853159E+03  0.79119885899E+02 0.  0.
        -13    1    3    3    0    0 -0.33639683576E+02  0.12407121502E+02 -0.73953575352E+02  0.82186959321E+02  0.00000000000E+00 0.  1.
         14    1    3    3    0    0 -0.13457014532E+02  0.25900368051E+02 -0.46233535386E+03  0.46325576061E+03  0.00000000000E+00 0. -1.
         13    1    5    5    0    0  0.38079038304E+02  0.43975061818E+02  0.13418104160E+03  0.14624763637E+03  0.00000000000E+00 0. -1.
        -14    1    5    5    0    0  0.74932789216E+02  0.65324871093E+02  0.61282263374E+02  0.11678089522E+03  0.00000000000E+00 0.  1.
          5    1    4    4  501    0 -0.94868534323E+02 -0.62844708527E+02 -0.96682796541E+02  0.14938049318E+03  0.41800000000E+01 0. -1.
         -5    1    4    4    0  501  0.28953404912E+02 -0.84762713937E+02 -0.55533704697E+02  0.10547266038E+03  0.41800000000E+01 0. -1.
</event>
<event>
11    1  0.1002087E-008  0.1802254E+03  0.7561462E-02  0.1069461E+00
         22   -1    0    0    0    0  0.00000000000E+00  0.00000000000E+00  0.43685526672E+03  0.43685526672E+03  0.00000000000E+00 0. -1.
         22   -1    0    0    0    0 -0.00000000000E+00 -0.00000000000E+00 -0.10457644097E+04  0.10457644097E+04  0.00000000000E+00 0.  1.
         24    2    1    2    0    0  0.38764506205E+02  0.54645087434E+02 -0.97604212332E+03  0.98164158090E+03  0.80456164083E+02 0.  0.
         25    2    1    2    0    0 -0.26189538477E+02  0.97643162210E+02  0.12546636345E+03  0.20398342257E+03  0.12508936515E+03 0.  0.
        -24    2    1    2    0    0 -0.12574967728E+02 -0.15228824964E+03  0.24166661686E+03  0.29699467298E+03  0.80332068841E+02 0.  0.
        -13    1    3    3    0    0  0.31837742204E+02  0.20101347403E+01 -0.68856336441E+03  0.68930195798E+03  0.00000000000E+00 0.  1.
         14    1    3    3    0    0  0.69267640005E+01  0.52634952693E+02 -0.28747875891E+03  0.29233962292E+03  0.00000000000E+00 0. -1.
         13    1    5    5    0    0  0.73836819313E+01 -0.10062950241E+03  0.21053301884E+03  0.23346298965E+03  0.00000000000E+00 0. -1.
        -14    1    5    5    0    0 -0.19958649659E+02 -0.51658747234E+02  0.31133598022E+02  0.63531683338E+02  0.00000000000E+00 0.  1.
          5    1    4    4  501    0 -0.59009695425E+02  0.46763541137E+02  0.12170885785E+03  0.14317643456E+03  0.41800000000E+01 0. -1.
         -5    1    4    4    0  501  0.32820156948E+02  0.50879621073E+02  0.37575056005E+01  0.60806988011E+02  0.41800000000E+01 0. -1.
</event>
<event>
11    1  0.1002087E-008  0.1549896E+03  0.7561462E-02  0.1091887E+00
         22   -1    0    0    0    0  0.00000000000E+00  0.00000000000E+00  0.63187333945E+03  0.63187333945E+03  0.00000000000E+00 0.  1.
         22   -1    0    0    0    0 -0.00000000000E+00 -0.00000000000E+00 -0.23510616306E+03  0.23510616306E+03  0.00000000000E+00 0. -1.
         24    2    1    2    0    0  0.41180658093E+02  0.12092386143E+02 -0.18942116462E+03  0.21012322494E+03  0.80183038411E+02 0.  0.
         25    2    1    2    0    0 -0.41825117028E+01  0.79221580068E+02  0.19063543641E+03  0.24141887621E+03  0.12509057527E+03 0.  0.
        -24    2    1    2    0    0 -0.36998146391E+02 -0.91313966211E+02  0.39555290461E+03  0.41543740136E+03  0.80118854485E+02 0.  0.
        -11    1    3    3    0    0  0.48970275767E+02  0.13531602397E+02 -0.52803869634E+02  0.73276468395E+02  0.00000000000E+00 0.  1.
         12    1    3    3    0    0 -0.77896176739E+01 -0.14392162537E+01 -0.13661729499E+03  0.13684675655E+03  0.00000000000E+00 0. -1.
         11    1    5    5    0    0 -0.21060444613E+02  0.19051129040E+01  0.23770430457E+02  0.31815171642E+02  0.00000000000E+00 0. -1.
        -12    1    5    5    0    0 -0.15937701778E+02 -0.93219079115E+02  0.37178247415E+03  0.38362222972E+03  0.00000000000E+00 0.  1.
          5    1    4    4  501    0 -0.67421069698E+01 -0.26506364481E+02  0.94387587977E+02  0.98359201545E+02  0.41800000000E+01 0.  1.
         -5    1    4    4    0  501  0.25595952670E+01  0.10572794455E+03  0.96247848433E+02  0.14305967466E+03  0.41800000000E+01 0.  1.
</event>
<event>
11    1  0.1002087E-008  0.1905401E+03  0.7561462E-02  0.1061422E+00
         22   -1    0    0    0    0  0.00000000000E+00  0.00000000000E+00  0.71453351096E+03  0.71453351096E+03  0.00000000000E+00 0.  1.
         22   -1    0    0    0    0 -0.00000000000E+00 -0.00000000000E+00 -0.10140608651E+04  0.10140608651E+04  0.00000000000E+00 0. -1.
         24    2    1    2    0    0  0.13353396159E+03 -0.33104409384E+01 -0.59087045630E+03  0.61122290452E+03  0.81383444031E+02 0.  0.
         25    2    1    2    0    0 -0.16960162079E+03  0.41815445268E+02 -0.38076745249E+03  0.43720024076E+03  0.12508779477E+03 0.  0.
        -24    2    1    2    0    0  0.36067659203E+02 -0.38505004330E+02  0.67211055470E+03  0.68017123074E+03  0.90093251627E+02 0.  0.
        -13    1    3    3    0    0  0.27672530132E+02 -0.80553634634E+00 -0.31580545810E+02  0.41997008065E+02  0.00000000000E+00 0.  1.
         14    1    3    3    0    0  0.10586143145E+03 -0.25049045921E+01 -0.55928991049E+03  0.56922589646E+03  0.00000000000E+00 0. -1.
         11    1    5    5    0    0  0.22255761555E+00 -0.42643791156E+02  0.12905287618E+03  0.13591610392E+03  0.00000000000E+00 0. -1.
        -12    1    5    5    0    0  0.35845101588E+02  0.41387868259E+01  0.54305767853E+03  0.54425512682E+03  0.00000000000E+00 0.  1.
          5    1    4    4  501    0 -0.91222479568E+02  0.85398171332E+02 -0.21729340415E+03  0.25069560095E+03  0.41800000000E+01 0. -1.
         -5    1    4    4    0  501 -0.78379141223E+02 -0.43582726064E+02 -0.16347404834E+03  0.18650463981E+03  0.41800000000E+01 0. -1.
</event>
<event>
11    1  0.1002087E-008  0.1895014E+03  0.7561462E-02  0.1062206E+00
         22   -1    0    0    0    0  0.00000000000E+00  0.00000000000E+00  0.70281156891E+03  0.70281156891E+03  0.00000000000E+00 0. -1.
         22   -1    0    0    0    0 -0.00000000000E+00 -0.00000000000E+00 -0.13385265840E+04  0.13385265840E+04  0.00000000000E+00 0.  1.
         24    2    1    2    0    0 -0.67515714126E+02 -0.37785941910E+02 -0.12041118817E+04  0.12092151690E+04  0.79559740433E+02 0.  0.
         25    2    1    2    0    0  0.20150191439E+03  0.62753219252E+02  0.33810821522E+01  0.24535465588E+03  0.12508592014E+03 0.  0.
        -24    2    1    2    0    0 -0.13398620026E+03 -0.24967277342E+02  0.56501578445E+03  0.58676832801E+03  0.80489547659E+02 0.  0.
        -13    1    3    3    0    0 -0.58036773075E+02 -0.47060428461E+02 -0.11732222304E+04  0.11755991463E+04  0.00000000000E+00 0.  1.
         14    1    3    3    0    0 -0.94789410511E+01  0.92744865515E+01 -0.30889651273E+02  0.33616022668E+02  0.00000000000E+00 0. -1.
         13    1    5    5    0    0 -0.92743773232E+02  0.16972137807E+02  0.41628602522E+03  0.42682960971E+03  0.00000000000E+00 0. -1.
        -14    1    5    5    0    0 -0.41242427030E+02 -0.41939415149E+02  0.14872975923E+03  0.15993871830E+03  0.00000000000E+00 0.  1.
          5    1    4    4  501    0 -0.11566915046E+02  0.16004413382E+02  0.17509482921E+02  0.26720575659E+02  0.41800000000E+01 0. -1.
         -5    1    4    4    0  501  0.21306882943E+03  0.46748805870E+02 -0.14128400769E+02  0.21863408022E+03  0.41800000000E+01 0. -1.
</event>
<event>
11    1  0.1002087E-008  0.1445567E+03  0.7561462E-02  0.1102574E+00
         22   -1    0    0    0    0  0.00000000000E+00  0.00000000000E+00  0.36548404821E+03  0.36548404821E+03  0.00000000000E+00 0. -1.
         22   -1    0    0    0    0 -0.00000000000E+00 -0.00000000000E+00 -0.35613264447E+03  0.35613264447E+03  0.00000000000E+00 0.  1.
        -24    2    1    2    0    0 -0.53883726140E+02  0.50694312708E+02 -0.30903441496E+03  0.32777115481E+03  0.80363493043E+02 0.  0.
         25    2    1    2    0    0  0.39650886048E+02 -0.26574088047E+02  0.12929450616E+03  0.18611660443E+03  0.12507576184E+03 0.  0.
         24    2    1    2    0    0  0.14232840092E+02 -0.24120224661E+02  0.18909131253E+03  0.20772893344E+03  0.81310677880E+02 0.  0.
        -11    1    5    5    0    0  0.33447099752E+02 -0.38200962494E+02  0.71168435667E+02  0.87424071356E+02  0.00000000000E+00 0.  1.
         12    1    5    5    0    0 -0.19214259660E+02  0.14080737833E+02  0.11792287687E+03  0.12030486208E+03  0.00000000000E+00 0. -1.
         13    1    3    3    0    0 -0.15356523275E+02  0.53881565763E+02 -0.95140726015E+02  0.11041197255E+03  0.00000000000E+00 0. -1.
        -14    1    3    3    0    0 -0.38527202865E+02 -0.31872530552E+01 -0.21389368895E+03  0.21735918226E+03  0.00000000000E+00 0.  1.
          5    1    4    4  501    0 -0.66392225821E+01 -0.65013518985E+02  0.98799541500E+02  0.11853125633E+03  0.41800000000E+01 0. -1.
         -5    1    4    4    0  501  0.46290108630E+02  0.38439430937E+02  0.30494964664E+02  0.67585348099E+02  0.41800000000E+01 0. -1.
</event>
<event>
11    1  0.1002087E-008  0.1362665E+03  0.7561462E-02  0.1111801E+00
         22   -1    0    0    0    0  0.00000000000E+00  0.00000000000E+00  0.14304806129E+04  0.14304806129E+04  0.00000000000E+00 0.  1.
         22   -1    0    0    0    0 -0.00000000000E+00 -0.00000000000E+00 -0.87672682402E+03  0.87672682402E+03  0.00000000000E+00 0.  1.
        -24    2    1    2    0    0 -0.40685699918E+02 -0.24449474744E+02 -0.83795118802E+03  0.84306908505E+03  0.79688052179E+02 0.  0.
         25    2    1    2    0    0 -0.29199766894E+01  0.57760497581E+02  0.10362277221E+03  0.17242536969E+03  0.12509207747E+03 0.  0.
         24    2    1    2    0    0  0.43605676608E+02 -0.33311022837E+02  0.12880822047E+04  0.12917129822E+04  0.79721910659E+02 0.  0.
        -13    1    5    5    0    0  0.43332230158E+02  0.16821003546E+02  0.58198642782E+03  0.58383973015E+03  0.00000000000E+00 0.  1.
         14    1    5    5    0    0  0.27344644954E+00 -0.50132026384E+02  0.70609577687E+03  0.70787325205E+03  0.00000000000E+00 0. -1.
         13    1    3    3    0    0 -0.95802199468E+01  0.15169055857E+02 -0.43937318771E+02  0.47459128212E+02  0.00000000000E+00 0. -1.
        -14    1    3    3    0    0 -0.31105479971E+02 -0.39618530601E+02 -0.79401386925E+03  0.79560995683E+03  0.00000000000E+00 0.  1.
          5    1    4    4  501    0 -0.56105926807E+02  0.55427880200E+02  0.37491806366E+02  0.87425584762E+02  0.41800000000E+01 0. -1.
         -5    1    4    4    0  501  0.53185950118E+02  0.23326173815E+01  0.66130965843E+02  0.84999784924E+02  0.41800000000E+01 0. -1.
</event>
<event>
11    1  0.1002087E-008  0.3869893E+03  0.7561462E-02  0.9688946E-01
         22   -1    0    0    0    0  0.00000000000E+00  0.00000000000E+00  0.16250612775E+03  0.16250612775E+03  0.00000000000E+00 0. -1.
         22   -1    0    0    0    0 -0.00000000000E+00 -0.00000000000E+00 -0.11894086090E+04  0.11894086090E+04  0.00000000000E+00 0. -1.
        -24    2    1    2    0    0  0.29597491991E+03  0.19668885072E+03 -0.46286643022E+03  0.58874197184E+03  0.78000769052E+02 0.  0.
         25    2    1    2    0    0 -0.27088341663E+03 -0.27143856889E+03 -0.45389805328E+03  0.60723070099E+03  0.12509580074E+03 0.  0.
         24    2    1    2    0    0 -0.25091503278E+02  0.74749718170E+02 -0.11013799776E+03  0.15594206393E+03  0.77268653733E+02 0.  0.
        -11    1    5    5    0    0  0.19507860738E+02 -0.35946049995E+01 -0.14940827115E+02  0.24833568623E+02  0.00000000000E+00 0.  1.
         12    1    5    5    0    0 -0.44599364016E+02  0.78344323170E+02 -0.95197170646E+02  0.13110849531E+03  0.00000000000E+00 0. -1.
         13    1    3    3    0    0  0.29408180730E+03  0.20256471246E+03 -0.45862673604E+03  0.58125300440E+03  0.00000000000E+00 0. -1.
        -14    1    3    3    0    0  0.18931126142E+01 -0.58758617416E+01 -0.42396941768E+01  0.74889674381E+01  0.00000000000E+00 0.  1.
          5    1    4    4  501    0 -0.27807266865E+03 -0.27245247104E+03 -0.42159674293E+03  0.57386064865E+03  0.41800000000E+01 0. -1.
         -5    1    4    4    0  501  0.71892520199E+01  0.10139021510E+01 -0.32301310352E+02  0.33370052331E+02  0.41800000000E+01 0. -1.
</event>
<event>
11    1  0.1002087E-008  0.1384808E+03  0.7561462E-02  0.1109267E+00
         22   -1    0    0    0    0  0.00000000000E+00  0.00000000000E+00  0.22228074108E+03  0.22228074108E+03  0.00000000000E+00 0.  1.
         22   -1    0    0    0    0 -0.00000000000E+00 -0.00000000000E+00 -0.24135580059E+04  0.24135580059E+04  0.00000000000E+00 0.  1.
        -24    2    1    2    0    0 -0.10266184537E+02  0.55758933496E+02 -0.20437507409E+04  0.20461079893E+04  0.80164579042E+02 0.  0.
         25    2    1    2    0    0 -0.43707457379E+02 -0.79414132454E+02 -0.33933554949E+03  0.37284583154E+03  0.12509377556E+03 0.  0.
         24    2    1    2    0    0  0.53973641916E+02  0.23655198958E+02  0.19180902559E+03  0.21688492612E+03  0.82314314817E+02 0.  0.
        -13    1    5    5    0    0 -0.12732926773E+02 -0.15256664462E+02  0.69071019250E+02  0.71872796905E+02  0.00000000000E+00 0.  1.
         14    1    5    5    0    0  0.66706568689E+02  0.38911863419E+02  0.12273800634E+03  0.14501212922E+03  0.00000000000E+00 0. -1.
         11    1    3    3    0    0 -0.18126185588E+02 -0.72087767090E+01 -0.14609409486E+03  0.14739067006E+03  0.00000000000E+00 0. -1.
        -12    1    3    3    0    0  0.78600010510E+01  0.62967710205E+02 -0.18976566460E+04  0.18987173192E+04  0.00000000000E+00 0.  1.
          5    1    4    4  501    0  0.24026657473E+02  0.20607512936E+02 -0.95502669863E+02  0.10069847173E+03  0.41800000000E+01 0.  1.
         -5    1    4    4    0  501 -0.67734114852E+02 -0.10002164539E+03 -0.24383287963E+03  0.27214735981E+03  0.41800000000E+01 0.  1.
</event>
<event>
11    1  0.1002087E-008  0.1649800E+03  0.7561462E-02  0.1082485E+00
         22   -1    0    0    0    0  0.00000000000E+00  0.00000000000E+00  0.13294928952E+04  0.13294928952E+04  0.00000000000E+00 0.  1.
         22   -1    0    0    0    0 -0.00000000000E+00 -0.00000000000E+00 -0.30284767795E+03  0.30284767795E+03  0.00000000000E+00 0. -1.
         24    2    1    2    0    0  0.87203815237E+02  0.11067962494E+02 -0.19611972576E+03  0.22921149146E+03  0.79674059763E+02 0.  0.
         25    2    1    2    0    0 -0.16848754955E+03 -0.76712820766E+02  0.57832734033E+02  0.23079195796E+03  0.12508953397E+03 0.  0.
        -24    2    1    2    0    0  0.81283734313E+02  0.65644858272E+02  0.11649322090E+04  0.11723371237E+04  0.79943650622E+02 0.  0.
        -13    1    3    3    0    0  0.24044103905E+02  0.30759043411E+02 -0.12976438150E+03  0.13551026673E+03  0.00000000000E+00 0.  1.
         14    1    3    3    0    0  0.63159711332E+02 -0.19691080917E+02 -0.66355344260E+02  0.93701224725E+02  0.00000000000E+00 0. -1.
         11    1    5    5    0    0 -0.13108728450E+02 -0.44989508813E+01  0.10968599278E+03  0.11055811292E+03  0.00000000000E+00 0. -1.
        -12    1    5    5    0    0  0.94392462764E+02  0.70143809153E+02  0.10552462162E+04  0.10617790108E+04  0.00000000000E+00 0.  1.
          5    1    4    4  501    0 -0.45875405481E+02 -0.76822539240E+02 -0.10786423938E+02  0.90222362553E+02  0.41800000000E+01 0. -1.
         -5    1    4    4    0  501 -0.12261214407E+03  0.10971847464E+00  0.68619157971E+02  0.14056959540E+03  0.41800000000E+01 0. -1.
</event>
<event>
11    1  0.1002087E-008  0.1615165E+03  0.7561462E-02  0.1085660E+00
         22   -1    0    0    0    0  0.00000000000E+00  0.00000000000E+00  0.36415823560E+03  0.36415823560E+03  0.00000000000E+00 0. -1.
         22   -1    0    0    0    0 -0.00000000000E+00 -0.00000000000E+00 -0.17487818921E+03  0.17487818921E+03  0.00000000000E+00 0. -1.
        -24    2    1    2    0    0  0.70905450626E+02  0.59231955871E+02 -0.64776277351E+02  0.14149165396E+03  0.85369283167E+02 0.  0.
         25    2    1    2    0    0 -0.13035881478E+03 -0.69092123156E+02  0.11306930783E+03  0.22405156254E+03  0.12508913713E+03 0.  0.
         24    2    1    2    0    0  0.59453364153E+02  0.98601672848E+01  0.14098701591E+03  0.17349320832E+03  0.81182690703E+02 0.  0.
        -11    1    5    5    0    0  0.11386364257E+02 -0.27775431623E+02  0.15139955716E+02  0.33620561446E+02  0.00000000000E+00 0.  1.
         12    1    5    5    0    0  0.48066999897E+02  0.37635598908E+02  0.12584706019E+03  0.13987264687E+03  0.00000000000E+00 0. -1.
         11    1    3    3    0    0  0.63949207782E+02  0.36043699423E+02 -0.83284686337E+02  0.11101796441E+03  0.00000000000E+00 0. -1.
        -12    1    3    3    0    0  0.69562428444E+01  0.23188256448E+02  0.18508408985E+02  0.30473689550E+02  0.00000000000E+00 0.  1.
          5    1    4    4  501    0 -0.88383166731E+02 -0.10531301171E+03  0.85894067525E+02  0.16216558769E+03  0.41800000000E+01 0.  1.
         -5    1    4    4    0  501 -0.41975648049E+02  0.36220888550E+02  0.27175240307E+02  0.61885974842E+02  0.41800000000E+01 0.  1.
</event>
<event>
11    1  0.1002087E-008  0.1456611E+03  0.7561462E-02  0.1101397E+00
         22   -1    0    0    0    0  0.00000000000E+00  0.00000000000E+00  0.82976745785E+02  0.82976745785E+02  0.00000000000E+00 0. -1.
         22   -1    0    0    0    0 -0.00000000000E+00 -0.00000000000E+00 -0.11471296044E+04  0.11471296044E+04  0.00000000000E+00 0. -1.
        -24    2    1    2    0    0 -0.93295687767E+02  0.10040967342E+03 -0.79167981909E+03  0.80786069229E+03  0.84236419203E+02 0.  0.
         25    2    1    2    0    0  0.42773090270E+02  0.56171994194E+01 -0.24292373064E+03  0.27662656123E+03  0.12509686362E+03 0.  0.
         24    2    1    2    0    0  0.50522597497E+02 -0.10602687284E+03 -0.29549308847E+02  0.14561909663E+03  0.80854987642E+02 0.  0.
        -13    1    5    5    0    0  0.30129030629E+02 -0.11576108749E+03 -0.28664118006E+02  0.12300414434E+03  0.00000000000E+00 0.  1.
         14    1    5    5    0    0  0.20393566869E+02  0.97342146433E+01 -0.88519084141E+00  0.22614952292E+02  0.00000000000E+00 0. -1.
         11    1    3    3    0    0 -0.93676377605E+02  0.42961697394E+02 -0.48149572300E+03  0.49240136315E+03  0.00000000000E+00 0. -1.
        -12    1    3    3    0    0  0.38068983757E+00  0.57447976031E+02 -0.31018409609E+03  0.31545932914E+03  0.00000000000E+00 0.  1.
          5    1    4    4  501    0 -0.41849146520E+02 -0.21473962597E+01 -0.11963704565E+03  0.12683239912E+03  0.41800000000E+01 0.  1.
         -5    1    4    4    0  501  0.84622236790E+02  0.77645956791E+01 -0.12328668499E+03  0.14979416211E+03  0.41800000000E+01 0.  1.
</event>
<event>
11    1  0.1002087E-008  0.2159672E+03  0.7561462E-02  0.1043774E+00
         22   -1    0    0    0    0  0.00000000000E+00  0.00000000000E+00  0.10949706644E+04  0.10949706644E+04  0.00000000000E+00 0.  1.
         22   -1    0    0    0    0 -0.00000000000E+00 -0.00000000000E+00 -0.32550075765E+03  0.32550075765E+03  0.00000000000E+00 0.  1.
         24    2    1    2    0    0 -0.76630666916E+02 -0.53898121836E+02 -0.24343511107E+03  0.27219872246E+03  0.77808897674E+02 0.  0.
         25    2    1    2    0    0  0.23473922598E+03  0.18734874606E+01  0.25601838582E+03  0.36918552928E+03  0.12508607831E+03 0.  0.
        -24    2    1    2    0    0 -0.15810855907E+03  0.52024634375E+02  0.75688663203E+03  0.77908717034E+03  0.79966031562E+02 0.  0.
        -11    1    3    3    0    0 -0.81130792988E+02 -0.55474103009E+02 -0.15434279452E+03  0.18297890560E+03  0.00000000000E+00 0.  1.
         12    1    3    3    0    0  0.45001260728E+01  0.15759811737E+01 -0.89092316555E+02  0.89219816860E+02  0.00000000000E+00 0. -1.
         11    1    5    5    0    0 -0.10587710913E+02 -0.18371200811E+02  0.86523094583E+02  0.89083368469E+02  0.00000000000E+00 0. -1.
        -12    1    5    5    0    0 -0.14752084815E+03  0.70395835186E+02  0.67036353745E+03  0.69000380187E+03  0.00000000000E+00 0.  1.
          5    1    4    4  501    0  0.17361840371E+02 -0.40548751094E+02  0.47686326925E+02  0.65092955778E+02  0.41800000000E+01 0. -1.
         -5    1    4    4    0  501  0.21737738561E+03  0.42422238554E+02  0.20833205889E+03  0.30409257350E+03  0.41800000000E+01 0. -1.
</event>
<event>
11    1  0.1002087E-008  0.1275552E+03  0.7561462E-02  0.1122310E+00
         22   -1    0    0    0    0  0.00000000000E+00  0.00000000000E+00  0.69812801770E+03  0.69812801770E+03  0.00000000000E+00 0.  1.
         22   -1    0    0    0    0 -0.00000000000E+00 -0.00000000000E+00 -0.32304586856E+03  0.32304586856E+03  0.00000000000E+00 0. -1.
         24    2    1    2    0    0  0.11708292727E+02 -0.31070331457E+02 -0.18144233470E+03  0.20150075691E+03  0.81109707182E+02 0.  0.
         25    2    1    2    0    0  0.14673788883E+02  0.39944982891E+01 -0.98188045250E+02  0.15974686544E+03  0.12508754011E+03 0.  0.
        -24    2    1    2    0    0 -0.26382081610E+02  0.27075833168E+02  0.65471252909E+03  0.65992626391E+03  0.73655027501E+02 0.  0.
        -11    1    3    3    0    0  0.13827957240E+01 -0.47664145442E+02 -0.51849817433E+02  0.70442788507E+02  0.00000000000E+00 0.  1.
         12    1    3    3    0    0  0.10325497003E+02  0.16593813985E+02 -0.12959251727E+03  0.13105796840E+03  0.00000000000E+00 0. -1.
         13    1    5    5    0    0 -0.31428609744E+02  0.12796859518E+02  0.11259910217E+03  0.11760133900E+03  0.00000000000E+00 0. -1.
        -14    1    5    5    0    0  0.50465281341E+01  0.14278973650E+02  0.54211342692E+03  0.54232492491E+03  0.00000000000E+00 0.  1.
          5    1    4    4  501    0 -0.45075141004E+01 -0.31784234355E+01 -0.12531274542E+03  0.12550369167E+03  0.41800000000E+01 0. -1.
         -5    1    4    4    0  501  0.19181302984E+02  0.71729217246E+01  0.27124700168E+02  0.34243173764E+02  0.41800000000E+01 0. -1.
</event>
<event>
11    1  0.1002087E-008  0.1465385E+03  0.7561462E-02  0.1100469E+00
         22   -1    0    0    0    0  0.00000000000E+00  0.00000000000E+00  0.16843578354E+04  0.16843578354E+04  0.00000000000E+00 0. -1.
         22   -1    0    0    0    0 -0.00000000000E+00 -0.00000000000E+00 -0.56474817498E+02  0.56474817498E+02  0.00000000000E+00 0. -1.
        -24    2    1    2    0    0 -0.58573512647E+02  0.59660533208E+02  0.55698541957E+02  0.12866390953E+03  0.80385561096E+02 0.  0.
         25    2    1    2    0    0  0.67838679227E+02 -0.49097785984E+01  0.26030893964E+03  0.29670563382E+03  0.12508915523E+03 0.  0.
         24    2    1    2    0    0 -0.92651665795E+01 -0.54750754610E+02  0.13118755363E+04  0.13154631095E+04  0.79638441662E+02 0.  0.
        -11    1    5    5    0    0  0.13932939335E+02 -0.14658158303E+02  0.73782450562E+02  0.76503845749E+02  0.00000000000E+00 0.  1.
         12    1    5    5    0    0 -0.23198105914E+02 -0.40092596307E+02  0.12380930857E+04  0.12389592638E+04  0.00000000000E+00 0. -1.
         13    1    3    3    0    0 -0.78190658946E+02  0.48183442619E+02  0.52276194041E+02  0.10567981715E+03  0.00000000000E+00 0. -1.
        -14    1    3    3    0    0  0.19617146299E+02  0.11477090589E+02  0.34223479154E+01  0.22984092381E+02  0.00000000000E+00 0.  1.
          5    1    4    4  501    0  0.51367547393E+02 -0.10998162151E+02  0.27076462525E+03  0.27584513623E+03  0.41800000000E+01 0.  1.
         -5    1    4    4    0  501  0.16471131834E+02  0.60883835527E+01 -0.10455685606E+02  0.20860497589E+02  0.41800000000E+01 0.  1.
</event>
<event>
11    1  0.1002087E-008  0.1574370E+03  0.7561462E-02  0.1089513E+00
         22   -1    0    0    0    0  0.00000000000E+00  0.00000000000E+00  0.10269463360E+04  0.10269463360E+04  0.00000000000E+00 0.  1.
         22   -1    0    0    0    0 -0.00000000000E+00 -0.00000000000E+00 -0.70308048477E+03  0.70308048477E+03  0.00000000000E+00 0. -1.
        -24    2    1    2    0    0 -0.10283335960E+02  0.86801950283E+01 -0.38656254274E+03  0.39499011398E+03  0.80034354584E+02 0.  0.
         25    2    1    2    0    0  0.27122215739E+02  0.85501030377E+02 -0.28924837887E+03  0.32765725621E+03  0.12509441268E+03 0.  0.
         24    2    1    2    0    0 -0.16838879779E+02 -0.94181225406E+02  0.99967677283E+03  0.10073794506E+04  0.79410680559E+02 0.  0.
        -11    1    5    5    0    0 -0.10940098262E+02 -0.35271883833E+02  0.74487883596E+03  0.74579371934E+03  0.00000000000E+00 0.  1.
         12    1    5    5    0    0 -0.58987815169E+01 -0.58909341573E+02  0.25479793687E+03  0.26158573123E+03  0.00000000000E+00 0. -1.
         11    1    3    3    0    0 -0.27842522023E+02  0.12855132895E+02 -0.55282618382E+02  0.63218892504E+02  0.00000000000E+00 0. -1.
        -12    1    3    3    0    0  0.17559186063E+02 -0.41749378668E+01 -0.33127992436E+03  0.33177122148E+03  0.00000000000E+00 0.  1.
          5    1    4    4  501    0 -0.23988494240E+02 -0.22505885838E+02 -0.81048744150E+02  0.87569024670E+02  0.41800000000E+01 0. -1.
         -5    1    4    4    0  501  0.51110709979E+02  0.10800691622E+03 -0.20819963472E+03  0.24008823154E+03  0.41800000000E+01 0. -1.
</event>
<event>
11    1  0.1002087E-008  0.1358952E+03  0.7561462E-02  0.1112231E+00
         22   -1    0    0    0    0  0.00000000000E+00  0.00000000000E+00  0.52217483432E+03  0.52217483432E+03  0.00000000000E+00 0. -1.
         22   -1    0    0    0    0 -0.00000000000E+00 -0.00000000000E+00 -0.12437774751E+04  0.12437774751E+04  0.00000000000E+00 0.  1.
        -24    2    1    2    0    0  0.29815938701E+02 -0.46089618767E+02 -0.11285745936E+04  0.11321192673E+04  0.70711944230E+02 0.  0.
         25    2    1    2    0    0 -0.15690400738E+02 -0.73854762073E+01 -0.71866855277E+02  0.14530956372E+03  0.12509712422E+03 0.  0.
         24    2    1    2    0    0 -0.14125537962E+02  0.53475094974E+02  0.47883880805E+03  0.48852347837E+03  0.79432161088E+02 0.  0.
        -11    1    5    5    0    0 -0.67166279177E+01  0.43864032278E+01  0.96730705838E+00  0.80801798747E+01  0.00000000000E+00 0.  1.
         12    1    5    5    0    0 -0.74089100447E+01  0.49088691746E+02  0.47787150099E+03  0.48044329849E+03  0.00000000000E+00 0. -1.
         13    1    3    3    0    0 -0.30926542487E+01  0.11953924122E+02 -0.50716663895E+02  0.52198092004E+02  0.00000000000E+00 0. -1.
        -14    1    3    3    0    0  0.32908592950E+02 -0.58043542889E+02 -0.10778579297E+04  0.10799211753E+04  0.00000000000E+00 0.  1.
          5    1    4    4  501    0 -0.36838272900E+02 -0.57399256398E+02 -0.56653828362E+02  0.88762952032E+02  0.41800000000E+01 0.  1.
         -5    1    4    4    0  501  0.21147872162E+02  0.50013780191E+02 -0.15213026915E+02  0.56546611693E+02  0.41800000000E+01 0.  1.
</event>
<event>
11    1  0.1002087E-008  0.1780423E+03  0.7561462E-02  0.1071238E+00
         22   -1    0    0    0    0  0.00000000000E+00  0.00000000000E+00  0.59937824065E+03  0.59937824065E+03  0.00000000000E+00 0.  1.
         22   -1    0    0    0    0 -0.00000000000E+00 -0.00000000000E+00 -0.24591563618E+03  0.24591563618E+03  0.00000000000E+00 0. -1.
        -24    2    1    2    0    0 -0.28499574397E+02  0.76496461841E+01 -0.16413313903E+03  0.18536104534E+03  0.80921486482E+02 0.  0.
         25    2    1    2    0    0  0.13556013735E+03  0.52710398857E+02  0.98591828547E+02  0.21569297987E+03  0.12509266934E+03 0.  0.
         24    2    1    2    0    0 -0.10706056295E+03 -0.60360045042E+02  0.41900391496E+03  0.44423985162E+03  0.81727999108E+02 0.  0.
        -13    1    5    5    0    0 -0.10593579481E+03 -0.61611483181E+02  0.42273867229E+03  0.44014355901E+03  0.00000000000E+00 0.  1.
         14    1    5    5    0    0 -0.11247681398E+01  0.12514381391E+01 -0.37347573368E+01  0.40962926103E+01  0.00000000000E+00 0. -1.
         13    1    3    3    0    0 -0.14980413580E+02 -0.11403284741E+02 -0.16063986852E+03  0.16173934293E+03  0.00000000000E+00 0. -1.
        -14    1    3    3    0    0 -0.13519160817E+02  0.19052930926E+02 -0.34932705154E+01  0.23621702414E+02  0.00000000000E+00 0.  1.
          5    1    4    4  501    0  0.50657713315E+02  0.38186156033E+02  0.11164111186E+03  0.12847410902E+03  0.41800000000E+01 0. -1.
         -5    1    4    4    0  501  0.84902424034E+02  0.14524242824E+02 -0.13049283317E+02  0.87218870845E+02  0.41800000000E+01 0. -1.
</event>
<event>
11    1  0.1002087E-008  0.3258083E+03  0.7561462E-02  0.9898239E-01
         22   -1    0    0    0    0  0.00000000000E+00  0.00000000000E+00  0.61890154132E+03  0.61890154132E+03  0.00000000000E+00 0. -1.
         22   -1    0    0    0    0 -0.00000000000E+00 -0.00000000000E+00 -0.21268943204E+04  0.21268943204E+04  0.00000000000E+00 0. -1.
         24    2    1    2    0    0  0.22552162892E+03 -0.19160437169E+03 -0.17627563195E+04  0.17894122688E+04  0.84345629977E+02 0.  0.
         25    2    1    2    0    0 -0.15498495987E+03  0.34206840951E+03 -0.21742046333E+03  0.45161071714E+03  0.12509775132E+03 0.  0.
        -24    2    1    2    0    0 -0.70536669048E+02 -0.15046403782E+03  0.47218400377E+03  0.50477287580E+03  0.64985185795E+02 0.  0.
        -13    1    3    3    0    0  0.16038650764E+03 -0.89253576070E+02 -0.93911479426E+03  0.95688381190E+03  0.00000000000E+00 0.  1.
         14    1    3    3    0    0  0.65135121277E+02 -0.10235079562E+03 -0.82364152523E+03  0.83252845686E+03  0.00000000000E+00 0. -1.
         11    1    5    5    0    0 -0.33308688689E+02 -0.13039599892E+03  0.32867324065E+03  0.35516008277E+03  0.00000000000E+00 0. -1.
        -12    1    5    5    0    0 -0.37227980359E+02 -0.20068038903E+02  0.14351076312E+03  0.14961279303E+03  0.00000000000E+00 0.  1.
          5    1    4    4  501    0 -0.73896964828E+02  0.12826386073E+03 -0.19897661583E+02  0.14941810037E+03  0.41800000000E+01 0.  1.
         -5    1    4    4    0  501 -0.81087995041E+02  0.21380454878E+03 -0.19752280175E+03  0.30219261677E+03  0.41800000000E+01 0.  1.
</event>
<event>
11    1  0.1002087E-008  0.1730710E+03  0.7561462E-02  0.1075390E+00
         22   -1    0    0    0    0  0.00000000000E+00  0.00000000000E+00  0.21226951660E+04  0.21226951660E+04  0.00000000000E+00 0.  1.
         22   -1    0    0    0    0 -0.00000000000E+00 -0.00000000000E+00 -0.80397043572E+02  0.80397043572E+02  0.00000000000E+00 0.  1.
        -24    2    1    2    0    0  0.11190243881E+03  0.39462843936E+02  0.10254041026E+02  0.14578990887E+03  0.84083769591E+02 0.  0.
         25    2    1    2    0    0 -0.99119249497E+02 -0.10802330088E+03  0.91621703089E+03  0.93626594043E+03  0.12508638762E+03 0.  0.
         24    2    1    2    0    0 -0.12783189315E+02  0.68560456948E+02  0.11158270505E+04  0.11210363602E+04  0.82392767842E+02 0.  0.
        -11    1    5    5    0    0 -0.24902973726E+02  0.73631530139E+02  0.59648382166E+03  0.60152698180E+03  0.00000000000E+00 0.  1.
         12    1    5    5    0    0  0.12119784411E+02 -0.50710731909E+01  0.51934322884E+03  0.51950937845E+03  0.00000000000E+00 0. -1.
         13    1    3    3    0    0  0.67926372581E+02 -0.13910522506E+02  0.27376936617E+02  0.74545230477E+02  0.00000000000E+00 0. -1.
        -14    1    3    3    0    0  0.43976066231E+02  0.53373366442E+02 -0.17122895590E+02  0.71244678397E+02  0.00000000000E+00 0.  1.
          5    1    4    4  501    0 -0.61322730346E+02 -0.61396519829E+02  0.20686970114E+03  0.22437146778E+03  0.41800000000E+01 0.  1.
         -5    1    4    4    0  501 -0.37796519151E+02 -0.46626781055E+02  0.70934732974E+03  0.71189447265E+03  0.41800000000E+01 0.  1.
</event>
<event>
11    1  0.1002087E-008  0.1283388E+03  0.7561462E-02  0.1121327E+00
         22   -1    0    0    0    0  0.00000000000E+00  0.00000000000E+00  0.59447549033E+03  0.59447549033E+03  0.00000000000E+00 0.  1.
         22   -1    0    0    0    0 -0.00000000000E+00 -0.00000000000E+00 -0.11419205731E+04  0.11419205731E+04  0.00000000000E+00 0. -1.
         24    2    1    2    0    0 -0.52261378631E+02 -0.11995142014E+02 -0.10967594310E+04  0.11007101279E+04  0.76199745604E+02 0.  0.
         25    2    1    2    0    0  0.26731047823E+02  0.32624028812E+02  0.80629031760E+02  0.15467711342E+03  0.12508034410E+03 0.  0.
        -24    2    1    2    0    0  0.25530330808E+02 -0.20628886798E+02  0.46868531644E+03  0.48100882205E+03  0.10308352092E+03 0.  0.
        -13    1    3    3    0    0 -0.14675896695E+02  0.28301275622E+02 -0.22974430333E+03  0.23194565971E+03  0.00000000000E+00 0.  1.
         14    1    3    3    0    0 -0.37585481935E+02 -0.40296417636E+02 -0.86701512763E+03  0.86876446823E+03  0.00000000000E+00 0. -1.
         13    1    5    5    0    0 -0.33282984421E+02 -0.12096890044E+02  0.30154818236E+03  0.30362048364E+03  0.00000000000E+00 0. -1.
        -14    1    5    5    0    0  0.58813315228E+02 -0.85319967542E+01  0.16713713408E+03  0.17738833841E+03  0.00000000000E+00 0.  1.
          5    1    4    4  501    0 -0.33539523008E+02  0.43776759038E+02  0.26033121931E+01  0.55367444133E+02  0.41800000000E+01 0.  1.
         -5    1    4    4    0  501  0.60270570831E+02 -0.11152730226E+02  0.78025719567E+02  0.99309669286E+02  0.41800000000E+01 0.  1.
</event>
<event>
11    1  0.1002087E-008  0.1559264E+03  0.7561462E-02  0.1090972E+00
         22   -1    0    0    0    0  0.00000000000E+00  0.00000000000E+00  0.27753993477E+04  0.27753993477E+04  0.00000000000E+00 0. -1.
         22   -1    0    0    0    0 -0.00000000000E+00 -0.00000000000E+00 -0.79673505962E+02  0.79673505962E+02  0.00000000000E+00 0.  1.
         24    2    1    2    0    0  0.49219192825E+02  0.76262099209E+02 -0.10279468169E+02  0.12396835037E+03  0.83809591991E+02 0.  0.
         25    2    1    2    0    0 -0.70457978750E+02 -0.97078828222E+02  0.64108655195E+03  0.66409909326E+03  0.12508802071E+03 0.  0.
        -24    2    1    2    0    0  0.21238785924E+02  0.20816729013E+02  0.20649187580E+04  0.20670054101E+04  0.87962866480E+02 0.  0.
        -11    1    3    3    0    0  0.50996809914E+02  0.92512147552E+02 -0.20270459834E+01  0.10565642896E+03  0.00000000000E+00 0.  1.
         12    1    3    3    0    0 -0.17776170884E+01 -0.16250048343E+02 -0.82524221860E+01  0.18311921406E+02  0.00000000000E+00 0. -1.
         13    1    5    5    0    0  0.22365951643E+02  0.47753846627E+02  0.17879730593E+04  0.17887504931E+04  0.00000000000E+00 0. -1.
        -14    1    5    5    0    0 -0.11271657186E+01 -0.26937117614E+02  0.27694569868E+03  0.27825491698E+03  0.00000000000E+00 0.  1.
          5    1    4    4  501    0 -0.49219110151E+02 -0.12387175027E+03  0.56585758565E+03  0.58135962274E+03  0.41800000000E+01 0. -1.
         -5    1    4    4    0  501 -0.21238868599E+02  0.26792922052E+02  0.75228966302E+02  0.82739470523E+02  0.41800000000E+01 0. -1.
</event>
<event>
11    1  0.1002087E-008  0.1498651E+03  0.7561462E-02  0.1097017E+00
         22   -1    0    0    0    0  0.00000000000E+00  0.00000000000E+00  0.61934735472E+03  0.61934735472E+03  0.00000000000E+00 0. -1.
         22   -1    0    0    0    0 -0.00000000000E+00 -0.00000000000E+00 -0.13764436500E+03  0.13764436500E+03  0.00000000000E+00 0. -1.
        -24    2    1    2    0    0 -0.13798497785E+02 -0.61331613005E+01 -0.62338742385E+02  0.10264216206E+03  0.80132892262E+02 0.  0.
         25    2    1    2    0    0 -0.70310402453E+02  0.37587798526E+00  0.58396134779E+02  0.15492307035E+03  0.12508938881E+03 0.  0.
         24    2    1    2    0    0  0.84108900237E+02  0.57572833152E+01  0.48564559733E+03  0.49942648730E+03  0.80422115147E+02 0.  0.
        -11    1    5    5    0    0  0.86150719575E+01  0.29310638775E+02  0.22450113374E+03  0.22657028062E+03  0.00000000000E+00 0.  1.
         12    1    5    5    0    0  0.75493828280E+02 -0.23553355460E+02  0.26114446359E+03  0.27285620668E+03  0.00000000000E+00 0. -1.
         11    1    3    3    0    0  0.31995846920E+01 -0.39234522753E+02 -0.49575668933E+02  0.63303491752E+02  0.00000000000E+00 0. -1.
        -12    1    3    3    0    0 -0.16998082477E+02  0.33101361453E+02 -0.12763073452E+02  0.39338670311E+02  0.00000000000E+00 0.  1.
          5    1    4    4  501    0 -0.82438509960E+02 -0.16874471694E+02  0.85695791942E+02  0.12017527564E+03  0.41800000000E+01 0. -1.
         -5    1    4    4    0  501  0.12128107507E+02  0.17250349679E+02 -0.27299657164E+02  0.34747794707E+02  0.41800000000E+01 0. -1.
</event>
<event>
11    1  0.1002087E-008  0.2387948E+03  0.7561462E-02  0.1030044E+00
         22   -1    0    0    0    0  0.00000000000E+00  0.00000000000E+00  0.25078661603E+04  0.25078661603E+04  0.00000000000E+00 0.  1.
         22   -1    0    0    0    0 -0.00000000000E+00 -0.00000000000E+00 -0.15913913128E+04  0.15913913128E+04  0.00000000000E+00 0. -1.
        -24    2    1    2    0    0 -0.28465142127E+02 -0.86642339049E+02 -0.12445089406E+04  0.12505010391E+04  0.81444376532E+02 0.  0.
         25    2    1    2    0    0  0.21451883269E+03  0.16672657100E+03 -0.27308308651E+03  0.40501623898E+03  0.12509077764E+03 0.  0.
         24    2    1    2    0    0 -0.18605369056E+03 -0.80084231948E+02  0.24340668746E+04  0.24437401950E+04  0.78454641605E+02 0.  0.
        -11    1    5    5    0    0 -0.99887143067E+02 -0.67520960233E+02  0.10419142246E+04  0.10488668995E+04  0.00000000000E+00 0.  1.
         12    1    5    5    0    0 -0.86166547496E+02 -0.12563271716E+02  0.13921526500E+04  0.13948732955E+04  0.00000000000E+00 0. -1.
         11    1    3    3    0    0 -0.43101449746E+02 -0.73668231383E+02 -0.11802333611E+04  0.11833154820E+04  0.00000000000E+00 0. -1.
        -12    1    3    3    0    0  0.14636307619E+02 -0.12974107666E+02 -0.64275579465E+02  0.67185557124E+02  0.00000000000E+00 0.  1.
          5    1    4    4  501    0  0.83910727212E+02  0.21445201693E+02 -0.27056191832E+02  0.90831804636E+02  0.41800000000E+01 0. -1.
         -5    1    4    4    0  501  0.13060810548E+03  0.14528136930E+03 -0.24602689468E+03  0.31418443435E+03  0.41800000000E+01 0. -1.
</event>
<event>
11    1  0.1002087E-008  0.1292246E+03  0.7561462E-02  0.1120225E+00
         22   -1    0    0    0    0  0.00000000000E+00  0.00000000000E+00  0.11546508904E+04  0.11546508904E+04  0.00000000000E+00 0.  1.
         22   -1    0    0    0    0 -0.00000000000E+00 -0.00000000000E+00 -0.11744611833E+04  0.11744611833E+04  0.00000000000E+00 0. -1.
         24    2    1    2    0    0 -0.22172330192E+02 -0.12507902901E+02 -0.11266439922E+04  0.11298123794E+04  0.80630437807E+02 0.  0.
         25    2    1    2    0    0  0.98840479548E+00  0.37243010541E+02  0.51305154843E+02  0.14024946917E+03  0.12509866470E+03 0.  0.
        -24    2    1    2    0    0  0.21183925397E+02 -0.24735107639E+02  0.10555285444E+04  0.10590502252E+04  0.79914248363E+02 0.  0.
        -11    1    3    3    0    0 -0.28775748273E+02  0.13528505209E+02 -0.17997006453E+03  0.18275745749E+03  0.00000000000E+00 0.  1.
         12    1    3    3    0    0  0.66034180812E+01 -0.26036408110E+02 -0.94667392767E+03  0.94705492186E+03  0.00000000000E+00 0. -1.
         11    1    5    5    0    0  0.31200461268E+02 -0.46476899935E+02  0.52371136108E+03  0.52669456114E+03  0.00000000000E+00 0. -1.
        -12    1    5    5    0    0 -0.10016535871E+02  0.21741792295E+02  0.53181718335E+03  0.53235566404E+03  0.00000000000E+00 0.  1.
          5    1    4    4  501    0  0.42507007883E+02  0.17960946510E+02 -0.23879099803E+02  0.52126050360E+02  0.41800000000E+01 0.  1.
         -5    1    4    4    0  501 -0.41518603088E+02  0.19282064031E+02  0.75184254645E+02  0.88123418807E+02  0.41800000000E+01 0.  1.
</event>
<event>
11    1  0.1002087E-008  0.1581797E+03  0.7561462E-02  0.1088802E+00
         22   -1    0    0    0    0  0.00000000000E+00  0.00000000000E+00  0.16349239159E+04  0.16349239159E+04  0.00000000000E+00 0. -1.
         22   -1    0    0    0    0 -0.00000000000E+00 -0.00000000000E+00 -0.15209349066E+04  0.15209349066E+04  0.00000000000E+00 0.  1.
        -24    2    1    2    0    0  0.64491028865E+02 -0.13065376648E+02 -0.14755815866E+04  0.14790864061E+04  0.77625905317E+02 0.  0.
         25    2    1    2    0    0 -0.12953339573E+03  0.80093908212E+02  0.19665518990E+03  0.27841510782E+03  0.12509106205E+03 0.  0.
         24    2    1    2    0    0  0.65042366868E+02 -0.67028531564E+02  0.13929154061E+04  0.13983573085E+04  0.80414551978E+02 0.  0.
        -13    1    5    5    0    0  0.23022515311E+02 -0.27081497384E+02  0.15249904856E+03  0.15658672844E+03  0.00000000000E+00 0.  1.
         14    1    5    5    0    0  0.42019851557E+02 -0.39947034180E+02  0.12404163576E+04  0.12417705801E+04  0.00000000000E+00 0. -1.
         11    1    3    3    0    0  0.19828561183E+02 -0.19118098024E+02 -0.13674828293E+03  0.13949468232E+03  0.00000000000E+00 0. -1.
        -12    1    3    3    0    0  0.44662467681E+02  0.60527213760E+01 -0.13388333037E+04  0.13395917238E+04  0.00000000000E+00 0.  1.
          5    1    4    4  501    0  0.11123647245E+02  0.41507392515E+01 -0.10730991140E+02  0.16540578442E+02  0.41800000000E+01 0.  1.
         -5    1    4    4    0  501 -0.14065704298E+03  0.75943168961E+02  0.20738618104E+03  0.26187452938E+03  0.41800000000E+01 0.  1.
</event>
<event>
11    1  0.1002087E-008  0.1506092E+03  0.7561462E-02  0.1096258E+00
         22   -1    0    0    0    0  0.00000000000E+00  0.00000000000E+00  0.50653012052E+03  0.50653012052E+03  0.00000000000E+00 0.  1.
         22   -1    0    0    0    0 -0.00000000000E+00 -0.00000000000E+00 -0.80243849346E+03  0.80243849346E+03  0.00000000000E+00 0. -1.
         24    2    1    2    0    0  0.50390692356E+02 -0.32597228132E+02 -0.73331323515E+03  0.74034874838E+03  0.82256715392E+02 0.  0.
         25    2    1    2    0    0 -0.59045113059E+02  0.11056678894E+03  0.81766558052E+02  0.19505139917E+03  0.12509171879E+03 0.  0.
        -24    2    1    2    0    0  0.86544207022E+01 -0.77969560813E+02  0.35563830416E+03  0.37356846643E+03  0.83190409986E+02 0.  0.
        -11    1    3    3    0    0 -0.80535960721E+01  0.16059954148E+02 -0.29032435507E+03  0.29087972374E+03  0.00000000000E+00 0.  1.
         12    1    3    3    0    0  0.58444288429E+02 -0.48657182279E+02 -0.44298888008E+03  0.44946902464E+03  0.00000000000E+00 0. -1.
         11    1    5    5    0    0 -0.37253519390E+02 -0.30169810263E+02  0.15820346861E+03  0.16530692557E+03  0.00000000000E+00 0. -1.
        -12    1    5    5    0    0  0.45907940092E+02 -0.47799750550E+02  0.19743483554E+03  0.20826154086E+03  0.00000000000E+00 0.  1.
          5    1    4    4  501    0 -0.65695298423E+02  0.96896976853E+02  0.11129184870E+03  0.16158045781E+03  0.41800000000E+01 0.  1.
         -5    1    4    4    0  501  0.66501853648E+01  0.13669812091E+02 -0.29525290650E+02  0.33470941366E+02  0.41800000000E+01 0.  1.
</event>
<event>
11    1  0.1002087E-008  0.2141888E+03  0.7561462E-02  0.1044920E+00
         22   -1    0    0    0    0  0.00000000000E+00  0.00000000000E+00  0.14218479950E+03  0.14218479950E+03  0.00000000000E+00 0.  1.
         22   -1    0    0    0    0 -0.00000000000E+00 -0.00000000000E+00 -0.82677233546E+03  0.82677233546E+03  0.00000000000E+00 0.  1.
        -24    2    1    2    0    0  0.10060978733E+03 -0.16054471863E+03 -0.53000478469E+03  0.56842824364E+03  0.79427075905E+02 0.  0.
         25    2    1    2    0    0 -0.23624096234E+02  0.14840351944E+03 -0.20005708106E+03  0.27973176322E+03  0.12508125826E+03 0.  0.
         24    2    1    2    0    0 -0.76985691101E+02  0.12141199187E+02  0.45474329785E+02  0.12079712810E+03  0.80310809583E+02 0.  0.
        -11    1    5    5    0    0 -0.93108119466E+02  0.25353591741E+01  0.37651142556E+02  0.10046471267E+03  0.00000000000E+00 0.  1.
         12    1    5    5    0    0  0.16122428364E+02  0.96058400133E+01  0.78231872294E+01  0.20332415428E+02  0.00000000000E+00 0. -1.
         11    1    3    3    0    0  0.34249617629E+02 -0.26744859284E+02 -0.22088875225E+03  0.22512255479E+03  0.00000000000E+00 0. -1.
        -12    1    3    3    0    0  0.66360169706E+02 -0.13379985934E+03 -0.30911603244E+03  0.34330568885E+03  0.00000000000E+00 0.  1.
          5    1    4    4  501    0 -0.62099654880E+02  0.10338000554E+03 -0.77119629244E+02  0.14320859714E+03  0.41800000000E+01 0. -1.
         -5    1    4    4    0  501  0.38475558647E+02  0.45023513900E+02 -0.12293745181E+03  0.13652316608E+03  0.41800000000E+01 0. -1.
</event>
<event>
11    1  0.1002087E-008  0.2906639E+03  0.7561462E-02  0.1004222E+00
         22   -1    0    0    0    0  0.00000000000E+00  0.00000000000E+00  0.11149962658E+04  0.11149962658E+04  0.00000000000E+00 0. -1.
         22   -1    0    0    0    0 -0.00000000000E+00 -0.00000000000E+00 -0.16967017600E+03  0.16967017600E+03  0.00000000000E+00 0. -1.
         24    2    1    2    0    0 -0.26509967990E+02 -0.58964949569E+02 -0.34051575808E+02  0.10862208545E+03  0.80371661370E+02 0.  0.
         25    2    1    2    0    0 -0.15387080392E+03 -0.15209376493E+03  0.13677959710E+03  0.28490275548E+03  0.12510868983E+03 0.  0.
        -24    2    1    2    0    0  0.18038077191E+03  0.21105871450E+03  0.84259806855E+03  0.89114160091E+03  0.84135865761E+02 0.  0.
        -11    1    3    3    0    0  0.60862449721E+01 -0.64017629046E+02 -0.39088403140E+02  0.75254252150E+02  0.00000000000E+00 0.  1.
         12    1    3    3    0    0 -0.32596212962E+02  0.50526794771E+01  0.50368273323E+01  0.33367833297E+02  0.00000000000E+00 0. -1.
         11    1    5    5    0    0  0.17383195489E+03  0.15485487891E+03  0.65167433160E+03  0.69200940494E+03  0.00000000000E+00 0. -1.
        -12    1    5    5    0    0  0.65488170151E+01  0.56203835592E+02  0.19092373695E+03  0.19913219597E+03  0.00000000000E+00 0.  1.
          5    1    4    4  501    0  0.11990243158E+02 -0.50946839793E+02  0.48490143315E+02  0.71471062777E+02  0.41800000000E+01 0.  1.
         -5    1    4    4    0  501 -0.16586104707E+03 -0.10114692514E+03  0.88289453783E+02  0.21343169270E+03  0.41800000000E+01 0.  1.
</event>
<event>
11    1  0.1002087E-008  0.1301258E+03  0.7561462E-02  0.1119115E+00
         22   -1    0    0    0    0  0.00000000000E+00  0.00000000000E+00  0.26437440052E+03  0.26437440052E+03  0.00000000000E+00 0. -1.
         22   -1    0    0    0    0 -0.00000000000E+00 -0.00000000000E+00 -0.10005575991E+04  0.10005575991E+04  0.00000000000E+00 0. -1.
         24    2    1    2    0    0 -0.98120803835E+01  0.34972786239E+02 -0.83695274492E+03  0.84157538931E+03  0.80248775438E+02 0.  0.
         25    2    1    2    0    0  0.27095662633E+02 -0.23269319121E+02 -0.12706392056E+03  0.18184851843E+03  0.12509199655E+03 0.  0.
        -24    2    1    2    0    0 -0.17283582249E+02 -0.11703467118E+02  0.22783346685E+03  0.24150809193E+03  0.77345824022E+02 0.  0.
        -13    1    3    3    0    0  0.21726955986E+02 -0.11887254559E+02 -0.12786399364E+03  0.13024042501E+03  0.00000000000E+00 0.  1.
         14    1    3    3    0    0 -0.31539036370E+02  0.46860040798E+02 -0.70908875128E+03  0.71133496429E+03  0.00000000000E+00 0. -1.
         11    1    5    5    0    0 -0.40150551053E+02  0.16193673386E+02  0.14048778470E+03  0.14700720886E+03  0.00000000000E+00 0. -1.
        -12    1    5    5    0    0  0.22866968805E+02 -0.27897140505E+02  0.87345682156E+02  0.94500883075E+02  0.00000000000E+00 0.  1.
          5    1    4    4  501    0 -0.57962049773E+01 -0.70936115487E+02 -0.60379190866E+02  0.93427231373E+02  0.41800000000E+01 0.  1.
         -5    1    4    4    0  501  0.32891867610E+02  0.47666796366E+02 -0.66684729691E+02  0.88421287056E+02  0.41800000000E+01 0.  1.
</event>
<event>
11    1  0.1002087E-008  0.1426017E+03  0.7561462E-02  0.1104687E+00
         22   -1    0    0    0    0  0.00000000000E+00  0.00000000000E+00  0.10810941977E+03  0.10810941977E+03  0.00000000000E+00 0.  1.
         22   -1    0    0    0    0 -0.00000000000E+00 -0.00000000000E+00 -0.72462024185E+03  0.72462024185E+03  0.00000000000E+00 0. -1.
        -24    2    1    2    0    0 -0.39437560326E+02 -0.80364810698E+01 -0.56809764042E+03  0.57494311474E+03  0.78770235163E+02 0.  0.
         25    2    1    2    0    0  0.66579544793E+02  0.59441658651E+02 -0.35930758500E+02  0.15781332660E+03  0.12509148683E+03 0.  0.
         24    2    1    2    0    0 -0.27141984467E+02 -0.51405177581E+02 -0.12482423160E+02  0.99973220275E+02  0.80371974477E+02 0.  0.
        -11    1    5    5    0    0 -0.11894748040E+02 -0.63641852801E+02 -0.32110973258E+02  0.72269530665E+02  0.00000000000E+00 0.  1.
         12    1    5    5    0    0 -0.15247236427E+02  0.12236675220E+02  0.19628550098E+02  0.27703689611E+02  0.00000000000E+00 0. -1.
         11    1    3    3    0    0 -0.34813879479E+02  0.76733911878E+01 -0.54735723129E+03  0.54851693300E+03  0.00000000000E+00 0. -1.
        -12    1    3    3    0    0 -0.46236808468E+01 -0.15709872258E+02 -0.20740409130E+02  0.26426181748E+02  0.00000000000E+00 0.  1.
          5    1    4    4  501    0 -0.23830246620E+02  0.34313966100E+02 -0.47244334170E+02  0.63204655166E+02  0.41800000000E+01 0.  1.
         -5    1    4    4    0  501  0.90409791414E+02  0.25127692551E+02  0.11313575670E+02  0.94608671436E+02  0.41800000000E+01 0.  1.
</event>
<event>
11    1  0.1002087E-008  0.2553189E+03  0.7561462E-02  0.1021103E+00
         22   -1    0    0    0    0  0.00000000000E+00  0.00000000000E+00  0.24418522124E+03  0.24418522124E+03  0.00000000000E+00 0.  1.
         22   -1    0    0    0    0 -0.00000000000E+00 -0.00000000000E+00 -0.20346438449E+04  0.20346438449E+04  0.00000000000E+00 0.  1.
        -24    2    1    2    0    0  0.11060442090E+01  0.50701465038E+02 -0.16073583007E+04  0.16102412303E+04  0.81879491685E+02 0.  0.
         25    2    1    2    0    0  0.14803171654E+03 -0.20758985593E+03 -0.29756394624E+03  0.41133782117E+03  0.12509022198E+03 0.  0.
         24    2    1    2    0    0 -0.14913776075E+03  0.15688839090E+03  0.11446362331E+03  0.25725001461E+03  0.78864504539E+02 0.  0.
        -11    1    5    5    0    0 -0.69145649412E+02  0.12405532383E+03  0.86873524780E+02  0.16648679681E+03  0.00000000000E+00 0.  1.
         12    1    5    5    0    0 -0.79992111333E+02  0.32833067066E+02  0.27590098526E+02  0.90763217799E+02  0.00000000000E+00 0. -1.
         13    1    3    3    0    0 -0.31216053689E+01 -0.18673333295E+02 -0.14480839075E+03  0.14604077454E+03  0.00000000000E+00 0. -1.
        -14    1    3    3    0    0  0.42276495779E+01  0.69374798333E+02 -0.14625499100E+04  0.14642004558E+04  0.00000000000E+00 0.  1.
          5    1    4    4  501    0  0.15939382630E+03 -0.13876282176E+03 -0.19748177134E+03  0.28927155923E+03  0.41800000000E+01 0.  1.
         -5    1    4    4    0  501 -0.11362109767E+02 -0.68827034173E+02 -0.10008217490E+03  0.12206626194E+03  0.41800000000E+01 0.  1.
</event>
<event>
11    1  0.1002087E-008  0.1363852E+03  0.7561462E-02  0.1111663E+00
         22   -1    0    0    0    0  0.00000000000E+00  0.00000000000E+00  0.46288438080E+03  0.46288438080E+03  0.00000000000E+00 0.  1.
         22   -1    0    0    0    0 -0.00000000000E+00 -0.00000000000E+00 -0.14195532210E+04  0.14195532210E+04  0.00000000000E+00 0. -1.
         24    2    1    2    0    0  0.12294004601E+02 -0.51254945860E+02 -0.10659158792E+04  0.10701998633E+04  0.79830281335E+02 0.  0.
         25    2    1    2    0    0  0.42422024771E+01  0.67790158745E+02 -0.33292528486E+03  0.36207930674E+03  0.12509467283E+03 0.  0.
        -24    2    1    2    0    0 -0.16536207078E+02 -0.16535212885E+02  0.44217232385E+03  0.45015843178E+03  0.81113441038E+02 0.  0.
        -13    1    3    3    0    0  0.19721406560E+02 -0.25650983572E+01 -0.62760963849E+02  0.65836556635E+02  0.00000000000E+00 0.  1.
         14    1    3    3    0    0 -0.74274019593E+01 -0.48689847503E+02 -0.10031549154E+04  0.10043633067E+04  0.00000000000E+00 0. -1.
         11    1    5    5    0    0 -0.37178109170E+00 -0.38114708552E+02  0.10150342504E+03  0.10842423402E+03  0.00000000000E+00 0. -1.
        -12    1    5    5    0    0 -0.16164425986E+02  0.21579495667E+02  0.34066889881E+03  0.34173419775E+03  0.00000000000E+00 0.  1.
          5    1    4    4  501    0  0.36336460509E+02  0.60182067136E+01 -0.25428201035E+03  0.25696959035E+03  0.41800000000E+01 0.  1.
         -5    1    4    4    0  501 -0.32094258032E+02  0.61771952031E+02 -0.78643274503E+02  0.10510971640E+03  0.41800000000E+01 0.  1.
</event>
<event>
11    1  0.1002087E-008  0.1519635E+03  0.7561462E-02  0.1094889E+00
         22   -1    0    0    0    0  0.00000000000E+00  0.00000000000E+00  0.95563349132E+03  0.95563349132E+03  0.00000000000E+00 0. -1.
         22   -1    0    0    0    0 -0.00000000000E+00 -0.00000000000E+00 -0.87341988982E+03  0.87341988982E+03  0.00000000000E+00 0.  1.
         24    2    1    2    0    0 -0.45182150100E+02  0.75473088328E+02 -0.82012477186E+03  0.82806802322E+03  0.73173737812E+02 0.  0.
         25    2    1    2    0    0  0.11864737841E+03 -0.30825615082E+02  0.12619997596E+03  0.21587348290E+03  0.12508999855E+03 0.  0.
        -24    2    1    2    0    0 -0.73465228310E+02 -0.44647473246E+02  0.77613839740E+03  0.78511187502E+03  0.81359128186E+02 0.  0.
        -13    1    3    3    0    0 -0.14868431033E+02  0.65495587224E+02 -0.71648620383E+03  0.71962714128E+03  0.00000000000E+00 0.  1.
         14    1    3    3    0    0 -0.30313719067E+02  0.99775011032E+01 -0.10363856803E+03  0.10844088194E+03  0.00000000000E+00 0. -1.
         13    1    5    5    0    0 -0.88740496053E+02 -0.48503080360E+02  0.70732564149E+03  0.71451871043E+03  0.00000000000E+00 0. -1.
        -14    1    5    5    0    0  0.15275267743E+02  0.38556071144E+01  0.68812755910E+02  0.70593164590E+02  0.00000000000E+00 0.  1.
          5    1    4    4  501    0  0.12115287896E+03 -0.57076942711E+02  0.64628017745E+02  0.14876172406E+03  0.41800000000E+01 0. -1.
         -5    1    4    4    0  501 -0.25055005487E+01  0.26251327629E+02  0.61571958219E+02  0.67111758837E+02  0.41800000000E+01 0. -1.
</event>
<event>
11    1  0.1002087E-008  0.1260160E+03  0.7561462E-02  0.1124263E+00
         22   -1    0    0    0    0  0.00000000000E+00  0.00000000000E+00  0.17203164335E+03  0.17203164335E+03  0.00000000000E+00 0.  1.
         22   -1    0    0    0    0 -0.00000000000E+00 -0.00000000000E+00 -0.80472688234E+03  0.80472688234E+03  0.00000000000E+00 0. -1.
         24    2    1    2    0    0  0.25819479220E+02  0.15649197626E+02 -0.35748030629E+03  0.36723010333E+03  0.78448942113E+02 0.  0.
         25    2    1    2    0    0 -0.11293252433E+02 -0.89741154319E+01 -0.42198520340E+03  0.44037227748E+03  0.12509260003E+03 0.  0.
        -24    2    1    2    0    0 -0.14526226787E+02 -0.66750821939E+01  0.14677027070E+03  0.16915614488E+03  0.82563436241E+02 0.  0.
        -11    1    3    3    0    0  0.14708277770E+02 -0.46655120730E+01 -0.87635064825E+01  0.17745407398E+02  0.00000000000E+00 0.  1.
         12    1    3    3    0    0  0.11111201450E+02  0.20314709699E+02 -0.34871679980E+03  0.34948469594E+03  0.00000000000E+00 0. -1.
         13    1    5    5    0    0  0.18935598540E+02  0.15557679754E+02  0.97630509940E+01  0.26380209554E+02  0.00000000000E+00 0. -1.
        -14    1    5    5    0    0 -0.33461825327E+02 -0.22232761948E+02  0.13700721970E+03  0.14277593533E+03  0.00000000000E+00 0.  1.
          5    1    4    4  501    0 -0.46712854241E+02  0.41384028844E+02 -0.17668993113E+03  0.18743407577E+03  0.41800000000E+01 0.  1.
         -5    1    4    4    0  501  0.35419601808E+02 -0.50358144276E+02 -0.24529527227E+03  0.25293820171E+03  0.41800000000E+01 0.  1.
</event>
<event>
11    1  0.1002087E-008  0.1922048E+03  0.7561462E-02  0.1060177E+00
         22   -1    0    0    0    0  0.00000000000E+00  0.00000000000E+00  0.59752006997E+03  0.59752006997E+03  0.00000000000E+00 0. -1.
         22   -1    0    0    0    0 -0.00000000000E+00 -0.00000000000E+00 -0.81713067400E+03  0.81713067400E+03  0.00000000000E+00 0.  1.
        -24    2    1    2    0    0 -0.33857640681E+02  0.62941800230E+02 -0.64692932173E+03  0.65599296365E+03  0.81860924670E+02 0.  0.
         25    2    1    2    0    0 -0.99976809401E+02 -0.12194075308E+03 -0.86084171013E+02  0.21891390338E+03  0.12509157811E+03 0.  0.
         24    2    1    2    0    0  0.13383445008E+03  0.58998952854E+02  0.51340288871E+03  0.53974387695E+03  0.79676785187E+02 0.  0.
        -13    1    5    5    0    0  0.24559491464E+01  0.32211243479E+02  0.10963978542E+03  0.11429994943E+03  0.00000000000E+00 0.  1.
         14    1    5    5    0    0  0.13137850094E+03  0.26787709374E+02  0.40376310329E+03  0.42544392751E+03  0.00000000000E+00 0. -1.
         11    1    3    3    0    0  0.11538307940E+02  0.22481968641E+02 -0.50479466498E+02  0.56451288754E+02  0.00000000000E+00 0. -1.
        -12    1    3    3    0    0 -0.45395948621E+02  0.40459831589E+02 -0.59644985524E+03  0.59954167489E+03  0.00000000000E+00 0.  1.
          5    1    4    4  501    0  0.10932859898E+02 -0.11872773430E+02 -0.57681423159E+02  0.60042561172E+02  0.41800000000E+01 0. -1.
         -5    1    4    4    0  501 -0.11090966930E+03 -0.11006797965E+03 -0.28402747853E+02  0.15887134221E+03  0.41800000000E+01 0. -1.
</event>
<event>
11    1  0.1002087E-008  0.1374879E+03  0.7561462E-02  0.1110396E+00
         22   -1    0    0    0    0  0.00000000000E+00  0.00000000000E+00  0.16464021758E+03  0.16464021758E+03  0.00000000000E+00 0. -1.
         22   -1    0    0    0    0 -0.00000000000E+00 -0.00000000000E+00 -0.61481105147E+03  0.61481105147E+03  0.00000000000E+00 0.  1.
        -24    2    1    2    0    0  0.36306270315E+02  0.16370424671E+02 -0.33430105036E+03  0.34624921674E+03  0.80902359376E+02 0.  0.
         25    2    1    2    0    0 -0.57853229545E+02 -0.67150476928E+02 -0.23421946173E+03  0.27993450316E+03  0.12509351335E+03 0.  0.
         24    2    1    2    0    0  0.21546959230E+02  0.50780052257E+02  0.11834967821E+03  0.15326754915E+03  0.80258396014E+02 0.  0.
        -13    1    5    5    0    0  0.31606077912E+02  0.54407181823E+02  0.40816526132E+02  0.75000496001E+02  0.00000000000E+00 0.  1.
         14    1    5    5    0    0 -0.10059118682E+02 -0.36271295664E+01  0.77533152075E+02  0.78267053146E+02  0.00000000000E+00 0. -1.
         11    1    3    3    0    0  0.23905483453E+02  0.12561801875E+02 -0.25391804463E+02  0.37067704803E+02  0.00000000000E+00 0. -1.
        -12    1    3    3    0    0  0.12400786862E+02  0.38086227966E+01 -0.30890924590E+03  0.30918151194E+03  0.00000000000E+00 0.  1.
          5    1    4    4  501    0 -0.80231325085E+02 -0.89985741373E+02 -0.17581408876E+03  0.21321952393E+03  0.41800000000E+01 0. -1.
         -5    1    4    4    0  501  0.22378095539E+02  0.22835264445E+02 -0.58405372967E+02  0.66714979230E+02  0.41800000000E+01 0. -1.
</event>
<event>
11    1  0.1002087E-008  0.1595332E+03  0.7561462E-02  0.1087517E+00
         22   -1    0    0    0    0  0.00000000000E+00  0.00000000000E+00  0.18447770868E+04  0.18447770868E+04  0.00000000000E+00 0. -1.
         22   -1    0    0    0    0 -0.00000000000E+00 -0.00000000000E+00 -0.25160735559E+03  0.25160735559E+03  0.00000000000E+00 0.  1.
        -24    2    1    2    0    0  0.43552096366E+01 -0.98012989042E+02 -0.18824131968E+03  0.22707910807E+03  0.80651181112E+02 0.  0.
         25    2    1    2    0    0  0.43608558475E+02  0.10781050241E+03  0.12855577451E+03  0.21377257583E+03  0.12508923300E+03 0.  0.
         24    2    1    2    0    0 -0.47963768112E+02 -0.97975133726E+01  0.16528552764E+04  0.16555327585E+04  0.80384298487E+02 0.  0.
        -13    1    5    5    0    0  0.19672357411E+02 -0.56834590047E+01  0.68617824052E+03  0.68648370783E+03  0.00000000000E+00 0.  1.
         14    1    5    5    0    0 -0.67636125523E+02 -0.41140543679E+01  0.96667703591E+03  0.96904905070E+03  0.00000000000E+00 0. -1.
         13    1    3    3    0    0 -0.35347980234E+02 -0.61463368504E+02 -0.85908836749E+02  0.11138919879E+03  0.00000000000E+00 0. -1.
        -14    1    3    3    0    0  0.39703189870E+02 -0.36549620538E+02 -0.10233248293E+03  0.11568990928E+03  0.00000000000E+00 0.  1.
          5    1    4    4  501    0  0.39145580276E+01  0.73075274151E+02 -0.15537363838E+01  0.73315796072E+02  0.41800000000E+01 0. -1.
         -5    1    4    4    0  501  0.39694000448E+02  0.34735228263E+02  0.13010951089E+03  0.14045677975E+03  0.41800000000E+01 0. -1.
</event>
<event>
11    1  0.1002087E-008  0.1266361E+03  0.7561462E-02  0.1123473E+00
         22   -1    0    0    0    0  0.00000000000E+00  0.00000000000E+00  0.17433417957E+03  0.17433417957E+03  0.00000000000E+00 0. -1.
         22   -1    0    0    0    0 -0.00000000000E+00 -0.00000000000E+00 -0.28203469516E+03  0.28203469516E+03  0.00000000000E+00 0. -1.
         24    2    1    2    0    0  0.24686044638E+02 -0.10054598889E+01 -0.13226645845E+03  0.15653201801E+03  0.79984028932E+02 0.  0.
         25    2    1    2    0    0 -0.41486956830E+01  0.17303614100E+02 -0.92457509381E+02  0.15655328545E+03  0.12507563074E+03 0.  0.
        -24    2    1    2    0    0 -0.20537348955E+02 -0.16298154211E+02  0.11702345224E+03  0.14328357127E+03  0.78410974277E+02 0.  0.
        -11    1    3    3    0    0 -0.12525586498E+02  0.92499886982E+01  0.30077008974E+01  0.15858715986E+02  0.00000000000E+00 0.  1.
         12    1    3    3    0    0  0.37211631135E+02 -0.10255448587E+02 -0.13527415934E+03  0.14067330203E+03  0.00000000000E+00 0. -1.
         11    1    5    5    0    0 -0.90694013232E+00 -0.25096741355E+02  0.11905592402E+03  0.12167572482E+03  0.00000000000E+00 0. -1.
        -12    1    5    5    0    0 -0.19630408822E+02  0.87985871438E+01 -0.20324717793E+01  0.21607846440E+02  0.00000000000E+00 0.  1.
          5    1    4    4  501    0  0.46429325073E+02  0.42881055137E+02 -0.24374745169E+02  0.67868016904E+02  0.41800000000E+01 0. -1.
         -5    1    4    4    0  501 -0.50578020756E+02 -0.25577441037E+02 -0.68082764212E+02  0.88685268542E+02  0.41800000000E+01 0. -1.
</event>
<event>
11    1  0.1002087E-008  0.1324859E+03  0.7561462E-02  0.1116252E+00
         22   -1    0    0    0    0  0.00000000000E+00  0.00000000000E+00  0.15881176415E+03  0.15881176415E+03  0.00000000000E+00 0.  1.
         22   -1    0    0    0    0 -0.00000000000E+00 -0.00000000000E+00 -0.87615394701E+03  0.87615394701E+03  0.00000000000E+00 0. -1.
        -24    2    1    2    0    0  0.78892884064E+01  0.43755998005E+02 -0.78510806106E+03  0.79048916628E+03  0.80632662299E+02 0.  0.
         25    2    1    2    0    0  0.19841383861E+02 -0.27664237276E+02 -0.96631075192E+01  0.13001987721E+03  0.12511115972E+03 0.  0.
         24    2    1    2    0    0 -0.27730672268E+02 -0.16091760729E+02  0.77428985718E+02  0.11445666768E+03  0.77956051711E+02 0.  0.
        -11    1    5    5    0    0  0.97822766143E+01 -0.80652039406E+00  0.73057525719E+02  0.73713943559E+02  0.00000000000E+00 0.  1.
         12    1    5    5    0    0 -0.37512948882E+02 -0.15285240335E+02  0.43714599995E+01  0.40742724117E+02  0.00000000000E+00 0. -1.
         13    1    3    3    0    0  0.28720300947E+02  0.32098972645E+02 -0.18665196676E+03  0.19155718840E+03  0.00000000000E+00 0. -1.
        -14    1    3    3    0    0 -0.20831012541E+02  0.11657025360E+02 -0.59845609430E+03  0.59893197788E+03  0.00000000000E+00 0.  1.
          5    1    4    4  501    0  0.41373855031E+02 -0.70767561011E+01 -0.58824015147E+02  0.72385174691E+02  0.41800000000E+01 0.  1.
         -5    1    4    4    0  501 -0.21532471169E+02 -0.20587481175E+02  0.49160907628E+02  0.57634702520E+02  0.41800000000E+01 0.  1.
</event>
<event>
11    1  0.1002087E-008  0.3150582E+03  0.7561462E-02  0.9940123E-01
         22   -1    0    0    0    0  0.00000000000E+00  0.00000000000E+00  0.13452036306E+04  0.13452036306E+04  0.00000000000E+00 0. -1.
         22   -1    0    0    0    0 -0.00000000000E+00 -0.00000000000E+00 -0.50938644631E+03  0.50938644631E+03  0.00000000000E+00 0.  1.
        -24    2    1    2    0    0 -0.26365620327E+03  0.11470822968E+03 -0.36706548310E+03  0.47304545705E+03  0.79764428647E+02 0.  0.
         25    2    1    2    0    0  0.25901543476E+03 -0.15201973544E+03  0.21556983282E+03  0.39027810255E+03  0.12509056359E+03 0.  0.
         24    2    1    2    0    0  0.46407685034E+01  0.37311505763E+02  0.98731283460E+03  0.99126651733E+03  0.80056166751E+02 0.  0.
        -13    1    5    5    0    0 -0.65201767522E+01  0.75325791722E+01  0.12729929070E+02  0.16164886266E+02  0.00000000000E+00 0.  1.
         14    1    5    5    0    0  0.11160945256E+02  0.29778926591E+02  0.97458290553E+03  0.97510163107E+03  0.00000000000E+00 0. -1.
         13    1    3    3    0    0 -0.11845459798E+03  0.21444251029E+02 -0.10777497384E+03  0.16157596564E+03  0.00000000000E+00 0. -1.
        -14    1    3    3    0    0 -0.14520160529E+03  0.93263978648E+02 -0.25929050926E+03  0.31146949142E+03  0.00000000000E+00 0.  1.
          5    1    4    4  501    0  0.19695467137E+03 -0.49146285445E+02  0.11370338355E+03  0.23270675060E+03  0.41800000000E+01 0. -1.
         -5    1    4    4    0  501  0.62060763398E+02 -0.10287345000E+03  0.10186644927E+03  0.15757135194E+03  0.41800000000E+01 0. -1.
</event>
<event>
11    1  0.1002087E-008  0.1285957E+03  0.7561462E-02  0.1121007E+00
         22   -1    0    0    0    0  0.00000000000E+00  0.00000000000E+00  0.20067391256E+03  0.20067391256E+03  0.00000000000E+00 0. -1.
         22   -1    0    0    0    0 -0.00000000000E+00 -0.00000000000E+00 -0.13181861810E+04  0.13181861810E+04  0.00000000000E+00 0.  1.
        -24    2    1    2    0    0 -0.79862716585E+01 -0.20313595233E+02 -0.12422589508E+04  0.12450389499E+04  0.80238789439E+02 0.  0.
         25    2    1    2    0    0  0.16877561109E+02  0.44116114538E+02  0.15752024111E+02  0.13463392215E+03  0.12508830121E+03 0.  0.
         24    2    1    2    0    0 -0.88912894508E+01 -0.23802519305E+02  0.10899465821E+03  0.13918722152E+03  0.82750420921E+02 0.  0.
        -13    1    5    5    0    0 -0.25024792727E+02 -0.88826716692E+01 -0.14341399053E+01  0.26593210868E+02  0.00000000000E+00 0.  1.
         14    1    5    5    0    0  0.16133503276E+02 -0.14919847636E+02  0.11042879811E+03  0.11259401065E+03  0.00000000000E+00 0. -1.
         13    1    3    3    0    0  0.70662666915E+01 -0.45947700623E+02 -0.49202028460E+03  0.49421157795E+03  0.00000000000E+00 0. -1.
        -14    1    3    3    0    0 -0.15052538350E+02  0.25634105389E+02 -0.75023866620E+03  0.75082737199E+03  0.00000000000E+00 0.  1.
          5    1    4    4  501    0 -0.92042943269E+01 -0.36718149895E+02  0.29906604788E+02  0.48423330903E+02  0.41800000000E+01 0. -1.
         -5    1    4    4    0  501  0.26081855436E+02  0.80834264434E+02 -0.14154580677E+02  0.86210591250E+02  0.41800000000E+01 0. -1.
</event>
<event>
11    1  0.1002087E-008  0.1311689E+03  0.7561462E-02  0.1117841E+00
         22   -1    0    0    0    0  0.00000000000E+00  0.00000000000E+00  0.25336780677E+03  0.25336780677E+03  0.00000000000E+00 0.  1.
         22   -1    0    0    0    0 -0.00000000000E+00 -0.00000000000E+00 -0.10480025320E+04  0.10480025320E+04  0.00000000000E+00 0. -1.
        -24    2    1    2    0    0 -0.16064674437E+02  0.34431465144E+02 -0.95605585850E+03  0.96022489036E+03  0.80903868592E+02 0.  0.
         25    2    1    2    0    0  0.39041707669E+02 -0.60851884123E+02 -0.12879348143E+02  0.14505543037E+03  0.12509194032E+03 0.  0.
         24    2    1    2    0    0 -0.22977033231E+02  0.26420418979E+02  0.17430048145E+03  0.19609001800E+03  0.82732428536E+02 0.  0.
        -11    1    5    5    0    0 -0.38196835047E+02  0.49020881321E+02  0.12980765934E+03  0.14391689768E+03  0.00000000000E+00 0.  1.
         12    1    5    5    0    0  0.15219801815E+02 -0.22600462342E+02  0.44492822103E+02  0.52173120322E+02  0.00000000000E+00 0. -1.
         13    1    3    3    0    0  0.20308920821E+02  0.46227445640E+02 -0.60037937119E+03  0.60249881190E+03  0.00000000000E+00 0. -1.
        -14    1    3    3    0    0 -0.36373595259E+02 -0.11795980496E+02 -0.35567648731E+03  0.35772607846E+03  0.00000000000E+00 0.  1.
          5    1    4    4  501    0  0.63418881273E+02 -0.49865604111E+02  0.36577046677E+02  0.88678552755E+02  0.41800000000E+01 0. -1.
         -5    1    4    4    0  501 -0.24377173604E+02 -0.10986280012E+02 -0.49456394820E+02  0.56376877619E+02  0.41800000000E+01 0. -1.
</event>
<event>
11    1  0.1002087E-008  0.1510097E+03  0.7561462E-02  0.1095852E+00
         22   -1    0    0    0    0  0.00000000000E+00  0.00000000000E+00  0.94635823194E+03  0.94635823194E+03  0.00000000000E+00 0.  1.
         22   -1    0    0    0    0 -0.00000000000E+00 -0.00000000000E+00 -0.27646281318E+03  0.27646281318E+03  0.00000000000E+00 0.  1.
        -24    2    1    2    0    0 -0.75861160346E+02 -0.27688829022E+02 -0.15490380326E+03  0.19307723651E+03  0.82231648954E+02 0.  0.
         25    2    1    2    0    0  0.98467263939E+02  0.12160724862E+02 -0.36855124365E+02  0.16386042456E+03  0.12509297841E+03 0.  0.
         24    2    1    2    0    0 -0.22606103593E+02  0.15528104160E+02  0.86165434640E+03  0.86588338405E+03  0.80954704477E+02 0.  0.
        -13    1    5    5    0    0 -0.30346422167E+02  0.39406012457E+02  0.73983034292E+03  0.74150028689E+03  0.00000000000E+00 0.  1.
         14    1    5    5    0    0  0.77403185742E+01 -0.23877908298E+02  0.12182400348E+03  0.12438309716E+03  0.00000000000E+00 0. -1.
         13    1    3    3    0    0 -0.78822541399E+02 -0.48104025422E+01 -0.71455654656E+02  0.10649903092E+03  0.00000000000E+00 0. -1.
        -14    1    3    3    0    0  0.29613810534E+01 -0.22878426479E+02 -0.83448148608E+02  0.86578205583E+02  0.00000000000E+00 0.  1.
          5    1    4    4  501    0  0.33098093775E+02  0.64403472391E+02 -0.51223105903E+00  0.72532929406E+02  0.41800000000E+01 0. -1.
         -5    1    4    4    0  501  0.65369170164E+02 -0.52242747529E+02 -0.36342893306E+02  0.91327495154E+02  0.41800000000E+01 0. -1.
</event>
<event>
11    1  0.1002087E-008  0.1880894E+03  0.7561462E-02  0.1063281E+00
         22   -1    0    0    0    0  0.00000000000E+00  0.00000000000E+00  0.21644239194E+04  0.21644239194E+04  0.00000000000E+00 0.  1.
         22   -1    0    0    0    0 -0.00000000000E+00 -0.00000000000E+00 -0.71329214416E+03  0.71329214416E+03  0.00000000000E+00 0.  1.
         24    2    1    2    0    0  0.81064375495E+02 -0.12478966186E+03 -0.62331395433E+03  0.64588991674E+03  0.80682130587E+02 0.  0.
         25    2    1    2    0    0 -0.36764474357E+02  0.77862706328E+02 -0.28385191276E+01  0.15188604890E+03  0.12508831700E+03 0.  0.
        -24    2    1    2    0    0 -0.44299901138E+02  0.46926955528E+02  0.20772842487E+04  0.20799400980E+04  0.82923703397E+02 0.  0.
        -11    1    3    3    0    0  0.47616418469E+02 -0.91229442881E+02 -0.26205221464E+03  0.28153418577E+03  0.00000000000E+00 0.  1.
         12    1    3    3    0    0  0.33447957026E+02 -0.33560218975E+02 -0.36126173969E+03  0.36435573097E+03  0.00000000000E+00 0. -1.
         13    1    5    5    0    0  0.10722959948E+02 -0.16891099146E+02  0.51006686341E+03  0.51045910341E+03  0.00000000000E+00 0. -1.
        -14    1    5    5    0    0 -0.55022861087E+02  0.63818054673E+02  0.15672173853E+04  0.15694809945E+04  0.00000000000E+00 0.  1.
          5    1    4    4  501    0 -0.13601643384E+02 -0.23733107956E+02 -0.33247287570E+02  0.43256440523E+02  0.41800000000E+01 0. -1.
         -5    1    4    4    0  501 -0.23162830973E+02  0.10159581428E+03  0.30408768442E+02  0.10862960838E+03  0.41800000000E+01 0. -1.
</event>
<event>
11    1  0.1002087E-008  0.1791189E+03  0.7561462E-02  0.1070358E+00
         22   -1    0    0    0    0  0.00000000000E+00  0.00000000000E+00  0.19812517313E+04  0.19812517313E+04  0.00000000000E+00 0. -1.
         22   -1    0    0    0    0 -0.00000000000E+00 -0.00000000000E+00 -0.66839029848E+03  0.66839029848E+03  0.00000000000E+00 0.  1.
        -24    2    1    2    0    0 -0.47505164458E+02 -0.11891818329E+03 -0.62936832385E+03  0.64715001865E+03  0.79374962077E+02 0.  0.
         25    2    1    2    0    0  0.28158926476E+02  0.13179809879E+03  0.26163643762E+03  0.31979019523E+03  0.12509388269E+03 0.  0.
         24    2    1    2    0    0  0.19346237982E+02 -0.12879915501E+02  0.16805933191E+04  0.16827018160E+04  0.80940274975E+02 0.  0.
        -11    1    5    5    0    0  0.21260792056E+02 -0.20742678801E+02  0.21041061244E+03  0.21249683722E+03  0.00000000000E+00 0.  1.
         12    1    5    5    0    0 -0.19145540741E+01  0.78627632999E+01  0.14701827067E+04  0.14702049787E+04  0.00000000000E+00 0. -1.
         11    1    3    3    0    0  0.16364805018E+02 -0.62659585619E+02 -0.23970208693E+03  0.24829643773E+03  0.00000000000E+00 0. -1.
        -12    1    3    3    0    0 -0.63869969475E+02 -0.56258597666E+02 -0.38966623692E+03  0.39885358092E+03  0.00000000000E+00 0.  1.
          5    1    4    4  501    0  0.48241034602E+02  0.22023896219E+02  0.16064463343E+03  0.16922298920E+03  0.41800000000E+01 0. -1.
         -5    1    4    4    0  501 -0.20082108126E+02  0.10977420257E+03  0.10099180419E+03  0.15056720602E+03  0.41800000000E+01 0. -1.
</event>
<event>
11    1  0.1002087E-008  0.1335789E+03  0.7561462E-02  0.1114948E+00
         22   -1    0    0    0    0  0.00000000000E+00  0.00000000000E+00  0.97463116541E+03  0.97463116541E+03  0.00000000000E+00 0.  1.
         22   -1    0    0    0    0 -0.00000000000E+00 -0.00000000000E+00 -0.22548218190E+03  0.22548218190E+03  0.00000000000E+00 0.  1.
         24    2    1    2    0    0  0.38244983016E+02  0.25683044932E+02 -0.19094875062E+03  0.21226107355E+03  0.80442777540E+02 0.  0.
         25    2    1    2    0    0 -0.76588926336E+02 -0.32535119883E+01  0.23626831079E+03  0.27811188739E+03  0.12508820188E+03 0.  0.
        -24    2    1    2    0    0  0.38343943321E+02 -0.22429532943E+02  0.70382942334E+03  0.70974038637E+03  0.79888778602E+02 0.  0.
        -13    1    3    3    0    0  0.17737856271E+02  0.52923027833E+02 -0.14228317316E+03  0.15283971926E+03  0.00000000000E+00 0.  1.
         14    1    3    3    0    0  0.20507126745E+02 -0.27239982901E+02 -0.48665577465E+02  0.59421354291E+02  0.00000000000E+00 0. -1.
         13    1    5    5    0    0  0.34367672935E+02 -0.17426081567E+02  0.12341178416E+03  0.12928756217E+03  0.00000000000E+00 0. -1.
        -14    1    5    5    0    0  0.39762703856E+01 -0.50034513758E+01  0.58041763917E+03  0.58045282420E+03  0.00000000000E+00 0.  1.
          5    1    4    4  501    0 -0.55849889205E+02  0.38007912681E+02  0.44942241987E+02  0.81247086504E+02  0.41800000000E+01 0. -1.
         -5    1    4    4    0  501 -0.20739037131E+02 -0.41261424669E+02  0.19132606880E+03  0.19686480089E+03  0.41800000000E+01 0. -1.
</event>
<event>
11    1  0.1002087E-008  0.2152962E+03  0.7561462E-02  0.1044205E+00
         22   -1    0    0    0    0  0.00000000000E+00  0.00000000000E+00  0.77075480404E+03  0.77075480404E+03  0.00000000000E+00 0. -1.
         22   -1    0    0    0    0 -0.00000000000E+00 -0.00000000000E+00 -0.72226183226E+03  0.72226183226E+03  0.00000000000E+00 0. -1.
         24    2    1    2    0    0 -0.10447890241E+03  0.67245605034E+02 -0.57501057245E+03  0.59327706715E+03  0.76829079996E+02 0.  0.
         25    2    1    2    0    0  0.24488234966E+03 -0.14845680524E+03  0.73877689746E+02  0.32110944654E+03  0.12508627189E+03 0.  0.
        -24    2    1    2    0    0 -0.14040344725E+03  0.81211200209E+02  0.54962585449E+03  0.57863012262E+03  0.80099012748E+02 0.  0.
        -11    1    3    3    0    0 -0.71943613445E+02  0.47606431847E+02 -0.22113419796E+03  0.23736593980E+03  0.00000000000E+00 0.  1.
         12    1    3    3    0    0 -0.32535288963E+02  0.19639173186E+02 -0.35387637449E+03  0.35591112735E+03  0.00000000000E+00 0. -1.
         13    1    5    5    0    0 -0.14022285504E+03  0.92129399988E+02  0.53261075102E+03  0.55841247078E+03  0.00000000000E+00 0. -1.
        -14    1    5    5    0    0 -0.18059220482E+00 -0.10918199780E+02  0.17015103469E+02  0.20217651843E+02  0.00000000000E+00 0.  1.
          5    1    4    4  501    0  0.24345971324E+03 -0.16505352563E+03  0.75949338985E+02  0.30381091617E+03  0.41800000000E+01 0.  1.
         -5    1    4    4    0  501  0.14226364199E+01  0.16596720392E+02 -0.20716492396E+01  0.17298530363E+02  0.41800000000E+01 0.  1.
</event>
<event>
11    1  0.1002087E-008  0.2923480E+03  0.7561462E-02  0.1003483E+00
         22   -1    0    0    0    0  0.00000000000E+00  0.00000000000E+00  0.50775207750E+03  0.50775207750E+03  0.00000000000E+00 0. -1.
         22   -1    0    0    0    0 -0.00000000000E+00 -0.00000000000E+00 -0.13214798574E+04  0.13214798574E+04  0.00000000000E+00 0. -1.
        -24    2    1    2    0    0  0.41867717463E+02  0.10691895021E+03 -0.11456307314E+04  0.11541011742E+04  0.79342170160E+02 0.  0.
         25    2    1    2    0    0 -0.47634287408E+02 -0.32691844282E+03  0.20313996179E+03  0.40750182335E+03  0.12508876195E+03 0.  0.
         24    2    1    2    0    0  0.57665699448E+01  0.21999949261E+03  0.12876298977E+03  0.26762893726E+03  0.81316114332E+02 0.  0.
        -13    1    5    5    0    0 -0.11583613915E+02  0.12313874750E+01 -0.24988613576E+01  0.11913888304E+02  0.00000000000E+00 0.  1.
         14    1    5    5    0    0  0.17350183859E+02  0.21876810513E+03  0.13126185113E+03  0.25571504896E+03  0.00000000000E+00 0. -1.
         13    1    3    3    0    0  0.46837196514E+02  0.77285224733E+02 -0.10495073161E+04  0.10533908750E+04  0.00000000000E+00 0. -1.
        -14    1    3    3    0    0 -0.49694790506E+01  0.29633725476E+02 -0.96123415287E+02  0.10071029924E+03  0.00000000000E+00 0.  1.
          5    1    4    4  501    0 -0.50653549732E+01 -0.63758216882E+02 -0.11632049593E+02  0.65142497793E+02  0.41800000000E+01 0. -1.
         -5    1    4    4    0  501 -0.42568932435E+02 -0.26316022593E+03  0.21477201138E+03  0.34235932556E+03  0.41800000000E+01 0. -1.
</event>
<event>
11    1  0.1002087E-008  0.1548900E+03  0.7561462E-02  0.1091984E+00
         22   -1    0    0    0    0  0.00000000000E+00  0.00000000000E+00  0.14763636474E+04  0.14763636474E+04  0.00000000000E+00 0.  1.
         22   -1    0    0    0    0 -0.00000000000E+00 -0.00000000000E+00 -0.22737886604E+04  0.22737886604E+04  0.00000000000E+00 0. -1.
         24    2    1    2    0    0  0.35270917070E+02  0.84245835967E+02 -0.22564072126E+04  0.22596620432E+04  0.79734821289E+02 0.  0.
         25    2    1    2    0    0 -0.21075340659E+02 -0.10854248253E+03  0.48925063944E+03  0.51694426115E+03  0.12505814823E+03 0.  0.
        -24    2    1    2    0    0 -0.14195576411E+02  0.24296646562E+02  0.96973156011E+03  0.97354600346E+03  0.81367565741E+02 0.  0.
        -13    1    3    3    0    0  0.51858770212E+02  0.53958856711E+02 -0.10067622287E+04  0.10095400316E+04  0.00000000000E+00 0.  1.
         14    1    3    3    0    0 -0.16587853142E+02  0.30286979256E+02 -0.12496449839E+04  0.12501220116E+04  0.00000000000E+00 0. -1.
         13    1    5    5    0    0  0.26066174525E+02  0.30913790118E+02  0.32173144214E+03  0.32426259226E+03  0.00000000000E+00 0. -1.
        -14    1    5    5    0    0 -0.40261750937E+02 -0.66171435557E+01  0.64800011797E+03  0.64928341120E+03  0.00000000000E+00 0.  1.
          5    1    4    4  501    0  0.63254845727E+01 -0.10116720289E+03  0.47345060961E+03  0.48419806570E+03  0.41800000000E+01 0.  1.
         -5    1    4    4    0  501 -0.27400825231E+02 -0.73752796397E+01  0.15800029839E+02  0.32746195444E+02  0.41800000000E+01 0.  1.
</event>
<event>
11    1  0.1002087E-008  0.2908743E+03  0.7561462E-02  0.1004129E+00
         22   -1    0    0    0    0  0.00000000000E+00  0.00000000000E+00  0.36756082445E+03  0.36756082445E+03  0.00000000000E+00 0. -1.
         22   -1    0    0    0    0 -0.00000000000E+00 -0.00000000000E+00 -0.61445411206E+03  0.61445411206E+03  0.00000000000E+00 0.  1.
         24    2    1    2    0    0 -0.23157796608E+03  0.10704638248E+03 -0.40187603934E+03  0.48160028499E+03  0.73124558999E+02 0.  0.
         25    2    1    2    0    0  0.27231827212E+03 -0.10698288779E+03 -0.31024928486E+01  0.31821028608E+03  0.12508229730E+03 0.  0.
        -24    2    1    2    0    0 -0.40740306045E+02 -0.63494690927E-01  0.15808524458E+03  0.18220436545E+03  0.80917919317E+02 0.  0.
        -11    1    3    3    0    0 -0.22529423964E+03  0.87280597389E+02 -0.38641007799E+03  0.45572814865E+03  0.00000000000E+00 0.  1.
         12    1    3    3    0    0 -0.62837264350E+01  0.19765785094E+02 -0.15465961347E+02  0.25872136338E+02  0.00000000000E+00 0. -1.
         11    1    5    5    0    0 -0.58064153901E+02  0.43625196483E+01  0.15286241423E+03  0.16357687865E+03  0.00000000000E+00 0. -1.
        -12    1    5    5    0    0  0.17323847856E+02 -0.44260143392E+01  0.52228303502E+01  0.18627486796E+02  0.00000000000E+00 0.  1.
          5    1    4    4  501    0  0.24029778383E+02  0.25689045958E+02 -0.92089547691E+01  0.36601018829E+02  0.41800000000E+01 0. -1.
         -5    1    4    4    0  501  0.24828849374E+03 -0.13267193375E+03  0.61064619205E+01  0.28160926726E+03  0.41800000000E+01 0. -1.
</event>
<event>
11    1  0.1002087E-008  0.1362838E+03  0.7561462E-02  0.1111781E+00
         22   -1    0    0    0    0  0.00000000000E+00  0.00000000000E+00  0.69252646086E+03  0.69252646086E+03  0.00000000000E+00 0.  1.
         22   -1    0    0    0    0 -0.00000000000E+00 -0.00000000000E+00 -0.96763151180E+03  0.96763151180E+03  0.00000000000E+00 0. -1.
         24    2    1    2    0    0 -0.10348837583E+01  0.20185163029E+02 -0.80391088483E+03  0.80820412878E+03  0.80701246833E+02 0.  0.
         25    2    1    2    0    0  0.51836584993E+02 -0.12275679231E+01 -0.12905644024E+03  0.18705973754E+03  0.12508893705E+03 0.  0.
        -24    2    1    2    0    0 -0.50801701235E+02 -0.18957595106E+02  0.65786227413E+03  0.66489410635E+03  0.79757116756E+02 0.  0.
        -13    1    3    3    0    0  0.38538653426E+02  0.32566896375E+01 -0.30556898131E+03  0.30800687683E+03  0.00000000000E+00 0.  1.
         14    1    3    3    0    0 -0.39573537184E+02  0.16928473391E+02 -0.49834190352E+03  0.50019725195E+03  0.00000000000E+00 0. -1.
         11    1    5    5    0    0 -0.27786858512E+02 -0.45973815168E+02  0.26238289715E+03  0.26782547658E+03  0.00000000000E+00 0. -1.
        -12    1    5    5    0    0 -0.23014842723E+02  0.27016220063E+02  0.39547937698E+03  0.39706862977E+03  0.00000000000E+00 0.  1.
          5    1    4    4  501    0  0.19200928283E+02 -0.26768725623E+02 -0.14008914310E+03  0.14397111076E+03  0.41800000000E+01 0.  1.
         -5    1    4    4    0  501  0.32635656710E+02  0.25541157700E+02  0.11032702853E+02  0.43088626780E+02  0.41800000000E+01 0.  1.
</event>
<event>
11    1  0.1002087E-008  0.1426959E+03  0.7561462E-02  0.1104585E+00
         22   -1    0    0    0    0  0.00000000000E+00  0.00000000000E+00  0.14409240808E+03  0.14409240808E+03  0.00000000000E+00 0.  1.
         22   -1    0    0    0    0 -0.00000000000E+00 -0.00000000000E+00 -0.12902848878E+04  0.12902848878E+04  0.00000000000E+00 0.  1.
        -24    2    1    2    0    0  0.14252655549E+02 -0.23127349336E+02 -0.11590260259E+04  0.11620057297E+04  0.78600093980E+02 0.  0.
         25    2    1    2    0    0  0.59069099282E+00 -0.50124927558E+02 -0.52607398281E+02  0.14466579015E+03  0.12509114760E+03 0.  0.
         24    2    1    2    0    0 -0.14843346542E+02  0.73252276895E+02  0.65440944490E+02  0.12770577596E+03  0.80249778762E+02 0.  0.
        -13    1    5    5    0    0  0.39379976521E+01  0.60021537777E+01  0.56912413156E+02  0.57363371996E+02  0.00000000000E+00 0.  1.
         14    1    5    5    0    0 -0.18781344194E+02  0.67250123117E+02  0.85285313346E+01  0.70342403966E+02  0.00000000000E+00 0. -1.
         13    1    3    3    0    0 -0.37604408160E+01 -0.25215431629E+01 -0.25312210630E+01  0.51871162627E+01  0.00000000000E+00 0. -1.
        -14    1    3    3    0    0  0.18013096365E+02 -0.20605806173E+02 -0.11564948048E+04  0.11568186135E+04  0.00000000000E+00 0.  1.
          5    1    4    4  501    0  0.36580826123E+02 -0.33754595329E+02 -0.81450523272E+02  0.95546793180E+02  0.41800000000E+01 0.  1.
         -5    1    4    4    0  501 -0.35990135131E+02 -0.16370332229E+02  0.28843124991E+02  0.49118996969E+02  0.41800000000E+01 0.  1.
</event>
<event>
11    1  0.1002087E-008  0.1564351E+03  0.7561462E-02  0.1090479E+00
         22   -1    0    0    0    0  0.00000000000E+00  0.00000000000E+00  0.13705473799E+04  0.13705473799E+04  0.00000000000E+00 0. -1.
         22   -1    0    0    0    0 -0.00000000000E+00 -0.00000000000E+00 -0.96738469542E+03  0.96738469542E+03  0.00000000000E+00 0. -1.
         24    2    1    2    0    0 -0.99510647841E+01  0.15821541113E+02 -0.93829106443E+03  0.94197739696E+03  0.81129217525E+02 0.  0.
         25    2    1    2    0    0 -0.46814256827E+02 -0.89598741520E+02  0.24832560535E+03  0.29585793084E+03  0.12508716898E+03 0.  0.
        -24    2    1    2    0    0  0.56765321611E+02  0.73777200406E+02  0.10931281435E+04  0.11000967475E+04  0.81353172385E+02 0.  0.
        -11    1    3    3    0    0  0.26639991843E+02 -0.18322056503E+02 -0.43692091582E+03  0.43811559388E+03  0.00000000000E+00 0.  1.
         12    1    3    3    0    0 -0.36591056627E+02  0.34143597617E+02 -0.50137014861E+03  0.50386180307E+03  0.00000000000E+00 0. -1.
         11    1    5    5    0    0  0.13007819076E+02  0.78517598258E+02  0.69300193245E+03  0.69755709083E+03  0.00000000000E+00 0. -1.
        -12    1    5    5    0    0  0.43757502535E+02 -0.47403978515E+01  0.40012621109E+03  0.40253965668E+03  0.00000000000E+00 0.  1.
          5    1    4    4  501    0 -0.44484631693E+02 -0.12098661141E+03  0.19488885543E+03  0.23370019463E+03  0.41800000000E+01 0.  1.
         -5    1    4    4    0  501 -0.23296251333E+01  0.31387869887E+02  0.53436749915E+02  0.62157736210E+02  0.41800000000E+01 0.  1.
</event>
<event>
11    1  0.1002087E-008  0.1953768E+03  0.7561462E-02  0.1057842E+00
         22   -1    0    0    0    0  0.00000000000E+00  0.00000000000E+00  0.14030725253E+04  0.14030725253E+04  0.00000000000E+00 0. -1.
         22   -1    0    0    0    0 -0.00000000000E+00 -0.00000000000E+00 -0.92708886435E+03  0.92708886435E+03  0.00000000000E+00 0.  1.
        -24    2    1    2    0    0  0.13888285087E+03 -0.57019590124E+01 -0.67788690994E+03  0.69632497673E+03  0.77568369506E+02 0.  0.
         25    2    1    2    0    0 -0.25048718076E+03  0.45989270788E+02 -0.15077824889E+03  0.32131062270E+03  0.12509034801E+03 0.  0.
         24    2    1    2    0    0  0.11160432989E+03 -0.40287311775E+02  0.13046488198E+04  0.13125257902E+04  0.80850560274E+02 0.  0.
        -13    1    5    5    0    0  0.19104803010E+02 -0.15160948343E+02  0.69151326138E+03  0.69194323359E+03  0.00000000000E+00 0.  1.
         14    1    5    5    0    0  0.92499526881E+02 -0.25126363433E+02  0.61313555842E+03  0.62058255664E+03  0.00000000000E+00 0. -1.
         11    1    3    3    0    0  0.68110206712E+02 -0.40849088203E+02 -0.30629971944E+03  0.31642876985E+03  0.00000000000E+00 0. -1.
        -12    1    3    3    0    0  0.70772644160E+02  0.35147129191E+02 -0.37158719050E+03  0.37989620687E+03  0.00000000000E+00 0.  1.
          5    1    4    4  501    0 -0.20341101344E+03 -0.15266151256E+02 -0.90330387242E+02  0.22312809555E+03  0.41800000000E+01 0. -1.
         -5    1    4    4    0  501 -0.47076167321E+02  0.61255422043E+02 -0.60447861650E+02  0.98182527149E+02  0.41800000000E+01 0. -1.
</event>
<event>
11    1  0.1002087E-008  0.1362421E+03  0.7561462E-02  0.1111829E+00
         22   -1    0    0    0    0  0.00000000000E+00  0.00000000000E+00  0.58328892220E+03  0.58328892220E+03  0.00000000000E+00 0.  1.
         22   -1    0    0    0    0 -0.00000000000E+00 -0.00000000000E+00 -0.43195443946E+03  0.43195443946E+03  0.00000000000E+00 0.  1.
        -24    2    1    2    0    0 -0.39958501150E+02 -0.39955978408E+02 -0.39679277882E+03  0.40877979383E+03  0.80394331236E+02 0.  0.
         25    2    1    2    0    0 -0.12584924851E+02 -0.10332287266E+02  0.18465994418E+03  0.22363441829E+03  0.12509165266E+03 0.  0.
         24    2    1    2    0    0  0.52543426001E+02  0.50288265674E+02  0.36346731739E+03  0.38282914955E+03  0.95707604989E+02 0.  0.
        -11    1    5    5    0    0  0.32910106858E+02  0.69405373088E+02  0.33345800728E+03  0.34219062460E+03  0.00000000000E+00 0.  1.
         12    1    5    5    0    0  0.19633319143E+02 -0.19117107414E+02  0.30009310109E+02  0.40638524945E+02  0.00000000000E+00 0. -1.
         13    1    3    3    0    0 -0.15886697376E+02 -0.36029789516E+02 -0.64337598836E+02  0.75431157422E+02  0.00000000000E+00 0. -1.
        -14    1    3    3    0    0 -0.24071803774E+02 -0.39261888919E+01 -0.33245517999E+03  0.33334863641E+03  0.00000000000E+00 0.  1.
          5    1    4    4  501    0  0.32675786781E+02 -0.41116652290E+02  0.14932940614E+03  0.15835097119E+03  0.41800000000E+01 0.  1.
         -5    1    4    4    0  501 -0.45260711632E+02  0.30784365024E+02  0.35330538037E+02  0.65283447100E+02  0.41800000000E+01 0.  1.
</event>
<event>
11    1  0.1002087E-008  0.1280619E+03  0.7561462E-02  0.1121673E+00
         22   -1    0    0    0    0  0.00000000000E+00  0.00000000000E+00  0.91346295376E+03  0.91346295376E+03  0.00000000000E+00 0. -1.
         22   -1    0    0    0    0 -0.00000000000E+00 -0.00000000000E+00 -0.60722563822E+03  0.60722563822E+03  0.00000000000E+00 0.  1.
         24    2    1    2    0    0  0.84916079968E+01  0.26637960336E+02 -0.53622984031E+03  0.54300014389E+03  0.80777634878E+02 0.  0.
         25    2    1    2    0    0 -0.16380481538E+02 -0.12840908121E+02 -0.45185570075E+01  0.12689606941E+03  0.12509590712E+03 0.  0.
        -24    2    1    2    0    0  0.78888735415E+01 -0.13797052215E+02  0.84698571285E+03  0.85079237867E+03  0.78805335275E+02 0.  0.
        -11    1    3    3    0    0 -0.93184749039E+01  0.19629719834E+02 -0.51034775826E+03  0.51081013521E+03  0.00000000000E+00 0.  1.
         12    1    3    3    0    0  0.17810082901E+02  0.70082405024E+01 -0.25882082050E+02  0.32190008685E+02  0.00000000000E+00 0. -1.
         11    1    5    5    0    0  0.11696726262E+02 -0.40635614643E+02  0.70342688463E+03  0.70469670682E+03  0.00000000000E+00 0. -1.
        -12    1    5    5    0    0 -0.38078527202E+01  0.26838562428E+02  0.14355882822E+03  0.14609567186E+03  0.00000000000E+00 0.  1.
          5    1    4    4  501    0 -0.67700272030E+02 -0.24810689801E+02  0.77177567032E+01  0.72635620255E+02  0.41800000000E+01 0.  1.
         -5    1    4    4    0  501  0.51319790492E+02  0.11969781680E+02 -0.12236313711E+02  0.54260449158E+02  0.41800000000E+01 0.  1.
</event>
<event>
11    1  0.1002087E-008  0.6398971E+03  0.7561462E-02  0.9125886E-01
         22   -1    0    0    0    0  0.00000000000E+00  0.00000000000E+00  0.22505139819E+04  0.22505139819E+04  0.00000000000E+00 0. -1.
         22   -1    0    0    0    0 -0.00000000000E+00 -0.00000000000E+00 -0.14761033557E+04  0.14761033557E+04  0.00000000000E+00 0.  1.
        -24    2    1    2    0    0 -0.19086289673E+03  0.59798307441E+03 -0.13451538070E+04  0.14864509467E+04  0.78008011304E+02 0.  0.
         25    2    1    2    0    0  0.20770522261E+03 -0.58828358148E+03  0.17732014279E+04  0.18839081967E+04  0.12509099782E+03 0.  0.
         24    2    1    2    0    0 -0.16842325877E+02 -0.96994929364E+01  0.34636300528E+03  0.35625819422E+03  0.81085297162E+02 0.  0.
        -11    1    5    5    0    0  0.32352530845E+02 -0.90506023792E+01  0.12025093630E+03  0.12485546578E+03  0.00000000000E+00 0.  1.
         12    1    5    5    0    0 -0.49194856722E+02 -0.64889055724E+00  0.22611206898E+03  0.23140272843E+03  0.00000000000E+00 0. -1.
         13    1    3    3    0    0 -0.20690743117E+02  0.12056845519E+03 -0.20511053413E+03  0.23882041464E+03  0.00000000000E+00 0. -1.
        -14    1    3    3    0    0 -0.17017215361E+03  0.47741461922E+03 -0.11400432729E+04  0.12476305321E+04  0.00000000000E+00 0.  1.
          5    1    4    4  501    0  0.80420494445E+02 -0.85390512567E+02  0.31155632306E+03  0.33293214084E+03  0.41800000000E+01 0. -1.
         -5    1    4    4    0  501  0.12728472816E+03 -0.50289306891E+03  0.14616451049E+04  0.15509760558E+04  0.41800000000E+01 0. -1.
</event>
<event>
11    1  0.1002087E-008  0.2606509E+03  0.7561462E-02  0.1018373E+00
         22   -1    0    0    0    0  0.00000000000E+00  0.00000000000E+00  0.96336003802E+03  0.96336003802E+03  0.00000000000E+00 0.  1.
         22   -1    0    0    0    0 -0.00000000000E+00 -0.00000000000E+00 -0.37845620182E+03  0.37845620182E+03  0.00000000000E+00 0. -1.
         24    2    1    2    0    0  0.63216970433E+02  0.72242996132E+02 -0.23593642124E+03  0.26737583218E+03  0.81292096349E+02 0.  0.
         25    2    1    2    0    0  0.12257530608E+03  0.84492284224E+02 -0.19646929964E+02  0.19544188799E+03  0.12509147841E+03 0.  0.
        -24    2    1    2    0    0 -0.18579227651E+03 -0.15673528036E+03  0.84048718740E+03  0.87899851967E+03  0.84468735483E+02 0.  0.
        -11    1    3    3    0    0  0.12789385245E+02  0.57418519653E+02 -0.61125362810E+02  0.84833747723E+02  0.00000000000E+00 0.  1.
         12    1    3    3    0    0  0.50427585188E+02  0.14824476479E+02 -0.17481105843E+03  0.18254208446E+03  0.00000000000E+00 0. -1.
         11    1    5    5    0    0 -0.55003222620E+02 -0.71728209532E+02  0.44035785556E+03  0.44953902111E+03  0.00000000000E+00 0. -1.
        -12    1    5    5    0    0 -0.13078905389E+03 -0.85007070824E+02  0.40012933184E+03  0.42945949856E+03  0.00000000000E+00 0.  1.
          5    1    4    4  501    0  0.90881499695E+02  0.42836109895E+02 -0.70133279638E+02  0.12259905632E+03  0.41800000000E+01 0.  1.
         -5    1    4    4    0  501  0.31693806384E+02  0.41656174328E+02  0.50486349674E+02  0.72842831673E+02  0.41800000000E+01 0.  1.
</event>
<event>
11    1  0.1002087E-008  0.1289023E+03  0.7561462E-02  0.1120625E+00
         22   -1    0    0    0    0  0.00000000000E+00  0.00000000000E+00  0.53652607405E+03  0.53652607405E+03  0.00000000000E+00 0.  1.
         22   -1    0    0    0    0 -0.00000000000E+00 -0.00000000000E+00 -0.49997851592E+03  0.49997851592E+03  0.00000000000E+00 0. -1.
        -24    2    1    2    0    0 -0.27068499706E+02  0.19171038073E+00 -0.39390092396E+03  0.39911871593E+03  0.58352986876E+02 0.  0.
         25    2    1    2    0    0  0.42444369481E+02  0.26297316847E+02 -0.54227811204E+02  0.14519163168E+03  0.12508749349E+03 0.  0.
         24    2    1    2    0    0 -0.15375869776E+02 -0.26489027228E+02  0.48467629330E+03  0.49219424237E+03  0.80037347570E+02 0.  0.
        -11    1    5    5    0    0 -0.58477898812E+00 -0.39633608863E+02  0.45375786789E+03  0.45548585882E+03  0.00000000000E+00 0.  1.
         12    1    5    5    0    0 -0.14791090788E+02  0.13144581635E+02  0.30918425410E+02  0.36708383551E+02  0.00000000000E+00 0. -1.
         13    1    3    3    0    0 -0.39801237050E+02 -0.16457140315E+02 -0.28231285154E+03  0.28557927460E+03  0.00000000000E+00 0. -1.
        -14    1    3    3    0    0  0.12732737344E+02  0.16648850696E+02 -0.11158807243E+03  0.11353944133E+03  0.00000000000E+00 0.  1.
          5    1    4    4  501    0  0.39893222903E+02  0.55715816428E+02 -0.80251811550E+02  0.10561035504E+03  0.41800000000E+01 0.  1.
         -5    1    4    4    0  501  0.25511465785E+01 -0.29418499581E+02  0.26024000345E+02  0.39581276640E+02  0.41800000000E+01 0.  1.
</event>
<event>
11    1  0.1002087E-008  0.1805244E+03  0.7561462E-02  0.1069219E+00
         22   -1    0    0    0    0  0.00000000000E+00  0.00000000000E+00  0.37426222617E+03  0.37426222617E+03  0.00000000000E+00 0. -1.
         22   -1    0    0    0    0 -0.00000000000E+00 -0.00000000000E+00 -0.56666670994E+03  0.56666670994E+03  0.00000000000E+00 0. -1.
         24    2    1    2    0    0  0.52462393984E+02  0.43471994502E+02 -0.42580683801E+03  0.43872770137E+03  0.80798611173E+02 0.  0.
         25    2    1    2    0    0 -0.16973009950E+03 -0.72588044542E+02 -0.52292295392E+01  0.22305279699E+03  0.12509146460E+03 0.  0.
        -24    2    1    2    0    0  0.11726770552E+03  0.29116050041E+02  0.23863158377E+03  0.27914843775E+03  0.79870885777E+02 0.  0.
        -11    1    3    3    0    0 -0.18675558986E+02 -0.23265510865E+00 -0.13105934878E+03  0.13238347153E+03  0.00000000000E+00 0.  1.
         12    1    3    3    0    0  0.71137952970E+02  0.43704649610E+02 -0.29474748922E+03  0.30634422984E+03  0.00000000000E+00 0. -1.
         13    1    5    5    0    0  0.11215040343E+03  0.43390675574E+02  0.23433356177E+03  0.26338694328E+03  0.00000000000E+00 0. -1.
        -14    1    5    5    0    0  0.51173020900E+01 -0.14274625533E+02  0.42980220001E+01  0.15761494469E+02  0.00000000000E+00 0.  1.
          5    1    4    4  501    0 -0.18138673018E+03 -0.72522626814E+02  0.18520838271E+02  0.19626811034E+03  0.41800000000E+01 0. -1.
         -5    1    4    4    0  501  0.11656630677E+02 -0.65417727734E-01 -0.23750067810E+02  0.26784686655E+02  0.41800000000E+01 0. -1.
</event>
<event>
11    1  0.1002087E-008  0.1347175E+03  0.7561462E-02  0.1113605E+00
         22   -1    0    0    0    0  0.00000000000E+00  0.00000000000E+00  0.19218997191E+03  0.19218997191E+03  0.00000000000E+00 0.  1.
         22   -1    0    0    0    0 -0.00000000000E+00 -0.00000000000E+00 -0.85069123319E+03  0.85069123319E+03  0.00000000000E+00 0.  1.
        -24    2    1    2    0    0  0.35231904211E+02 -0.46731883581E+02 -0.53482541482E+03  0.54359210467E+03  0.77646609073E+02 0.  0.
         25    2    1    2    0    0 -0.26048795225E+01  0.26884294950E+02 -0.28633671553E+03  0.31363285240E+03  0.12508917114E+03 0.  0.
         24    2    1    2    0    0 -0.32627024689E+02  0.19847588630E+02  0.16266086907E+03  0.18565624803E+03  0.80939697264E+02 0.  0.
        -13    1    5    5    0    0 -0.46685455630E+02  0.28801720485E+02  0.15952908127E+03  0.16869676536E+03  0.00000000000E+00 0.  1.
         14    1    5    5    0    0  0.14058430941E+02 -0.89541318542E+01  0.31317877928E+01  0.16959482674E+02  0.00000000000E+00 0. -1.
         11    1    3    3    0    0  0.36723138015E+02  0.11874468900E+02 -0.20816906687E+03  0.21171667926E+03  0.00000000000E+00 0. -1.
        -12    1    3    3    0    0 -0.14912338036E+01 -0.58606352481E+02 -0.32665634796E+03  0.33187542541E+03  0.00000000000E+00 0.  1.
          5    1    4    4  501    0 -0.31597025769E+02  0.69157854224E+02 -0.15868926483E+03  0.17601402220E+03  0.41800000000E+01 0.  1.
         -5    1    4    4    0  501  0.28992146246E+02 -0.42273559274E+02 -0.12764745069E+03  0.13761883020E+03  0.41800000000E+01 0.  1.
</event>
<event>
11    1  0.1002087E-008  0.1262140E+03  0.7561462E-02  0.1124010E+00
         22   -1    0    0    0    0  0.00000000000E+00  0.00000000000E+00  0.12090013306E+03  0.12090013306E+03  0.00000000000E+00 0. -1.
         22   -1    0    0    0    0 -0.00000000000E+00 -0.00000000000E+00 -0.10525343672E+04  0.10525343672E+04  0.00000000000E+00 0.  1.
         24    2    1    2    0    0 -0.22525030428E+01 -0.16448580939E+02 -0.87954927246E+03  0.88354485467E+03  0.82273677103E+02 0.  0.
         25    2    1    2    0    0  0.29514553634E+02  0.13654435341E+02 -0.12440900199E+03  0.17939890356E+03  0.12509522110E+03 0.  0.
        -24    2    1    2    0    0 -0.27262050591E+02  0.27941455975E+01  0.72324040305E+02  0.11049074204E+03  0.78907608108E+02 0.  0.
        -13    1    3    3    0    0 -0.15043702552E+02  0.22925969023E+02 -0.62906191435E+03  0.62965927701E+03  0.00000000000E+00 0.  1.
         14    1    3    3    0    0  0.12791199510E+02 -0.39374549962E+02 -0.25048735811E+03  0.25388557766E+03  0.00000000000E+00 0. -1.
         11    1    5    5    0    0  0.22567374661E+02 -0.13344595655E+02  0.43273713377E+02  0.50596234067E+02  0.00000000000E+00 0. -1.
        -12    1    5    5    0    0 -0.49829425252E+02  0.16138741253E+02  0.29050326928E+02  0.59894507968E+02  0.00000000000E+00 0.  1.
          5    1    4    4  501    0 -0.14052091356E+02 -0.20568615821E+01  0.21587317912E+02  0.26175879081E+02  0.41800000000E+01 0.  1.
         -5    1    4    4    0  501  0.43566644990E+02  0.15711296924E+02 -0.14599631990E+03  0.15322302448E+03  0.41800000000E+01 0.  1.
</event>
<event>
11    1  0.1002087E-008  0.1257869E+03  0.7561462E-02  0.1124557E+00
         22   -1    0    0    0    0  0.00000000000E+00  0.00000000000E+00  0.77265435065E+03  0.77265435065E+03  0.00000000000E+00 0. -1.
         22   -1    0    0    0    0 -0.00000000000E+00 -0.00000000000E+00 -0.17464103209E+03  0.17464103209E+03  0.00000000000E+00 0.  1.
         24    2    1    2    0    0  0.77899692053E+01  0.16349294365E+01 -0.10430796480E+03  0.12833063165E+03  0.74331977525E+02 0.  0.
         25    2    1    2    0    0 -0.10877808752E+00 -0.12577862189E+02  0.14907539445E+02  0.12659977360E+03  0.12508818287E+03 0.  0.
        -24    2    1    2    0    0 -0.76811911178E+01  0.10942932752E+02  0.68741374392E+03  0.69236497749E+03  0.81565055321E+02 0.  0.
        -11    1    3    3    0    0 -0.25889907147E+02 -0.16309724625E+02 -0.22251443000E+02  0.37834126460E+02  0.00000000000E+00 0.  1.
         12    1    3    3    0    0  0.33679876352E+02  0.17944654061E+02 -0.82056521804E+02  0.90496505187E+02  0.00000000000E+00 0. -1.
         11    1    5    5    0    0  0.59507539098E+01 -0.12735375838E+02  0.61188319656E+03  0.61204464502E+03  0.00000000000E+00 0. -1.
        -12    1    5    5    0    0 -0.13631945028E+02  0.23678308590E+02  0.75530547367E+02  0.80320332473E+02  0.00000000000E+00 0.  1.
          5    1    4    4  501    0  0.62176359636E+02 -0.25749559416E+01  0.45528997077E+01  0.62535840855E+02  0.41800000000E+01 0.  1.
         -5    1    4    4    0  501 -0.62285137724E+02 -0.10002906247E+02  0.10354639738E+02  0.64063932745E+02  0.41800000000E+01 0.  1.
</event>
<event>
11    1  0.1002087E-008  0.1430984E+03  0.7561462E-02  0.1104147E+00
         22   -1    0    0    0    0  0.00000000000E+00  0.00000000000E+00  0.66868676607E+03  0.66868676607E+03  0.00000000000E+00 0. -1.
         22   -1    0    0    0    0 -0.00000000000E+00 -0.00000000000E+00 -0.21834049484E+03  0.21834049484E+03  0.00000000000E+00 0.  1.
         24    2    1    2    0    0  0.76120231782E+01 -0.79213513949E+02 -0.12311074803E+03  0.16690921925E+03  0.79810447322E+02 0.  0.
         25    2    1    2    0    0  0.54659873894E+02  0.10467979936E+03  0.42876719877E+02  0.17729350958E+03  0.12509601602E+03 0.  0.
        -24    2    1    2    0    0 -0.62271897072E+02 -0.25466285407E+02  0.53058029937E+03  0.54282453208E+03  0.92826169208E+02 0.  0.
        -13    1    3    3    0    0 -0.18993442943E+02 -0.75190840896E+02 -0.11518268875E+03  0.13885771573E+03  0.00000000000E+00 0.  1.
         14    1    3    3    0    0  0.26605466121E+02 -0.40226730528E+01 -0.79280592790E+01  0.28051503524E+02  0.00000000000E+00 0. -1.
         13    1    5    5    0    0 -0.25936470618E+01 -0.10806609317E+02  0.38033788287E+03  0.38050021676E+03  0.00000000000E+00 0. -1.
        -14    1    5    5    0    0 -0.59678250010E+02 -0.14659676090E+02  0.15024241650E+03  0.16232431532E+03  0.00000000000E+00 0.  1.
          5    1    4    4  501    0  0.21220791796E+01 -0.14431611189E+02  0.44517585900E+02  0.47032568247E+02  0.41800000000E+01 0. -1.
         -5    1    4    4    0  501  0.52537794714E+02  0.11911141055E+03 -0.16408660233E+01  0.13026094133E+03  0.41800000000E+01 0. -1.
</event>
<event>
11    1  0.1002087E-008  0.1378666E+03  0.7561462E-02  0.1109964E+00
         22   -1    0    0    0    0  0.00000000000E+00  0.00000000000E+00  0.26640884016E+03  0.26640884016E+03  0.00000000000E+00 0.  1.
         22   -1    0    0    0    0 -0.00000000000E+00 -0.00000000000E+00 -0.63082147573E+03  0.63082147573E+03  0.00000000000E+00 0. -1.
        -24    2    1    2    0    0  0.19603090857E+02 -0.54208017082E+02 -0.56768654491E+03  0.57622616193E+03  0.80285653292E+02 0.  0.
         25    2    1    2    0    0 -0.74606361024E+00  0.71432760937E+02  0.62976496902E+02  0.15719609769E+03  0.12506549492E+03 0.  0.
         24    2    1    2    0    0 -0.18857027247E+02 -0.17224743855E+02  0.14029741244E+03  0.16380805628E+03  0.80606675199E+02 0.  0.
        -13    1    5    5    0    0  0.18353791802E+02  0.20892440811E+02  0.72065569852E+02  0.77245078256E+02  0.00000000000E+00 0.  1.
         14    1    5    5    0    0 -0.37210819049E+02 -0.38117184665E+02  0.68231842587E+02  0.86562978021E+02  0.00000000000E+00 0. -1.
         13    1    3    3    0    0  0.43001383114E+02 -0.60833932720E+02 -0.42290499624E+03  0.42941649033E+03  0.00000000000E+00 0. -1.
        -14    1    3    3    0    0 -0.23398292257E+02  0.66259156379E+01 -0.14478154867E+03  0.14680967160E+03  0.00000000000E+00 0.  1.
          5    1    4    4  501    0  0.39834432250E+02  0.37103879469E+01  0.66874125753E+02  0.78039541686E+02  0.41800000000E+01 0. -1.
         -5    1    4    4    0  501 -0.40580495860E+02  0.67722372990E+02 -0.38976288508E+01  0.79156556003E+02  0.41800000000E+01 0. -1.
</event>
<event>
11    1  0.1002087E-008  0.1369191E+03  0.7561462E-02  0.1111048E+00
         22   -1    0    0    0    0  0.00000000000E+00  0.00000000000E+00  0.23359015950E+03  0.23359015950E+03  0.00000000000E+00 0.  1.
         22   -1    0    0    0    0 -0.00000000000E+00 -0.00000000000E+00 -0.98099599831E+03  0.98099599831E+03  0.00000000000E+00 0. -1.
        -24    2    1    2    0    0 -0.45678850357E+02 -0.45613236138E+01 -0.71592445304E+03  0.72197729788E+03  0.81215966122E+02 0.  0.
         25    2    1    2    0    0  0.99359268736E+02  0.33901745342E+01 -0.22510619723E+03  0.27604754085E+03  0.12508272147E+03 0.  0.
         24    2    1    2    0    0 -0.53680418380E+02  0.11711490796E+01  0.19362481145E+03  0.21656131909E+03  0.80779195390E+02 0.  0.
        -11    1    5    5    0    0 -0.27532049251E+02  0.35888365436E+02  0.14224785535E+03  0.14926634203E+03  0.00000000000E+00 0.  1.
         12    1    5    5    0    0 -0.26148369129E+02 -0.34717216356E+02  0.51376956097E+02  0.67294977059E+02  0.00000000000E+00 0. -1.
         11    1    3    3    0    0 -0.64310521413E+02 -0.10107881899E+02 -0.64984677476E+03  0.65309941289E+03  0.00000000000E+00 0. -1.
        -12    1    3    3    0    0  0.18631671056E+02  0.55465582852E+01 -0.66077678275E+02  0.68877884995E+02  0.00000000000E+00 0.  1.
          5    1    4    4  501    0  0.52775824430E+02  0.38489078020E+02 -0.29329454027E+02  0.71724375526E+02  0.41800000000E+01 0. -1.
         -5    1    4    4    0  501  0.46583444306E+02 -0.35098903486E+02 -0.19577674320E+03  0.20432316532E+03  0.41800000000E+01 0. -1.
</event>
<event>
11    1  0.1002087E-008  0.3001275E+03  0.7561462E-02  0.1000137E+00
         22   -1    0    0    0    0  0.00000000000E+00  0.00000000000E+00  0.34461468866E+04  0.34461468866E+04  0.00000000000E+00 0.  1.
         22   -1    0    0    0    0 -0.00000000000E+00 -0.00000000000E+00 -0.16064662823E+04  0.16064662823E+04  0.00000000000E+00 0. -1.
        -24    2    1    2    0    0 -0.65414136204E+02 -0.50601809835E+02 -0.13079126988E+04  0.13129458253E+04  0.79696677129E+02 0.  0.
         25    2    1    2    0    0 -0.19604122152E+03  0.13181693916E+03 -0.22842197264E+03  0.35161309186E+03  0.12508917939E+03 0.  0.
         24    2    1    2    0    0  0.26145535772E+03 -0.81215129325E+02  0.33760152757E+04  0.33880542518E+04  0.80483971204E+02 0.  0.
        -13    1    5    5    0    0  0.25828950220E+03 -0.73358176506E+02  0.33488980026E+04  0.33596447313E+04  0.00000000000E+00 0.  1.
         14    1    5    5    0    0  0.31658555214E+01 -0.78569528188E+01  0.27117273175E+02  0.28409520468E+02  0.00000000000E+00 0. -1.
         13    1    3    3    0    0  0.12376075661E+01 -0.19620449100E+02 -0.74444623495E+03  0.74470577441E+03  0.00000000000E+00 0. -1.
        -14    1    3    3    0    0 -0.66651743770E+02 -0.30981360735E+02 -0.56346646381E+03  0.56824005094E+03  0.00000000000E+00 0.  1.
          5    1    4    4  501    0 -0.73340499990E+00  0.46072225038E+02 -0.77589093601E+02  0.90336745838E+02  0.41800000000E+01 0. -1.
         -5    1    4    4    0  501 -0.19530781652E+03  0.85744714122E+02 -0.15083287904E+03  0.26127634602E+03  0.41800000000E+01 0. -1.
</event>
<event>
11    1  0.1002087E-008  0.1581328E+03  0.7561462E-02  0.1088847E+00
         22   -1    0    0    0    0  0.00000000000E+00  0.00000000000E+00  0.14631414922E+04  0.14631414922E+04  0.00000000000E+00 0.  1.
         22   -1    0    0    0    0 -0.00000000000E+00 -0.00000000000E+00 -0.36099717909E+03  0.36099717909E+03  0.00000000000E+00 0.  1.
         24    2    1    2    0    0 -0.22577778410E+02  0.56790939545E+02 -0.32143812643E+03  0.33728843036E+03  0.81890471011E+02 0.  0.
         25    2    1    2    0    0  0.11509988583E+03 -0.70383932783E+02  0.26896528637E+03  0.32587104301E+03  0.12509088572E+03 0.  0.
        -24    2    1    2    0    0 -0.92522107424E+02  0.13592993238E+02  0.11546171531E+04  0.11609791979E+04  0.77374529137E+02 0.  0.
        -11    1    3    3    0    0 -0.11571729865E+02  0.62679539039E+02 -0.12369101854E+03  0.13914775461E+03  0.00000000000E+00 0.  1.
         12    1    3    3    0    0 -0.11006048545E+02 -0.58885994939E+01 -0.19774710789E+03  0.19814067575E+03  0.00000000000E+00 0. -1.
         13    1    5    5    0    0 -0.81242645911E+01 -0.33704553966E+01  0.56905524675E+03  0.56912321821E+03  0.00000000000E+00 0. -1.
        -14    1    5    5    0    0 -0.84397842833E+02  0.16963448634E+02  0.58556190639E+03  0.59185597968E+03  0.00000000000E+00 0.  1.
          5    1    4    4  501    0 -0.14593225126E+02 -0.42180853764E+01  0.10655428961E+03  0.10771278243E+03  0.41800000000E+01 0. -1.
         -5    1    4    4    0  501  0.12969311096E+03 -0.66165847406E+02  0.16241099676E+03  0.21815826059E+03  0.41800000000E+01 0. -1.
</event>
<event>
11    1  0.1002087E-008  0.1357860E+03  0.7561462E-02  0.1112357E+00
         22   -1    0    0    0    0  0.00000000000E+00  0.00000000000E+00  0.11754626714E+04  0.11754626714E+04  0.00000000000E+00 0.  1.
         22   -1    0    0    0    0 -0.00000000000E+00 -0.00000000000E+00 -0.13048688860E+03  0.13048688860E+03  0.00000000000E+00 0.  1.
        -24    2    1    2    0    0 -0.37902160951E+02  0.37099385254E+02 -0.72176686551E+02  0.11939814115E+03  0.78952541679E+02 0.  0.
         25    2    1    2    0    0  0.54323719530E+01 -0.78078504604E+02  0.13566100651E+03  0.20045734462E+03  0.12511384727E+03 0.  0.
         24    2    1    2    0    0  0.32469788998E+02  0.40979119350E+02  0.98149146279E+03  0.98609407418E+03  0.79513874126E+02 0.  0.
        -13    1    5    5    0    0 -0.45179041317E+01 -0.37100005591E+01  0.61598639502E+03  0.61601413491E+03  0.00000000000E+00 0.  1.
         14    1    5    5    0    0  0.36987693129E+02  0.44689119909E+02  0.36550506777E+03  0.37007993927E+03  0.00000000000E+00 0. -1.
         11    1    3    3    0    0  0.10557591771E+02  0.22713234946E+01  0.12044741407E+02  0.16177065555E+02  0.00000000000E+00 0. -1.
        -12    1    3    3    0    0 -0.48459752721E+02  0.34828061760E+02 -0.84221427958E+02  0.10322107560E+03  0.00000000000E+00 0.  1.
          5    1    4    4  501    0  0.20194136910E+02 -0.10161586481E+03  0.60109538428E+02  0.11985080791E+03  0.41800000000E+01 0. -1.
         -5    1    4    4    0  501 -0.14761764957E+02  0.23537360210E+02  0.75551468086E+02  0.80606536710E+02  0.41800000000E+01 0. -1.
</event>
<event>
11    1  0.1002087E-008  0.1501086E+03  0.7561462E-02  0.1096768E+00
         22   -1    0    0    0    0  0.00000000000E+00  0.00000000000E+00  0.11644178519E+04  0.11644178519E+04  0.00000000000E+00 0. -1.
         22   -1    0    0    0    0 -0.00000000000E+00 -0.00000000000E+00 -0.77938001709E+03  0.77938001709E+03  0.00000000000E+00 0. -1.
         24    2    1    2    0    0 -0.63046912073E+02  0.46113708140E+02 -0.63045002115E+03  0.64044298073E+03  0.81231737599E+02 0.  0.
         25    2    1    2    0    0  0.11221420333E+03 -0.10170700433E+03 -0.73018430513E+02  0.20952559161E+03  0.12503175671E+03 0.  0.
        -24    2    1    2    0    0 -0.49167291255E+02  0.55593296188E+02  0.10885062865E+04  0.10938292967E+04  0.78157260915E+02 0.  0.
        -13    1    3    3    0    0  0.19764650406E+02  0.12048255777E+02 -0.12783529831E+03  0.12991406917E+03  0.00000000000E+00 0.  1.
         14    1    3    3    0    0 -0.82811562479E+02  0.34065452364E+02 -0.50261472284E+03  0.51052891156E+03  0.00000000000E+00 0. -1.
         13    1    5    5    0    0 -0.39144518406E+02  0.52682305358E+02  0.10737555739E+04  0.10757596159E+04  0.00000000000E+00 0. -1.
        -14    1    5    5    0    0 -0.10022772849E+02  0.29109908298E+01  0.14750712586E+02  0.18069680822E+02  0.00000000000E+00 0.  1.
          5    1    4    4  501    0  0.38029318253E+02  0.27467055786E+02 -0.22316997749E+02  0.52117070033E+02  0.41800000000E+01 0. -1.
         -5    1    4    4    0  501  0.74184885075E+02 -0.12917406011E+03 -0.50701432764E+02  0.15740852157E+03  0.41800000000E+01 0. -1.
</event>
<event>
11    1  0.1002087E-008  0.1403781E+03  0.7561462E-02  0.1107137E+00
         22   -1    0    0    0    0  0.00000000000E+00  0.00000000000E+00  0.44062933536E+03  0.44062933536E+03  0.00000000000E+00 0.  1.
         22   -1    0    0    0    0 -0.00000000000E+00 -0.00000000000E+00 -0.74975912805E+03  0.74975912805E+03  0.00000000000E+00 0.  1.
         24    2    1    2    0    0 -0.15002436318E+01 -0.50175125424E+02 -0.53168897191E+03  0.53992307979E+03  0.79397577418E+02 0.  0.
         25    2    1    2    0    0  0.57841021283E+02  0.19020876214E+02 -0.18417164063E+03  0.23081317579E+03  0.12509257145E+03 0.  0.
        -24    2    1    2    0    0 -0.56340777651E+02  0.31154249210E+02  0.40673081985E+03  0.41965220782E+03  0.80827874159E+02 0.  0.
        -11    1    3    3    0    0  0.33620697581E+02 -0.46242823712E+02 -0.28119102588E+03  0.28694449479E+03  0.00000000000E+00 0.  1.
         12    1    3    3    0    0 -0.35120941212E+02 -0.39323017122E+01 -0.25049794602E+03  0.25297858500E+03  0.00000000000E+00 0. -1.
         13    1    5    5    0    0 -0.98491302727E+01  0.34302012898E+02  0.60055002335E+02  0.69858691381E+02  0.00000000000E+00 0. -1.
        -14    1    5    5    0    0 -0.46491647379E+02 -0.31477636880E+01  0.34667581752E+03  0.34979351644E+03  0.00000000000E+00 0.  1.
          5    1    4    4  501    0 -0.32593196899E+02 -0.18650525578E+02 -0.75600990985E+02  0.84517103750E+02  0.41800000000E+01 0.  1.
         -5    1    4    4    0  501  0.90434218182E+02  0.37671401792E+02 -0.10857064965E+03  0.14629607204E+03  0.41800000000E+01 0.  1.
</event>
<event>
11    1  0.1002087E-008  0.1489116E+03  0.7561462E-02  0.1097996E+00
         22   -1    0    0    0    0  0.00000000000E+00  0.00000000000E+00  0.56870700527E+03  0.56870700527E+03  0.00000000000E+00 0. -1.
         22   -1    0    0    0    0 -0.00000000000E+00 -0.00000000000E+00 -0.26132346364E+04  0.26132346364E+04  0.00000000000E+00 0. -1.
        -24    2    1    2    0    0  0.58225565141E+02  0.53010506543E+02 -0.21245953699E+04  0.21276945920E+04  0.83537182088E+02 0.  0.
         25    2    1    2    0    0 -0.11636883805E+03 -0.18721119388E+02 -0.46687242505E+03  0.49750359600E+03  0.12509108673E+03 0.  0.
         24    2    1    2    0    0  0.58143272908E+02 -0.34289387155E+02  0.54694016387E+03  0.55674345363E+03  0.79141190554E+02 0.  0.
        -13    1    5    5    0    0 -0.69516935532E+01  0.16086985655E+02  0.17112206538E+03  0.17201708755E+03  0.00000000000E+00 0.  1.
         14    1    5    5    0    0  0.65094966462E+02 -0.50376372810E+02  0.37581809850E+03  0.38472636608E+03  0.00000000000E+00 0. -1.
         13    1    3    3    0    0  0.36871961082E+01  0.47860102662E+02 -0.14791466485E+04  0.14799253335E+04  0.00000000000E+00 0. -1.
        -14    1    3    3    0    0  0.54538369032E+02  0.51504038802E+01 -0.64544872141E+03  0.64776925855E+03  0.00000000000E+00 0.  1.
          5    1    4    4  501    0 -0.13074402482E+03 -0.47685379205E+02 -0.38223049232E+03  0.40679911145E+03  0.41800000000E+01 0.  1.
         -5    1    4    4    0  501  0.14375186770E+02  0.28964259817E+02 -0.84641932730E+02  0.90704484551E+02  0.41800000000E+01 0.  1.
</event>
<event>
11    1  0.1002087E-008  0.2142365E+03  0.7561462E-02  0.1044889E+00
         22   -1    0    0    0    0  0.00000000000E+00  0.00000000000E+00  0.16707836064E+04  0.16707836064E+04  0.00000000000E+00 0. -1.
         22   -1    0    0    0    0 -0.00000000000E+00 -0.00000000000E+00 -0.18401355917E+03  0.18401355917E+03  0.00000000000E+00 0. -1.
         24    2    1    2    0    0 -0.14792341240E+03 -0.10441419049E+03 -0.10749128417E+03  0.22525639372E+03  0.80015046276E+02 0.  0.
         25    2    1    2    0    0  0.78113918872E+02  0.87533259123E+02  0.47493132165E+03  0.50494743805E+03  0.12509316182E+03 0.  0.
        -24    2    1    2    0    0  0.69809493524E+02  0.16880931368E+02  0.11193300097E+04  0.11245933338E+04  0.81560802167E+02 0.  0.
        -11    1    3    3    0    0 -0.88342034491E+01  0.10597648208E+02  0.23241564646E+01  0.13991247313E+02  0.00000000000E+00 0.  1.
         12    1    3    3    0    0 -0.13908920895E+03 -0.11501183870E+03 -0.10981544063E+03  0.21126514641E+03  0.00000000000E+00 0. -1.
         11    1    5    5    0    0  0.11914329879E+02 -0.31206293830E+02  0.35172982819E+03  0.35331240577E+03  0.00000000000E+00 0. -1.
        -12    1    5    5    0    0  0.57895163645E+02  0.48087225199E+02  0.76760018156E+03  0.77128092802E+03  0.00000000000E+00 0.  1.
          5    1    4    4  501    0  0.61091625317E+02  0.52802193486E+02  0.10280072326E+03  0.13078883524E+03  0.41800000000E+01 0. -1.
         -5    1    4    4    0  501  0.17022293555E+02  0.34731065637E+02  0.37213059839E+03  0.37415860281E+03  0.41800000000E+01 0. -1.
</event>
<event>
11    1  0.1002087E-008  0.1474861E+03  0.7561462E-02  0.1099475E+00
         22   -1    0    0    0    0  0.00000000000E+00  0.00000000000E+00  0.42432768306E+03  0.42432768306E+03  0.00000000000E+00 0.  1.
         22   -1    0    0    0    0 -0.00000000000E+00 -0.00000000000E+00 -0.72775097833E+03  0.72775097833E+03  0.00000000000E+00 0. -1.
        -24    2    1    2    0    0 -0.92262166937E+01  0.76184175876E+02 -0.64800613487E+03  0.65784854222E+03  0.83448199177E+02 0.  0.
         25    2    1    2    0    0  0.76825445839E+01 -0.10534559055E+03  0.27379215358E+02  0.16599252558E+03  0.12508869723E+03 0.  0.
         24    2    1    2    0    0  0.15436721098E+01  0.29161414678E+02  0.31720362425E+03  0.32823759359E+03  0.79177064732E+02 0.  0.
        -13    1    5    5    0    0  0.35752020308E+02  0.25969562473E+02  0.23540721553E+03  0.23951864699E+03  0.00000000000E+00 0.  1.
         14    1    5    5    0    0 -0.34208348198E+02  0.31918522050E+01  0.81796408716E+02  0.88718946600E+02  0.00000000000E+00 0. -1.
         13    1    3    3    0    0  0.16669127244E+02  0.84497054895E+02 -0.50047952916E+03  0.50783596879E+03  0.00000000000E+00 0. -1.
        -14    1    3    3    0    0 -0.25895343938E+02 -0.83128790189E+01 -0.14752660571E+03  0.15001257343E+03  0.00000000000E+00 0.  1.
          5    1    4    4  501    0 -0.56778336763E+02 -0.49089562001E+02 -0.26570081494E+01  0.75220321160E+02  0.41800000000E+01 0.  1.
         -5    1    4    4    0  501  0.64460881347E+02 -0.56256028553E+02  0.30036223507E+02  0.90772204419E+02  0.41800000000E+01 0.  1.
</event>
<event>
11    1  0.1002087E-008  0.1410810E+03  0.7561462E-02  0.1106357E+00
         22   -1    0    0    0    0  0.00000000000E+00  0.00000000000E+00  0.43817282518E+03  0.43817282518E+03  0.00000000000E+00 0.  1.
         22   -1    0    0    0    0 -0.00000000000E+00 -0.00000000000E+00 -0.65145819987E+03  0.65145819987E+03  0.00000000000E+00 0.  1.
         24    2    1    2    0    0  0.21502813165E+02 -0.57288469512E+00 -0.53245545028E+03  0.53870497359E+03  0.78940122023E+02 0.  0.
         25    2    1    2    0    0  0.22300382041E+02  0.50036740708E+02 -0.66237539742E+02  0.15176836545E+03  0.12508094428E+03 0.  0.
        -24    2    1    2    0    0 -0.43803195207E+02 -0.49463856013E+02  0.38540761533E+03  0.39915768600E+03  0.80140098451E+02 0.  0.
        -13    1    3    3    0    0 -0.10346968020E+01  0.36113425611E+02 -0.31196265355E+03  0.31404768319E+03  0.00000000000E+00 0.  1.
         14    1    3    3    0    0  0.22537509967E+02 -0.36686310306E+02 -0.22049279673E+03  0.22465729040E+03  0.00000000000E+00 0. -1.
         13    1    5    5    0    0 -0.46135658782E+02 -0.28228179173E+02  0.10663180728E+03  0.11956450742E+03  0.00000000000E+00 0. -1.
        -14    1    5    5    0    0  0.23324635757E+01 -0.21235676841E+02  0.27877580805E+03  0.27959317858E+03  0.00000000000E+00 0.  1.
          5    1    4    4  501    0  0.61652121468E+02  0.67300099692E+02 -0.56773550749E+02  0.10756856402E+03  0.41800000000E+01 0.  1.
         -5    1    4    4    0  501 -0.39351739427E+02 -0.17263358983E+02 -0.94639889937E+01  0.44199801436E+02  0.41800000000E+01 0.  1.
</event>
<event>
11    1  0.1002087E-008  0.2301357E+03  0.7561462E-02  0.1035048E+00
         22   -1    0    0    0    0  0.00000000000E+00  0.00000000000E+00  0.99567079892E+03  0.99567079892E+03  0.00000000000E+00 0. -1.
         22   -1    0    0    0    0 -0.00000000000E+00 -0.00000000000E+00 -0.11318214092E+04  0.11318214092E+04  0.00000000000E+00 0. -1.
        -24    2    1    2    0    0  0.81347198244E+02 -0.17141997814E+03 -0.81782812686E+03  0.84341498223E+03  0.80646212515E+02 0.  0.
         25    2    1    2    0    0 -0.32617323542E+01  0.22402239741E+03 -0.24166324153E+03  0.35248597288E+03  0.12509422581E+03 0.  0.
         24    2    1    2    0    0 -0.78085465889E+02 -0.52602419269E+02  0.92334075811E+03  0.93159125302E+03  0.80248069261E+02 0.  0.
        -13    1    5    5    0    0 -0.39935482098E+02 -0.10741042533E+02  0.13436172689E+03  0.14058195609E+03  0.00000000000E+00 0.  1.
         14    1    5    5    0    0 -0.38149983791E+02 -0.41861376736E+02  0.78897903122E+03  0.79100929693E+03  0.00000000000E+00 0. -1.
         13    1    3    3    0    0  0.56668746806E+02 -0.11395215676E+03 -0.68341463689E+03  0.69516329506E+03  0.00000000000E+00 0. -1.
        -14    1    3    3    0    0  0.24678451437E+02 -0.57467821379E+02 -0.13441348998E+03  0.14825168717E+03  0.00000000000E+00 0.  1.
          5    1    4    4  501    0 -0.29162355870E+02  0.96190650621E+02 -0.18423525587E+03  0.20991232973E+03  0.41800000000E+01 0.  1.
         -5    1    4    4    0  501  0.25900623515E+02  0.12783174679E+03 -0.57427985667E+02  0.14257364315E+03  0.41800000000E+01 0.  1.
</event>
<event>
11    1  0.1002087E-008  0.1583015E+03  0.7561462E-02  0.1088686E+00
         22   -1    0    0    0    0  0.00000000000E+00  0.00000000000E+00  0.10703872865E+04  0.10703872865E+04  0.00000000000E+00 0.  1.
         22   -1    0    0    0    0 -0.00000000000E+00 -0.00000000000E+00 -0.14987174463E+03  0.14987174463E+03  0.00000000000E+00 0. -1.
        -24    2    1    2    0    0 -0.15760685815E+02  0.20540516723E+02 -0.92632631040E+02  0.12595298197E+03  0.81320583425E+02 0.  0.
         25    2    1    2    0    0 -0.73690334558E+02  0.23816736315E+02  0.11635032361E+03  0.18757253365E+03  0.12509418547E+03 0.  0.
         24    2    1    2    0    0  0.89451020373E+02 -0.44357253038E+02  0.89679784929E+03  0.90673351550E+03  0.89164088597E+02 0.  0.
        -13    1    5    5    0    0  0.99819930069E+02 -0.27685939325E+02  0.84524319151E+03  0.85156713327E+03  0.00000000000E+00 0.  1.
         14    1    5    5    0    0 -0.10368909696E+02 -0.16671313713E+02  0.51554657781E+02  0.55166382228E+02  0.00000000000E+00 0. -1.
         11    1    3    3    0    0  0.11504278044E+02 -0.49535349010E+01 -0.87362121190E+02  0.88255459549E+02  0.00000000000E+00 0. -1.
        -12    1    3    3    0    0 -0.27264963859E+02  0.25494051624E+02 -0.52705098503E+01  0.37697522419E+02  0.00000000000E+00 0.  1.
          5    1    4    4  501    0 -0.22575475764E+01  0.22880971826E+02  0.11357859800E+03  0.11595777558E+03  0.41800000000E+01 0. -1.
         -5    1    4    4    0  501 -0.71432786981E+02  0.93576448918E+00  0.27717256105E+01  0.71614758074E+02  0.41800000000E+01 0. -1.
</event>
<event>
11    1  0.1002087E-008  0.1310673E+03  0.7561462E-02  0.1117965E+00
         22   -1    0    0    0    0  0.00000000000E+00  0.00000000000E+00  0.83894142174E+02  0.83894142174E+02  0.00000000000E+00 0.  1.
         22   -1    0    0    0    0 -0.00000000000E+00 -0.00000000000E+00 -0.10540144357E+04  0.10540144357E+04  0.00000000000E+00 0.  1.
        -24    2    1    2    0    0  0.34609733504E+02 -0.14839254880E+02 -0.70495564311E+03  0.71061475445E+03  0.81196264354E+02 0.  0.
         25    2    1    2    0    0 -0.48758965608E+02  0.27784280091E+01 -0.30678286629E+03  0.33488444681E+03  0.12508680697E+03 0.  0.
         24    2    1    2    0    0  0.14149232104E+02  0.12060826871E+02  0.41618215884E+02  0.92409376608E+02  0.80385027697E+02 0.  0.
        -13    1    5    5    0    0  0.13434009203E+02  0.36431919967E+02  0.52836940874E+02  0.65570570507E+02  0.00000000000E+00 0.  1.
         14    1    5    5    0    0  0.71522290006E+00 -0.24371093097E+02 -0.11218724990E+02  0.26838806101E+02  0.00000000000E+00 0. -1.
         11    1    3    3    0    0  0.57347290258E+02  0.34433229514E+01 -0.37546624120E+03  0.37983610472E+03  0.00000000000E+00 0. -1.
        -12    1    3    3    0    0 -0.22737556754E+02 -0.18282577831E+02 -0.32948940192E+03  0.33077864973E+03  0.00000000000E+00 0.  1.
          5    1    4    4  501    0  0.28337031484E+02 -0.33088376882E+02 -0.15269059414E+03  0.15883865391E+03  0.41800000000E+01 0.  1.
         -5    1    4    4    0  501 -0.77095997092E+02  0.35866804891E+02 -0.15409227215E+03  0.17604579290E+03  0.41800000000E+01 0.  1.
</event>
<event>
11    1  0.1002087E-008  0.1888972E+03  0.7561462E-02  0.1062665E+00
         22   -1    0    0    0    0  0.00000000000E+00  0.00000000000E+00  0.55213196540E+03  0.55213196540E+03  0.00000000000E+00 0. -1.
         22   -1    0    0    0    0 -0.00000000000E+00 -0.00000000000E+00 -0.41104328052E+03  0.41104328052E+03  0.00000000000E+00 0. -1.
         24    2    1    2    0    0 -0.13430591020E+03 -0.40446087415E+02 -0.28877560570E+03  0.32996092759E+03  0.76216138641E+02 0.  0.
         25    2    1    2    0    0  0.10711321600E+03  0.14499031025E+03  0.44289428484E+02  0.22384110615E+03  0.12509139146E+03 0.  0.
        -24    2    1    2    0    0  0.27192694200E+02 -0.10454422284E+03  0.38557486210E+03  0.40937321218E+03  0.85144086248E+02 0.  0.
        -13    1    3    3    0    0 -0.15620197931E+02  0.19238637608E+02 -0.28687874156E+02  0.37909232174E+02  0.00000000000E+00 0.  1.
         14    1    3    3    0    0 -0.11868571226E+03 -0.59684725023E+02 -0.26008773155E+03  0.29205169542E+03  0.00000000000E+00 0. -1.
         13    1    5    5    0    0  0.47792125572E+02 -0.10114109188E+03  0.35606912868E+03  0.37322758758E+03  0.00000000000E+00 0. -1.
        -14    1    5    5    0    0 -0.20599431371E+02 -0.34031309588E+01  0.29505733417E+02  0.36145624598E+02  0.00000000000E+00 0.  1.
          5    1    4    4  501    0  0.11862881860E+03  0.75817197931E+02  0.57899157710E+02  0.15228535375E+03  0.41800000000E+01 0. -1.
         -5    1    4    4    0  501 -0.11515602601E+02  0.69173112321E+02 -0.13609729225E+02  0.71555752397E+02  0.41800000000E+01 0. -1.
</event>
<event>
11    1  0.1002087E-008  0.2621812E+03  0.7561462E-02  0.1017603E+00
         22   -1    0    0    0    0  0.00000000000E+00  0.00000000000E+00  0.18045964048E+04  0.18045964048E+04  0.00000000000E+00 0.  1.
         22   -1    0    0    0    0 -0.00000000000E+00 -0.00000000000E+00 -0.19442451865E+03  0.19442451865E+03  0.00000000000E+00 0.  1.
        -24    2    1    2    0    0 -0.18347133509E+03 -0.14186293658E+03 -0.78431584676E+02  0.25677600188E+03  0.77431118371E+02 0.  0.
         25    2    1    2    0    0  0.13814793831E+03  0.17803382333E+03  0.65342496517E+03  0.70241874477E+03  0.12508802020E+03 0.  0.
         24    2    1    2    0    0  0.45323396784E+02 -0.36170886748E+02  0.10351785057E+04  0.10398261768E+04  0.79255258782E+02 0.  0.
        -11    1    5    5    0    0  0.69154206728E+01 -0.15396194181E+01  0.74766801172E+03  0.74770157765E+03  0.00000000000E+00 0.  1.
         12    1    5    5    0    0  0.38407976111E+02 -0.34631267330E+02  0.28751049393E+03  0.29212459915E+03  0.00000000000E+00 0. -1.
         13    1    3    3    0    0 -0.24575883577E+01  0.48539918484E+01  0.67661744396E+01  0.86822862166E+01  0.00000000000E+00 0. -1.
        -14    1    3    3    0    0 -0.18101374673E+03 -0.14671692843E+03 -0.85197759116E+02  0.24809371567E+03  0.00000000000E+00 0.  1.
          5    1    4    4  501    0  0.11157276366E+03  0.12051327737E+03  0.28838263664E+03  0.33189448493E+03  0.41800000000E+01 0.  1.
         -5    1    4    4    0  501  0.26575174646E+02  0.57520545966E+02  0.36504232853E+03  0.37052425984E+03  0.41800000000E+01 0.  1.
</event>
<event>
11    1  0.1002087E-008  0.1423482E+03  0.7561462E-02  0.1104964E+00
         22   -1    0    0    0    0  0.00000000000E+00  0.00000000000E+00  0.26265631148E+04  0.26265631148E+04  0.00000000000E+00 0. -1.
         22   -1    0    0    0    0 -0.00000000000E+00 -0.00000000000E+00 -0.12737390044E+03  0.12737390044E+03  0.00000000000E+00 0. -1.
        -24    2    1    2    0    0  0.57911415228E+02 -0.39852521653E+02 -0.96345212078E+02  0.14392500639E+03  0.80560859467E+02 0.  0.
         25    2    1    2    0    0  0.10245311427E+02 -0.12865507551E+02  0.73788681203E+03  0.74859766997E+03  0.12510410235E+03 0.  0.
         24    2    1    2    0    0 -0.68156726654E+02  0.52718029203E+02  0.18576476144E+04  0.18614143388E+04  0.81142785590E+02 0.  0.
        -13    1    5    5    0    0 -0.73114262120E+02  0.22214794723E+02  0.89033249379E+03  0.89360569712E+03  0.00000000000E+00 0.  1.
         14    1    5    5    0    0  0.49575354653E+01  0.30503234480E+02  0.96731512059E+03  0.96780864173E+03  0.00000000000E+00 0. -1.
         11    1    3    3    0    0  0.27641158804E+02 -0.45256267728E+02 -0.99768372952E+02  0.11298624549E+03  0.00000000000E+00 0. -1.
        -12    1    3    3    0    0  0.30270256424E+02  0.54037460752E+01  0.34231608733E+01  0.30938760899E+02  0.00000000000E+00 0.  1.
          5    1    4    4  501    0 -0.23381129785E+02 -0.52065583790E+02  0.19445213101E+03  0.20269831253E+03  0.41800000000E+01 0.  1.
         -5    1    4    4    0  501  0.33626441211E+02  0.39200076239E+02  0.54343468102E+03  0.54589935744E+03  0.41800000000E+01 0.  1.
</event>
<event>
11    1  0.1002087E-008  0.1336266E+03  0.7561462E-02  0.1114892E+00
         22   -1    0    0    0    0  0.00000000000E+00  0.00000000000E+00  0.16163327237E+04  0.16163327237E+04  0.00000000000E+00 0.  1.
         22   -1    0    0    0    0 -0.00000000000E+00 -0.00000000000E+00 -0.33457541655E+03  0.33457541655E+03  0.00000000000E+00 0. -1.
        -24    2    1    2    0    0 -0.43422413259E+02 -0.18249527928E+02 -0.31697248215E+03  0.33053027516E+03  0.80994796865E+02 0.  0.
         25    2    1    2    0    0  0.29908467345E+02  0.30155564782E+02  0.45794166512E+03  0.47661563718E+03  0.12509205589E+03 0.  0.
         24    2    1    2    0    0  0.13513945914E+02 -0.11906036854E+02  0.11407881241E+04  0.11437622279E+04  0.80436989377E+02 0.  0.
        -11    1    5    5    0    0 -0.14223790477E+02 -0.15356069007E+02  0.10003793625E+04  0.10005983180E+04  0.00000000000E+00 0.  1.
         12    1    5    5    0    0  0.27737736391E+02  0.34500321537E+01  0.14040876169E+03  0.14316390991E+03  0.00000000000E+00 0. -1.
         11    1    3    3    0    0 -0.39680342976E+02 -0.27212071224E+02 -0.31718697584E+03  0.32081552968E+03  0.00000000000E+00 0. -1.
        -12    1    3    3    0    0 -0.37420702827E+01  0.89625432960E+01  0.21449369423E+00  0.97147454870E+01  0.00000000000E+00 0.  1.
          5    1    4    4  501    0 -0.12910786377E+02 -0.44120137913E+02  0.15100740806E+03  0.15790498619E+03  0.41800000000E+01 0.  1.
         -5    1    4    4    0  501  0.42819253721E+02  0.74275702695E+02  0.30693425706E+03  0.31871065099E+03  0.41800000000E+01 0.  1.
</event>
<event>
11    1  0.1002087E-008  0.1671739E+03  0.7561462E-02  0.1080518E+00
         22   -1    0    0    0    0  0.00000000000E+00  0.00000000000E+00  0.25501848717E+03  0.25501848717E+03  0.00000000000E+00 0.  1.
         22   -1    0    0    0    0 -0.00000000000E+00 -0.00000000000E+00 -0.24614950449E+04  0.24614950449E+04  0.00000000000E+00 0.  1.
        -24    2    1    2    0    0 -0.10799565123E+03 -0.10303147003E+02 -0.21908315080E+04  0.21951562254E+04  0.84846578949E+02 0.  0.
         25    2    1    2    0    0  0.15197253540E+03  0.67037542515E+02 -0.21242234563E+03  0.29725623578E+03  0.12509329785E+03 0.  0.
         24    2    1    2    0    0 -0.43976884173E+02 -0.56734395512E+02  0.19677729588E+03  0.22410107090E+03  0.79669491207E+02 0.  0.
        -13    1    5    5    0    0 -0.45627573723E+02 -0.47130131362E+02  0.66324715358E+02  0.93285007548E+02  0.00000000000E+00 0.  1.
         14    1    5    5    0    0  0.16506895502E+01 -0.96042641498E+01  0.13045258053E+03  0.13081606336E+03  0.00000000000E+00 0. -1.
         13    1    3    3    0    0 -0.36353765591E+02  0.25440674702E+02 -0.38459773861E+03  0.38714886639E+03  0.00000000000E+00 0. -1.
        -14    1    3    3    0    0 -0.71641885639E+02 -0.35743821705E+02 -0.18062337694E+04  0.18080073590E+04  0.00000000000E+00 0.  1.
          5    1    4    4  501    0  0.82514456676E+02  0.77186685025E+02 -0.56902438535E+02  0.12657716941E+03  0.41800000000E+01 0. -1.
         -5    1    4    4    0  501  0.69458078727E+02 -0.10149142510E+02 -0.15551990709E+03  0.17067906637E+03  0.41800000000E+01 0. -1.
</event>
<event>
11    1  0.1002087E-008  0.2182804E+03  0.7561462E-02  0.1042300E+00
         22   -1    0    0    0    0  0.00000000000E+00  0.00000000000E+00  0.63826266209E+03  0.63826266209E+03  0.00000000000E+00 0.  1.
         22   -1    0    0    0    0 -0.00000000000E+00 -0.00000000000E+00 -0.10390830469E+04  0.10390830469E+04  0.00000000000E+00 0.  1.
         24    2    1    2    0    0 -0.92796859626E+02 -0.13667758765E+03 -0.63824022700E+03  0.66400757780E+03  0.79141998301E+02 0.  0.
         25    2    1    2    0    0  0.10189085160E+03  0.20247854979E+03 -0.33960670204E+03  0.42703512031E+03  0.12508786168E+03 0.  0.
        -24    2    1    2    0    0 -0.90939919752E+01 -0.65800962133E+02  0.57702654419E+03  0.58630301092E+03  0.79869397205E+02 0.  0.
        -11    1    3    3    0    0 -0.54376764580E+02 -0.12677346306E+03 -0.55363417630E+03  0.57056037773E+03  0.00000000000E+00 0.  1.
         12    1    3    3    0    0 -0.38420095046E+02 -0.99041245991E+01 -0.84606050692E+02  0.93447200071E+02  0.00000000000E+00 0. -1.
         11    1    5    5    0    0  0.38726027459E+01 -0.35493893378E+02  0.73649902557E+02  0.81848162262E+02  0.00000000000E+00 0. -1.
        -12    1    5    5    0    0 -0.12966594721E+02 -0.30307068756E+02  0.50337664164E+03  0.50445484866E+03  0.00000000000E+00 0.  1.
          5    1    4    4  501    0 -0.28405052453E+02  0.27445176245E+02 -0.66228158828E+02  0.77225165107E+02  0.41800000000E+01 0. -1.
         -5    1    4    4    0  501  0.13029590405E+03  0.17503337354E+03 -0.27337854322E+03  0.34980995520E+03  0.41800000000E+01 0. -1.
</event>
<event>
11    1  0.1002087E-008  0.1566473E+03  0.7561462E-02  0.1090274E+00
         22   -1    0    0    0    0  0.00000000000E+00  0.00000000000E+00  0.11524750643E+03  0.11524750643E+03  0.00000000000E+00 0.  1.
         22   -1    0    0    0    0 -0.00000000000E+00 -0.00000000000E+00 -0.11548325504E+04  0.11548325504E+04  0.00000000000E+00 0. -1.
         24    2    1    2    0    0  0.61609318411E+02 -0.25267133496E+02 -0.85222283275E+03  0.85875291652E+03  0.82089456222E+02 0.  0.
         25    2    1    2    0    0 -0.74723329745E+01 -0.61465168350E+02 -0.23493291122E+03  0.27327925696E+03  0.12511705251E+03 0.  0.
        -24    2    1    2    0    0 -0.54136985436E+02  0.86732301846E+02  0.47570699999E+02  0.13804788335E+03  0.79630027146E+02 0.  0.
        -11    1    3    3    0    0  0.16736807561E+02  0.21346447990E+02 -0.95750429652E+02  0.99518522636E+02  0.00000000000E+00 0.  1.
         12    1    3    3    0    0  0.44872510850E+02 -0.46613581487E+02 -0.75647240310E+03  0.75923439389E+03  0.00000000000E+00 0. -1.
         11    1    5    5    0    0 -0.27026866817E+02  0.37279975127E+01 -0.14517590942E+02  0.30904853052E+02  0.00000000000E+00 0. -1.
        -12    1    5    5    0    0 -0.27110118619E+02  0.83004304334E+02  0.62088290941E+02  0.10714303030E+03  0.00000000000E+00 0.  1.
          5    1    4    4  501    0 -0.24925205894E+01 -0.29722563150E+02 -0.23876025015E+03  0.24065239012E+03  0.41800000000E+01 0. -1.
         -5    1    4    4    0  501 -0.49798123852E+01 -0.31742605200E+02  0.38273389328E+01  0.32626866836E+02  0.41800000000E+01 0. -1.
</event>
<event>
11    1  0.1002087E-008  0.1491605E+03  0.7561462E-02  0.1097740E+00
         22   -1    0    0    0    0  0.00000000000E+00  0.00000000000E+00  0.30297678644E+03  0.30297678644E+03  0.00000000000E+00 0. -1.
         22   -1    0    0    0    0 -0.00000000000E+00 -0.00000000000E+00 -0.31292343439E+03  0.31292343439E+03  0.00000000000E+00 0.  1.
         24    2    1    2    0    0 -0.10011357761E+02  0.86194741214E+02 -0.24812702435E+03  0.27520253627E+03  0.81484078545E+02 0.  0.
         25    2    1    2    0    0  0.11344676158E+02 -0.35188032583E+02  0.71349460421E+02  0.14868089628E+03  0.12509342149E+03 0.  0.
        -24    2    1    2    0    0 -0.13333183969E+01 -0.51006708631E+02  0.16683091599E+03  0.19201678828E+03  0.80214901293E+02 0.  0.
        -13    1    3    3    0    0  0.11625795935E+02  0.93596364090E+02 -0.21670727015E+03  0.23634186984E+03  0.00000000000E+00 0.  1.
         14    1    3    3    0    0 -0.21637153696E+02 -0.74016228753E+01 -0.31419754203E+02  0.38860666430E+02  0.00000000000E+00 0. -1.
         13    1    5    5    0    0  0.33236747487E+02 -0.90994640199E+01  0.33572728151E+02  0.48110390815E+02  0.00000000000E+00 0. -1.
        -14    1    5    5    0    0 -0.34570065884E+02 -0.41907244611E+02  0.13325818784E+03  0.14390639747E+03  0.00000000000E+00 0.  1.
          5    1    4    4  501    0 -0.25347203345E+02  0.54960809321E+01 -0.25958269629E+02  0.36932259410E+02  0.41800000000E+01 0.  1.
         -5    1    4    4    0  501  0.36691879503E+02 -0.40684113515E+02  0.97307730050E+02  0.11174863687E+03  0.41800000000E+01 0.  1.
</event>
<event>
11    1  0.1002087E-008  0.2339534E+03  0.7561462E-02  0.1032813E+00
         22   -1    0    0    0    0  0.00000000000E+00  0.00000000000E+00  0.16067683437E+04  0.16067683437E+04  0.00000000000E+00 0.  1.
         22   -1    0    0    0    0 -0.00000000000E+00 -0.00000000000E+00 -0.63256975626E+03  0.63256975626E+03  0.00000000000E+00 0.  1.
        -24    2    1    2    0    0  0.15621206624E+02 -0.16182993556E+02 -0.38427507652E+03  0.39198604866E+03  0.74025782925E+02 0.  0.
         25    2    1    2    0    0 -0.15498095368E+03  0.15544473644E+03 -0.16961668736E+03  0.30430178321E+03  0.12509033754E+03 0.  0.
         24    2    1    2    0    0  0.13935974705E+03 -0.13926174289E+03  0.15280903513E+04  0.15430502681E+04  0.84433618231E+02 0.  0.
        -11    1    5    5    0    0  0.44501666630E+02 -0.10369334320E+03  0.83829872436E+03  0.84585900659E+03  0.00000000000E+00 0.  1.
         12    1    5    5    0    0  0.94858080424E+02 -0.35568399681E+02  0.68979162693E+03  0.69719126147E+03  0.00000000000E+00 0. -1.
         11    1    3    3    0    0  0.18803213773E+02  0.13610200715E+02 -0.38793919681E+02  0.45208037072E+02  0.00000000000E+00 0. -1.
        -12    1    3    3    0    0 -0.31820071490E+01 -0.29793194271E+02 -0.34548115684E+03  0.34677801159E+03  0.00000000000E+00 0.  1.
          5    1    4    4  501    0 -0.13290287180E+03  0.45839867215E+02 -0.98974633851E+02  0.17198231684E+03  0.41800000000E+01 0.  1.
         -5    1    4    4    0  501 -0.22078081878E+02  0.10960486923E+03 -0.70642053512E+02  0.13231946638E+03  0.41800000000E+01 0.  1.
</event>
<event>
11    1  0.1002087E-008  0.1339329E+03  0.7561462E-02  0.1114529E+00
         22   -1    0    0    0    0  0.00000000000E+00  0.00000000000E+00  0.57428465805E+03  0.57428465805E+03  0.00000000000E+00 0.  1.
         22   -1    0    0    0    0 -0.00000000000E+00 -0.00000000000E+00 -0.38382809284E+03  0.38382809284E+03  0.00000000000E+00 0. -1.
        -24    2    1    2    0    0 -0.12387237348E+02 -0.62955228585E+01 -0.25059194475E+03  0.26332573213E+03  0.79693419872E+02 0.  0.
         25    2    1    2    0    0  0.57548382789E+02  0.20871216177E+02 -0.83648551615E+02  0.16245360528E+03  0.12508664859E+03 0.  0.
         24    2    1    2    0    0 -0.45161145441E+02 -0.14575693319E+02  0.52469706158E+03  0.53233341347E+03  0.76288116906E+02 0.  0.
        -13    1    5    5    0    0 -0.36601604797E+02 -0.25480325885E+02  0.51066404833E+03  0.51260773964E+03  0.00000000000E+00 0.  1.
         14    1    5    5    0    0 -0.85595406442E+01  0.10904632566E+02  0.14033013242E+02  0.19725673831E+02  0.00000000000E+00 0. -1.
         13    1    3    3    0    0 -0.35381896154E+02 -0.30462194959E+02 -0.16448817997E+03  0.17098592120E+03  0.00000000000E+00 0. -1.
        -14    1    3    3    0    0  0.22994658807E+02  0.24166672101E+02 -0.86103764778E+02  0.92339810932E+02  0.00000000000E+00 0.  1.
          5    1    4    4  501    0  0.55572904334E+02  0.63953491332E+02 -0.83634026271E+02  0.11912396694E+03  0.41800000000E+01 0.  1.
         -5    1    4    4    0  501  0.19754784545E+01 -0.43082275155E+02 -0.14525344090E-01  0.43329638339E+02  0.41800000000E+01 0.  1.
</event>
<event>
11    1  0.1002087E-008  0.1741310E+03  0.7561462E-02  0.1074492E+00
         22   -1    0    0    0    0  0.00000000000E+00  0.00000000000E+00  0.96445989296E+03  0.96445989296E+03  0.00000000000E+00 0. -1.
         22   -1    0    0    0    0 -0.00000000000E+00 -0.00000000000E+00 -0.95730431189E+03  0.95730431189E+03  0.00000000000E+00 0. -1.
         24    2    1    2    0    0  0.27425726738E+02 -0.43452341005E+02 -0.84667891437E+03  0.85213881256E+03  0.81456094949E+02 0.  0.
         25    2    1    2    0    0 -0.13930920850E+03  0.83451042261E+02  0.14734779778E+01  0.20499234516E+03  0.12509419814E+03 0.  0.
        -24    2    1    2    0    0  0.11188348176E+03 -0.39998701256E+02  0.85236101747E+03  0.86463304712E+03  0.83385805066E+02 0.  0.
        -13    1    3    3    0    0  0.24673304323E+02 -0.23622539458E+01 -0.68081488621E+02  0.72453028113E+02  0.00000000000E+00 0.  1.
         14    1    3    3    0    0  0.27524224155E+01 -0.41090087059E+02 -0.77859742575E+03  0.77968578445E+03  0.00000000000E+00 0. -1.
         13    1    5    5    0    0  0.11869466916E+03 -0.43248497739E+02  0.84386846342E+03  0.85327184449E+03  0.00000000000E+00 0. -1.
        -14    1    5    5    0    0 -0.68111874022E+01  0.32497964831E+01  0.84925540440E+01  0.11361202630E+02  0.00000000000E+00 0.  1.
          5    1    4    4  501    0 -0.13037455683E+03  0.49411501417E+02 -0.44983712774E+02  0.14656066442E+03  0.41800000000E+01 0.  1.
         -5    1    4    4    0  501 -0.89346516713E+01  0.34039540844E+02  0.46457190752E+02  0.58431680739E+02  0.41800000000E+01 0.  1.
</event>
<event>
11    1  0.1002087E-008  0.2672988E+03  0.7561462E-02  0.1015067E+00
         22   -1    0    0    0    0  0.00000000000E+00  0.00000000000E+00  0.98276774050E+03  0.98276774050E+03  0.00000000000E+00 0.  1.
         22   -1    0    0    0    0 -0.00000000000E+00 -0.00000000000E+00 -0.14755834219E+03  0.14755834219E+03  0.00000000000E+00 0. -1.
        -24    2    1    2    0    0 -0.20321291721E+03  0.11875798568E+03  0.65385738695E+02  0.25886962492E+03  0.85669358577E+02 0.  0.
         25    2    1    2    0    0  0.22525116429E+03 -0.84873827763E+02  0.35192740631E+03  0.44434718523E+03  0.12509943269E+03 0.  0.
         24    2    1    2    0    0 -0.22038247079E+02 -0.33884157914E+02  0.41789625330E+03  0.42710927253E+03  0.78429788132E+02 0.  0.
        -11    1    5    5    0    0 -0.31414811024E+02 -0.55283984933E+02  0.33510902939E+03  0.34108836234E+03  0.00000000000E+00 0.  1.
         12    1    5    5    0    0  0.93765639457E+01  0.21399827019E+02  0.82787223909E+02  0.86020910193E+02  0.00000000000E+00 0. -1.
         11    1    3    3    0    0 -0.18129921773E+03  0.85005374447E+02  0.24890499626E+02  0.20177922838E+03  0.00000000000E+00 0. -1.
        -12    1    3    3    0    0 -0.21913699478E+02  0.33752611230E+02  0.40495239069E+02  0.57090396538E+02  0.00000000000E+00 0.  1.
          5    1    4    4  501    0  0.21419138149E+03 -0.60565026267E+02  0.23250598240E+03  0.32190460475E+03  0.41800000000E+01 0. -1.
         -5    1    4    4    0  501  0.11059782803E+02 -0.24308801496E+02  0.11942142391E+03  0.12244258048E+03  0.41800000000E+01 0. -1.
</event>
<event>
11    1  0.1002087E-008  0.1358377E+03  0.7561462E-02  0.1112297E+00
         22   -1    0    0    0    0  0.00000000000E+00  0.00000000000E+00  0.49548988247E+03  0.49548988247E+03  0.00000000000E+00 0. -1.
         22   -1    0    0    0    0 -0.00000000000E+00 -0.00000000000E+00 -0.98044883208E+03  0.98044883208E+03  0.00000000000E+00 0. -1.
         24    2    1    2    0    0 -0.48375445035E+02 -0.21556361700E+02 -0.83343799019E+03  0.83862965566E+03  0.76654780932E+02 0.  0.
         25    2    1    2    0    0  0.53491143459E+02  0.86408944190E+01 -0.10787570761E+03  0.17384945621E+03  0.12510194901E+03 0.  0.
        -24    2    1    2    0    0 -0.51156984240E+01  0.12915467281E+02  0.45635474820E+03  0.46345960268E+03  0.79637726273E+02 0.  0.
        -11    1    3    3    0    0 -0.24927926607E+02 -0.10104266513E+02 -0.73889488985E+02  0.78633035737E+02  0.00000000000E+00 0.  1.
         12    1    3    3    0    0 -0.23447518429E+02 -0.11452095187E+02 -0.75954850121E+03  0.75999661992E+03  0.00000000000E+00 0. -1.
         13    1    5    5    0    0  0.24053337759E+02  0.35327300569E+02  0.20316467478E+03  0.20761133471E+03  0.00000000000E+00 0. -1.
        -14    1    5    5    0    0 -0.29169036183E+02 -0.22411833288E+02  0.25319007342E+03  0.25584826796E+03  0.00000000000E+00 0.  1.
          5    1    4    4  501    0  0.27960473533E+02  0.82688142242E+01 -0.13393001311E+03  0.13713089434E+03  0.41800000000E+01 0.  1.
         -5    1    4    4    0  501  0.25530669927E+02  0.37208019477E+00  0.26054305502E+02  0.36718561870E+02  0.41800000000E+01 0.  1.
</event>
<event>
11    1  0.1002087E-008  0.1472975E+03  0.7561462E-02  0.1099673E+00
         22   -1    0    0    0    0  0.00000000000E+00  0.00000000000E+00  0.32949589060E+03  0.32949589060E+03  0.00000000000E+00 0. -1.
         22   -1    0    0    0    0 -0.00000000000E+00 -0.00000000000E+00 -0.17150187184E+03  0.17150187184E+03  0.00000000000E+00 0. -1.
        -24    2    1    2    0    0 -0.31078857706E+01  0.16210640003E+02 -0.59422662960E+02  0.10254048779E+03  0.81921028800E+02 0.  0.
         25    2    1    2    0    0 -0.75087829776E+02 -0.16017551680E+02 -0.74980848860E+01  0.14696699263E+03  0.12509329120E+03 0.  0.
         24    2    1    2    0    0  0.78195715546E+02 -0.19308832365E+00  0.22491476661E+03  0.25149028202E+03  0.80907987879E+02 0.  0.
        -13    1    5    5    0    0  0.51941551386E+01  0.15540695162E+02  0.21312735665E+01  0.16523764122E+02  0.00000000000E+00 0.  1.
         14    1    5    5    0    0  0.73001560408E+02 -0.15733783486E+02  0.22278349304E+03  0.23496651790E+03  0.00000000000E+00 0. -1.
         11    1    3    3    0    0 -0.23341146943E+01  0.13789356240E+02 -0.80300088505E+02  0.81508886944E+02  0.00000000000E+00 0. -1.
        -12    1    3    3    0    0 -0.77377107628E+00  0.24212837631E+01  0.20877425545E+02  0.21031600846E+02  0.00000000000E+00 0.  1.
          5    1    4    4  501    0 -0.45758345568E+02 -0.48408273039E+02  0.43508934827E+02  0.79672372235E+02  0.41800000000E+01 0. -1.
         -5    1    4    4    0  501 -0.29329484208E+02  0.32390721359E+02 -0.51007019713E+02  0.67294620395E+02  0.41800000000E+01 0. -1.
</event>
<event>
11    1  0.1002087E-008  0.1346995E+03  0.7561462E-02  0.1113626E+00
         22   -1    0    0    0    0  0.00000000000E+00  0.00000000000E+00  0.97697226451E+03  0.97697226451E+03  0.00000000000E+00 0.  1.
         22   -1    0    0    0    0 -0.00000000000E+00 -0.00000000000E+00 -0.11574882915E+03  0.11574882915E+03  0.00000000000E+00 0.  1.
         24    2    1    2    0    0  0.20889355159E+02 -0.40542218388E+02 -0.45028529558E+02  0.10289324946E+03  0.80494817722E+02 0.  0.
         25    2    1    2    0    0  0.66619522488E+01  0.80156157600E+02  0.10501216075E+03  0.18203925327E+03  0.12506536137E+03 0.  0.
        -24    2    1    2    0    0 -0.27551307408E+02 -0.39613939212E+02  0.80123980417E+03  0.80778859092E+03  0.90602677244E+02 0.  0.
        -11    1    3    3    0    0 -0.18903639477E+02 -0.31915387862E+02 -0.49582236324E+02  0.61922029414E+02  0.00000000000E+00 0.  1.
         12    1    3    3    0    0  0.39792994635E+02 -0.86268305256E+01  0.45537067665E+01  0.40971220049E+02  0.00000000000E+00 0. -1.
         11    1    5    5    0    0  0.56998910856E+01  0.22591215859E+02  0.86706329282E+02  0.89782177129E+02  0.00000000000E+00 0. -1.
        -12    1    5    5    0    0 -0.33251198493E+02 -0.62205155071E+02  0.71453347488E+03  0.71800641379E+03  0.00000000000E+00 0.  1.
          5    1    4    4  501    0  0.41311812508E+02  0.85481182234E+02  0.11111445844E+03  0.14621078497E+03  0.41800000000E+01 0. -1.
         -5    1    4    4    0  501 -0.34649860259E+02 -0.53250246335E+01 -0.61022976833E+01  0.35828468295E+02  0.41800000000E+01 0. -1.
</event>
<event>
11    1  0.1002087E-008  0.1413146E+03  0.7561462E-02  0.1106099E+00
         22   -1    0    0    0    0  0.00000000000E+00  0.00000000000E+00  0.11098377829E+03  0.11098377829E+03  0.00000000000E+00 0.  1.
         22   -1    0    0    0    0 -0.00000000000E+00 -0.00000000000E+00 -0.55788119531E+03  0.55788119531E+03  0.00000000000E+00 0.  1.
         24    2    1    2    0    0 -0.58801204594E+02  0.12626552582E+02 -0.26707481785E+03  0.28503711290E+03  0.79373710431E+02 0.  0.
         25    2    1    2    0    0  0.79441367433E+02 -0.42811076130E+01 -0.23912009752E+03  0.28134463176E+03  0.12508845688E+03 0.  0.
        -24    2    1    2    0    0 -0.20640162839E+02 -0.83454449690E+01  0.59297498350E+02  0.10248322894E+03  0.80566470259E+02 0.  0.
        -13    1    3    3    0    0 -0.11650883696E+02 -0.31873358192E+02 -0.75141560534E+02  0.82449427971E+02  0.00000000000E+00 0.  1.
         14    1    3    3    0    0 -0.47150320898E+02  0.44499910774E+02 -0.19193325732E+03  0.20258768493E+03  0.00000000000E+00 0. -1.
         11    1    5    5    0    0  0.14639170876E+02  0.19145517941E+02 -0.45521323504E+01  0.24527088903E+02  0.00000000000E+00 0. -1.
        -12    1    5    5    0    0 -0.35279333714E+02 -0.27490962910E+02  0.63849630701E+02  0.77956140038E+02  0.00000000000E+00 0.  1.
          5    1    4    4  501    0 -0.30924478013E+02 -0.93989050869E+01 -0.89916767345E+02  0.95640787361E+02  0.41800000000E+01 0. -1.
         -5    1    4    4    0  501  0.11036584545E+03  0.51177974739E+01 -0.14920333017E+03  0.18570384440E+03  0.41800000000E+01 0. -1.
</event>
<event>
11    1  0.1002087E-008  0.1385047E+03  0.7561462E-02  0.1109240E+00
         22   -1    0    0    0    0  0.00000000000E+00  0.00000000000E+00  0.31769836910E+03  0.31769836910E+03  0.00000000000E+00 0. -1.
         22   -1    0    0    0    0 -0.00000000000E+00 -0.00000000000E+00 -0.28167859677E+03  0.28167859677E+03  0.00000000000E+00 0. -1.
        -24    2    1    2    0    0  0.55178191884E+02  0.25229706606E+02 -0.19245038322E+03  0.21741351660E+03  0.80934024010E+02 0.  0.
         25    2    1    2    0    0 -0.20556378449E+02 -0.70692042498E+02  0.14038033309E+02  0.14582868465E+03  0.12509600042E+03 0.  0.
         24    2    1    2    0    0 -0.34621813434E+02  0.45462335893E+02  0.21443212224E+03  0.23613476462E+03  0.80703147793E+02 0.  0.
        -11    1    5    5    0    0 -0.25403858660E+01  0.13936637525E+01 -0.72719856386E+01  0.78280032021E+01  0.00000000000E+00 0.  1.
         12    1    5    5    0    0 -0.32081427568E+02  0.44068672140E+02  0.22170410788E+03  0.22830676142E+03  0.00000000000E+00 0. -1.
         11    1    3    3    0    0 -0.83400124335E+01  0.38965844641E+00 -0.11041362578E+03  0.11072884177E+03  0.00000000000E+00 0. -1.
        -12    1    3    3    0    0  0.63518204317E+02  0.24840048159E+02 -0.82036757438E+02  0.10668467483E+03  0.00000000000E+00 0.  1.
          5    1    4    4  501    0  0.36609264946E+02 -0.56119077657E+02  0.43255929742E+02  0.79863239445E+02  0.41800000000E+01 0. -1.
         -5    1    4    4    0  501 -0.57165643395E+02 -0.14572964842E+02 -0.29217896432E+02  0.65965445204E+02  0.41800000000E+01 0. -1.
</event>
<event>
11    1  0.1002087E-008  0.2029201E+03  0.7561462E-02  0.1052478E+00
         22   -1    0    0    0    0  0.00000000000E+00  0.00000000000E+00  0.87308038329E+03  0.87308038329E+03  0.00000000000E+00 0.  1.
         22   -1    0    0    0    0 -0.00000000000E+00 -0.00000000000E+00 -0.14952737279E+04  0.14952737279E+04  0.00000000000E+00 0. -1.
        -24    2    1    2    0    0  0.14175745298E+03  0.29986629670E+02 -0.77380908123E+03  0.79108274156E+03  0.77698367804E+02 0.  0.
         25    2    1    2    0    0 -0.15520161595E+03 -0.16835702374E+03 -0.68104827294E+03  0.72931936653E+03  0.12509340228E+03 0.  0.
         24    2    1    2    0    0  0.13444162962E+02  0.13837039407E+03  0.83266400953E+03  0.84795200314E+03  0.79788065524E+02 0.  0.
        -11    1    5    5    0    0  0.44387734371E+01  0.74505991241E+02  0.64929931547E+03  0.65357512691E+03  0.00000000000E+00 0.  1.
         12    1    5    5    0    0  0.90053895251E+01  0.63864402827E+02  0.18336469406E+03  0.19437687624E+03  0.00000000000E+00 0. -1.
         13    1    3    3    0    0  0.14382714609E+03  0.13115796787E+02 -0.63385736980E+03  0.65010263599E+03  0.00000000000E+00 0. -1.
        -14    1    3    3    0    0 -0.20696931103E+01  0.16870832883E+02 -0.13995171144E+03  0.14098010557E+03  0.00000000000E+00 0.  1.
          5    1    4    4  501    0 -0.70309518851E+02 -0.13513007438E+03 -0.54187647595E+03  0.56289533044E+03  0.41800000000E+01 0.  1.
         -5    1    4    4    0  501 -0.84892097094E+02 -0.33226949357E+02 -0.13917179699E+03  0.16642403609E+03  0.41800000000E+01 0.  1.
</event>
<event>
11    1  0.1002087E-008  0.1751710E+03  0.7561462E-02  0.1073617E+00
         22   -1    0    0    0    0  0.00000000000E+00  0.00000000000E+00  0.99728320399E+03  0.99728320399E+03  0.00000000000E+00 0.  1.
         22   -1    0    0    0    0 -0.00000000000E+00 -0.00000000000E+00 -0.19799693429E+03  0.19799693429E+03  0.00000000000E+00 0.  1.
         24    2    1    2    0    0  0.11576136258E+03  0.32861442346E+02 -0.12058349228E+03  0.18797090600E+03  0.79448822733E+02 0.  0.
         25    2    1    2    0    0 -0.15427767970E+03  0.39017451987E+02  0.22683555051E+03  0.30401632566E+03  0.12509034847E+03 0.  0.
        -24    2    1    2    0    0  0.38516317115E+02 -0.71878894334E+02  0.69303421146E+03  0.70329290662E+03  0.87603721983E+02 0.  0.
        -13    1    3    3    0    0  0.10634423892E+03  0.38285226141E+02 -0.13092937214E+03  0.17296634407E+03  0.00000000000E+00 0.  1.
         14    1    3    3    0    0  0.94171236672E+01 -0.54237837946E+01  0.10345879861E+02  0.15004561937E+02  0.00000000000E+00 0. -1.
         11    1    5    5    0    0 -0.18050228667E+02 -0.38139777026E+01  0.37298006761E+02  0.41611278389E+02  0.00000000000E+00 0. -1.
        -12    1    5    5    0    0  0.56566545782E+02 -0.68064916631E+02  0.65573620470E+03  0.66168162823E+03  0.00000000000E+00 0.  1.
          5    1    4    4  501    0 -0.13984058127E+03 -0.55010361951E+01  0.21324869831E+03  0.25510415382E+03  0.41800000000E+01 0. -1.
         -5    1    4    4    0  501 -0.14437098430E+02  0.44518488182E+02  0.13586852205E+02  0.48912171839E+02  0.41800000000E+01 0. -1.
</event>
<event>
11    1  0.1002087E-008  0.1344860E+03  0.7561462E-02  0.1113877E+00
         22   -1    0    0    0    0  0.00000000000E+00  0.00000000000E+00  0.17785511936E+04  0.17785511936E+04  0.00000000000E+00 0. -1.
         22   -1    0    0    0    0 -0.00000000000E+00 -0.00000000000E+00 -0.17704169144E+03  0.17704169144E+03  0.00000000000E+00 0. -1.
         24    2    1    2    0    0 -0.15486255237E+02 -0.13737918027E+02 -0.15711118086E+03  0.17630420416E+03  0.77270270865E+02 0.  0.
         25    2    1    2    0    0 -0.20401281451E+02  0.47911176101E+02  0.53141461250E+03  0.54841687808E+03  0.12509152129E+03 0.  0.
        -24    2    1    2    0    0  0.35887536688E+02 -0.34173258074E+02  0.12272060706E+04  0.12308718028E+04  0.80962513239E+02 0.  0.
        -13    1    3    3    0    0  0.21992383258E+01  0.55288269044E+01  0.75309072143E+01  0.95978716194E+01  0.00000000000E+00 0.  1.
         14    1    3    3    0    0 -0.17685493563E+02 -0.19266744931E+02 -0.16464208808E+03  0.16670633254E+03  0.00000000000E+00 0. -1.
         13    1    5    5    0    0  0.55643550246E+02 -0.27428564295E+02  0.57597921428E+03  0.57931044018E+03  0.00000000000E+00 0. -1.
        -14    1    5    5    0    0 -0.19756013558E+02 -0.67446937791E+01  0.65122685629E+03  0.65156136267E+03  0.00000000000E+00 0.  1.
          5    1    4    4  501    0  0.51659008809E+02  0.74491934076E+01  0.18606660982E+03  0.19329355748E+03  0.41800000000E+01 0.  1.
         -5    1    4    4    0  501 -0.72060290259E+02  0.40461982693E+02  0.34534800268E+03  0.35512332060E+03  0.41800000000E+01 0.  1.
</event>
<event>
11    1  0.1002087E-008  0.1543412E+03  0.7561462E-02  0.1092524E+00
         22   -1    0    0    0    0  0.00000000000E+00  0.00000000000E+00  0.97810024050E+02  0.97810024050E+02  0.00000000000E+00 0.  1.
         22   -1    0    0    0    0 -0.00000000000E+00 -0.00000000000E+00 -0.16082821403E+04  0.16082821403E+04  0.00000000000E+00 0.  1.
        -24    2    1    2    0    0 -0.90249498177E+02  0.30572694025E+02 -0.12568268469E+04  0.12629182179E+04  0.79177271448E+02 0.  0.
         25    2    1    2    0    0  0.67580769722E+02 -0.34320408566E+01 -0.30793780093E+03  0.33919166306E+03  0.12508539368E+03 0.  0.
         24    2    1    2    0    0  0.22668728455E+02 -0.27140653168E+02  0.54292531603E+02  0.10398228342E+03  0.81327424488E+02 0.  0.
        -11    1    5    5    0    0 -0.20521543076E+02 -0.97678310478E+01  0.52711044594E+02  0.57402077278E+02  0.00000000000E+00 0.  1.
         12    1    5    5    0    0  0.43190271531E+02 -0.17372822120E+02  0.15814870089E+01  0.46580206145E+02  0.00000000000E+00 0. -1.
         11    1    3    3    0    0  0.45956661611E+01 -0.14450870244E+02 -0.80527314113E+02  0.81942639185E+02  0.00000000000E+00 0. -1.
        -12    1    3    3    0    0 -0.94845164338E+02  0.45023564269E+02 -0.11762995328E+04  0.11809755787E+04  0.00000000000E+00 0.  1.
          5    1    4    4  501    0  0.43331712201E+02 -0.35896519122E+02 -0.28866261571E+03  0.29412544174E+03  0.41800000000E+01 0.  1.
         -5    1    4    4    0  501  0.24249057521E+02  0.32464478265E+02 -0.19275185215E+02  0.45066221328E+02  0.41800000000E+01 0.  1.
</event>
<event>
11    1  0.1002087E-008  0.1371134E+03  0.7561462E-02  0.1110825E+00
         22   -1    0    0    0    0  0.00000000000E+00  0.00000000000E+00  0.72450413872E+03  0.72450413872E+03  0.00000000000E+00 0. -1.
         22   -1    0    0    0    0 -0.00000000000E+00 -0.00000000000E+00 -0.34908546064E+03  0.34908546064E+03  0.00000000000E+00 0. -1.
        -24    2    1    2    0    0  0.39774562486E+01  0.52440064342E+02 -0.28469897503E+03  0.30586087027E+03  0.98648796611E+02 0.  0.
         25    2    1    2    0    0 -0.41198213563E+01 -0.98828195493E+02  0.76907313543E+02  0.17704796140E+03  0.12508901073E+03 0.  0.
         24    2    1    2    0    0  0.14236510762E+00  0.46388131152E+02  0.58321033957E+03  0.59068076769E+03  0.81348571944E+02 0.  0.
        -13    1    5    5    0    0  0.38400484629E+01 -0.15594600572E+02  0.30286260143E+02  0.34281118603E+02  0.00000000000E+00 0.  1.
         14    1    5    5    0    0 -0.36976833553E+01  0.61982731723E+02  0.55292407943E+03  0.55639964909E+03  0.00000000000E+00 0. -1.
         13    1    3    3    0    0 -0.32944891384E+02  0.59000093704E+02 -0.12806045314E+03  0.14479591356E+03  0.00000000000E+00 0. -1.
        -14    1    3    3    0    0  0.36922347632E+02 -0.65600293629E+01 -0.15663852189E+03  0.16106495671E+03  0.00000000000E+00 0.  1.
          5    1    4    4  501    0 -0.21466499934E+02  0.21999827416E+02 -0.28867027606E+01  0.31154590008E+02  0.41800000000E+01 0. -1.
         -5    1    4    4    0  501  0.17346678577E+02 -0.12082802291E+03  0.79794016304E+02  0.14589337139E+03  0.41800000000E+01 0. -1.
</event>
<event>
11    1  0.1002087E-008  0.1741673E+03  0.7561462E-02  0.1074461E+00
         22   -1    0    0    0    0  0.00000000000E+00  0.00000000000E+00  0.16868721316E+04  0.16868721316E+04  0.00000000000E+00 0. -1.
         22   -1    0    0    0    0 -0.00000000000E+00 -0.00000000000E+00 -0.16811309661E+04  0.16811309661E+04  0.00000000000E+00 0. -1.
        -24    2    1    2    0    0 -0.94167615282E+01 -0.12206785274E+03 -0.16349191600E+04  0.16411472743E+04  0.73583150707E+02 0.  0.
         25    2    1    2    0    0  0.58028722382E+02  0.61431760121E+02  0.97208441749E+02  0.17955060211E+03  0.12509094211E+03 0.  0.
         24    2    1    2    0    0 -0.48611960854E+02  0.60636092614E+02  0.15434518838E+04  0.15473052212E+04  0.76615088075E+02 0.  0.
        -13    1    5    5    0    0 -0.55941218394E+01 -0.18343645394E+02  0.28240143089E+03  0.28305185337E+03  0.00000000000E+00 0.  1.
         14    1    5    5    0    0 -0.43017839015E+02  0.78979738008E+02  0.12610504529E+04  0.12642533679E+04  0.00000000000E+00 0. -1.
         13    1    3    3    0    0 -0.88381823840E+01 -0.63032450492E+02 -0.12601493797E+04  0.12617557856E+04  0.00000000000E+00 0. -1.
        -14    1    3    3    0    0 -0.57857914421E+00 -0.59035402244E+02 -0.37476978031E+03  0.37939148871E+03  0.00000000000E+00 0.  1.
          5    1    4    4  501    0  0.16919203607E+01 -0.35095193436E+02  0.74860281932E+01  0.36166949207E+02  0.41800000000E+01 0. -1.
         -5    1    4    4    0  501  0.56336802021E+02  0.96526953557E+02  0.89722413555E+02  0.14338365290E+03  0.41800000000E+01 0. -1.
</event>
<event>
11    1  0.1002087E-008  0.1402471E+03  0.7561462E-02  0.1107283E+00
         22   -1    0    0    0    0  0.00000000000E+00  0.00000000000E+00  0.82739946605E+03  0.82739946605E+03  0.00000000000E+00 0. -1.
         22   -1    0    0    0    0 -0.00000000000E+00 -0.00000000000E+00 -0.48078185123E+03  0.48078185123E+03  0.00000000000E+00 0. -1.
         24    2    1    2    0    0  0.44018964097E+02  0.43274085540E+02 -0.38181131763E+03  0.39444251255E+03  0.77425433511E+02 0.  0.
         25    2    1    2    0    0 -0.81306051255E+02 -0.31184288061E+02 -0.25472606906E+02  0.15452940519E+03  0.12508936635E+03 0.  0.
        -24    2    1    2    0    0  0.37287087159E+02 -0.12089797479E+02  0.75390153936E+03  0.75920939954E+03  0.80590888024E+02 0.  0.
        -11    1    3    3    0    0 -0.20985344002E+02  0.13807690976E+02 -0.14317275213E+03  0.14535980856E+03  0.00000000000E+00 0.  1.
         12    1    3    3    0    0  0.65004308099E+02  0.29466394564E+02 -0.23863856550E+03  0.24908270399E+03  0.00000000000E+00 0. -1.
         13    1    5    5    0    0  0.27427863481E+02  0.27685234546E+01  0.72304953745E+03  0.72357486553E+03  0.00000000000E+00 0. -1.
        -14    1    5    5    0    0  0.98592236780E+01 -0.14858320934E+02  0.30852001902E+02  0.35634534007E+02  0.00000000000E+00 0.  1.
          5    1    4    4  501    0 -0.97406453864E+01 -0.59527690425E+02  0.21599944580E+02  0.64206355649E+02  0.41800000000E+01 0. -1.
         -5    1    4    4    0  501 -0.71565405869E+02  0.28343402364E+02 -0.47072551486E+02  0.90323049540E+02  0.41800000000E+01 0. -1.
</event>
<event>
11    1  0.1010674E-008  0.1482283E+03  0.7561462E-02  0.1098703E+00
         22   -1    0    0    0    0  0.00000000000E+00  0.00000000000E+00  0.19628988227E+04  0.19628988227E+04  0.00000000000E+00 0. -1.
         22   -1    0    0    0    0 -0.00000000000E+00 -0.00000000000E+00 -0.17289148022E+03  0.17289148022E+03  0.00000000000E+00 0. -1.
         24    2    1    2    0    0  0.80829401395E+01 -0.23730613628E+02 -0.12259554673E+03  0.15365713691E+03  0.89176071338E+02 0.  0.
         25    2    1    2    0    0 -0.85485309216E+02  0.38839782831E+02  0.15265513750E+03  0.21855815906E+03  0.12509121098E+03 0.  0.
        -24    2    1    2    0    0  0.77402369076E+02 -0.15109169203E+02  0.17599477517E+04  0.17635750069E+04  0.81001868479E+02 0.  0.
        -11    1    3    3    0    0 -0.64085811076E+01 -0.71027288485E+01  0.13077403658E+02  0.16202998344E+02  0.00000000000E+00 0.  1.
         12    1    3    3    0    0  0.14491521247E+02 -0.16627884779E+02 -0.13567295039E+03  0.13745413856E+03  0.00000000000E+00 0. -1.
         11    1    5    5    0    0 -0.55654101225E+01  0.55698957239E+01  0.74217578863E+03  0.74221755487E+03  0.00000000000E+00 0. -1.
        -12    1    5    5    0    0  0.82967779199E+02 -0.20679064926E+02  0.10177719631E+04  0.10213574521E+04  0.00000000000E+00 0.  1.
          5    1    4    4  501    0  0.37810669154E+01 -0.13767080554E+02  0.10212598022E+03  0.10320376548E+03  0.41800000000E+01 0.  1.
         -5    1    4    4    0  501 -0.89266376131E+02  0.52606863385E+02  0.50529157284E+02  0.11535439358E+03  0.41800000000E+01 0.  1.
</event>
<event>
11    1  0.1002087E-008  0.1313237E+03  0.7561462E-02  0.1117653E+00
         22   -1    0    0    0    0  0.00000000000E+00  0.00000000000E+00  0.41248458597E+03  0.41248458597E+03  0.00000000000E+00 0.  1.
         22   -1    0    0    0    0 -0.00000000000E+00 -0.00000000000E+00 -0.14746538301E+04  0.14746538301E+04  0.00000000000E+00 0.  1.
        -24    2    1    2    0    0 -0.32873878061E+02  0.23786958870E+02 -0.13355994783E+04  0.13386179796E+04  0.80159949813E+02 0.  0.
         25    2    1    2    0    0  0.13735272040E+02 -0.27985958186E+02 -0.10194767377E+03  0.16435518054E+03  0.12508967036E+03 0.  0.
         24    2    1    2    0    0  0.19138606021E+02  0.41989993163E+01  0.37537790795E+03  0.38416525592E+03  0.79312371308E+02 0.  0.
        -13    1    5    5    0    0  0.22542351616E+02  0.63893623646E+01  0.37839322885E+03  0.37911794630E+03  0.00000000000E+00 0.  1.
         14    1    5    5    0    0 -0.34037455946E+01 -0.21903630483E+01 -0.30153208933E+01  0.50473096245E+01  0.00000000000E+00 0. -1.
         13    1    3    3    0    0 -0.13338898037E+02  0.10246131481E+02 -0.49139254515E+02  0.51938191588E+02  0.00000000000E+00 0. -1.
        -14    1    3    3    0    0 -0.19534980024E+02  0.13540827389E+02 -0.12864602238E+04  0.12866797880E+04  0.00000000000E+00 0.  1.
          5    1    4    4  501    0  0.35278673193E+02  0.35984608071E+02 -0.77307264168E+02  0.92376199822E+02  0.41800000000E+01 0. -1.
         -5    1    4    4    0  501 -0.21543401153E+02 -0.63970566257E+02 -0.24640409597E+02  0.71978980721E+02  0.41800000000E+01 0. -1.
</event>
<event>
11    1  0.1002087E-008  0.5854592E+03  0.7561462E-02  0.9220535E-01
         22   -1    0    0    0    0  0.00000000000E+00  0.00000000000E+00  0.14067386166E+04  0.14067386166E+04  0.00000000000E+00 0.  1.
         22   -1    0    0    0    0 -0.00000000000E+00 -0.00000000000E+00 -0.32078651519E+03  0.32078651519E+03  0.00000000000E+00 0.  1.
         24    2    1    2    0    0  0.22180753293E+03  0.55832628124E+03  0.42410932176E+03  0.73971710930E+03  0.79911619897E+02 0.  0.
         25    2    1    2    0    0 -0.89720547912E+02 -0.54277910872E+03  0.43262263073E+03  0.71096289379E+03  0.12508780175E+03 0.  0.
        -24    2    1    2    0    0 -0.13208698502E+03 -0.15547172518E+02  0.22922014894E+03  0.27684512873E+03  0.80079101130E+02 0.  0.
        -11    1    3    3    0    0  0.20919262202E+03  0.46098121926E+03  0.37477110504E+03  0.62985603021E+03  0.00000000000E+00 0.  1.
         12    1    3    3    0    0  0.12614910909E+02  0.97345061980E+02  0.49338216722E+02  0.10986107909E+03  0.00000000000E+00 0. -1.
         13    1    5    5    0    0 -0.15077256991E+02  0.26695402881E+02  0.40091394897E+02  0.50470666314E+02  0.00000000000E+00 0. -1.
        -14    1    5    5    0    0 -0.11700972802E+03 -0.42242575399E+02  0.18912875404E+03  0.22637446241E+03  0.00000000000E+00 0.  1.
          5    1    4    4  501    0 -0.68576798632E+02 -0.46650050926E+03  0.41846973155E+03  0.63044420140E+03  0.41800000000E+01 0. -1.
         -5    1    4    4    0  501 -0.21143749280E+02 -0.76278599463E+02  0.14152899175E+02  0.80518692393E+02  0.41800000000E+01 0. -1.
</event>
<event>
11    1  0.1002087E-008  0.1777879E+03  0.7561462E-02  0.1071446E+00
         22   -1    0    0    0    0  0.00000000000E+00  0.00000000000E+00  0.15107501046E+04  0.15107501046E+04  0.00000000000E+00 0.  1.
         22   -1    0    0    0    0 -0.00000000000E+00 -0.00000000000E+00 -0.59635530320E+03  0.59635530320E+03  0.00000000000E+00 0.  1.
        -24    2    1    2    0    0 -0.27046110254E+02 -0.26020421663E+02 -0.54273304069E+03  0.54936519787E+03  0.76383327716E+02 0.  0.
         25    2    1    2    0    0  0.11979731325E+02 -0.10214526754E+03  0.98329667679E+02  0.18945729286E+03  0.12509265618E+03 0.  0.
         24    2    1    2    0    0  0.15066378928E+02  0.12816568920E+03  0.13587981744E+04  0.13682829170E+04  0.95980324623E+02 0.  0.
        -13    1    5    5    0    0  0.16234804094E+02  0.13354221974E+03  0.13548466854E+04  0.13615089549E+04  0.00000000000E+00 0.  1.
         14    1    5    5    0    0 -0.11684251657E+01 -0.53765305400E+01  0.39514889727E+01  0.67739621431E+01  0.00000000000E+00 0. -1.
         13    1    3    3    0    0 -0.27151552105E+02 -0.20280935499E+02 -0.83760529381E+02  0.90356789500E+02  0.00000000000E+00 0. -1.
        -14    1    3    3    0    0  0.10544185190E+00 -0.57394861631E+01 -0.45897251131E+03  0.45900840837E+03  0.00000000000E+00 0.  1.
          5    1    4    4  501    0  0.79099533806E+01 -0.89159616092E+02 -0.49882763980E+00  0.89608736925E+02  0.41800000000E+01 0. -1.
         -5    1    4    4    0  501  0.40697779445E+01 -0.12985651446E+02  0.98828495319E+02  0.99848555938E+02  0.41800000000E+01 0. -1.
</event>
<event>
11    1  0.1002087E-008  0.1616345E+03  0.7561462E-02  0.1085550E+00
         22   -1    0    0    0    0  0.00000000000E+00  0.00000000000E+00  0.64557627014E+03  0.64557627014E+03  0.00000000000E+00 0.  1.
         22   -1    0    0    0    0 -0.00000000000E+00 -0.00000000000E+00 -0.43090975766E+03  0.43090975766E+03  0.00000000000E+00 0.  1.
        -24    2    1    2    0    0 -0.53239535763E+02  0.55292862745E+01 -0.35747590639E+03  0.36931658117E+03  0.75767356451E+02 0.  0.
         25    2    1    2    0    0  0.66228036278E+02  0.95637185716E+02  0.63953299812E+02  0.18239888389E+03  0.12508678670E+03 0.  0.
         24    2    1    2    0    0 -0.12988500515E+02 -0.10116647199E+03  0.50818911906E+03  0.52477056273E+03  0.82003698575E+02 0.  0.
        -11    1    5    5    0    0 -0.68752250595E+01 -0.11528338495E+03  0.44935567884E+03  0.46395910775E+03  0.00000000000E+00 0.  1.
         12    1    5    5    0    0 -0.61132754558E+01  0.14116912958E+02  0.58833440221E+02  0.60811454978E+02  0.00000000000E+00 0. -1.
         13    1    3    3    0    0 -0.12527882305E+01 -0.99544207070E+01 -0.26617501441E+01  0.10380023304E+02  0.00000000000E+00 0. -1.
        -14    1    3    3    0    0 -0.51986747532E+02  0.15483706982E+02 -0.35481415625E+03  0.35893655787E+03  0.00000000000E+00 0.  1.
          5    1    4    4  501    0  0.23799798738E+02  0.32772689678E+02 -0.37707094372E+02  0.55495738347E+02  0.41800000000E+01 0.  1.
         -5    1    4    4    0  501  0.42428237540E+02  0.62864496038E+02  0.10166039418E+03  0.12690314554E+03  0.41800000000E+01 0.  1.
</event>
<event>
11    1  0.1035066E-008  0.1531666E+03  0.7561462E-02  0.1093686E+00
         22   -1    0    0    0    0  0.00000000000E+00  0.00000000000E+00  0.52373067604E+03  0.52373067604E+03  0.00000000000E+00 0.  1.
         22   -1    0    0    0    0 -0.00000000000E+00 -0.00000000000E+00 -0.43010673243E+03  0.43010673243E+03  0.00000000000E+00 0. -1.
        -24    2    1    2    0    0 -0.34176722841E+01  0.29771538968E+02 -0.26261025948E+03  0.27653170914E+03  0.81287223830E+02 0.  0.
         25    2    1    2    0    0  0.19554374803E+02  0.58474858154E+02 -0.12135945826E+03  0.18487244940E+03  0.12509205343E+03 0.  0.
         24    2    1    2    0    0 -0.16136702518E+02 -0.88246397122E+02  0.47759366135E+03  0.49243324994E+03  0.79667939049E+02 0.  0.
        -11    1    5    5    0    0 -0.13676520593E+01 -0.41146814310E+02  0.38769396407E+03  0.38987374953E+03  0.00000000000E+00 0.  1.
         12    1    5    5    0    0 -0.14769050459E+02 -0.47099582812E+02  0.89899697280E+02  0.10255950041E+03  0.00000000000E+00 0. -1.
         13    1    3    3    0    0 -0.13450726362E+02 -0.11950305967E+02 -0.19893412378E+03  0.19974613252E+03  0.00000000000E+00 0. -1.
        -14    1    3    3    0    0  0.10033054078E+02  0.41721844935E+02 -0.63676135699E+02  0.76785576617E+02  0.00000000000E+00 0.  1.
          5    1    4    4  501    0  0.93602831460E+01  0.29316328791E+02 -0.14338200365E+03  0.14670696441E+03  0.41800000000E+01 0.  1.
         -5    1    4    4    0  501  0.10194091657E+02  0.29158529363E+02  0.22022545396E+02  0.38165484997E+02  0.41800000000E+01 0.  1.
</event>
<event>
11    1  0.1002087E-008  0.1747967E+03  0.7561462E-02  0.1073931E+00
         22   -1    0    0    0    0  0.00000000000E+00  0.00000000000E+00  0.25407454398E+03  0.25407454398E+03  0.00000000000E+00 0. -1.
         22   -1    0    0    0    0 -0.00000000000E+00 -0.00000000000E+00 -0.67230934276E+03  0.67230934276E+03  0.00000000000E+00 0. -1.
        -24    2    1    2    0    0 -0.17640122571E+02  0.13005596499E+02 -0.40450006313E+03  0.41285809278E+03  0.79694317477E+02 0.  0.
         25    2    1    2    0    0 -0.76719856621E+02 -0.91243398980E+02 -0.20711348802E+03  0.26973238460E+03  0.12509303789E+03 0.  0.
         24    2    1    2    0    0  0.94359979192E+02  0.78237802481E+02  0.19337875236E+03  0.24379340936E+03  0.83755150118E+02 0.  0.
        -13    1    5    5    0    0  0.80728971364E+01  0.26282381670E+02  0.20477538468E+01  0.27570428909E+02  0.00000000000E+00 0.  1.
         14    1    5    5    0    0  0.86287082055E+02  0.51955420810E+02  0.19133099852E+03  0.21622298045E+03  0.00000000000E+00 0. -1.
         13    1    3    3    0    0 -0.25598167579E+01  0.34122303451E+02 -0.35780515240E+03  0.35943763206E+03  0.00000000000E+00 0. -1.
        -14    1    3    3    0    0 -0.15080305813E+02 -0.21116706952E+02 -0.46694910728E+02  0.53420460722E+02  0.00000000000E+00 0.  1.
          5    1    4    4  501    0  0.28481622054E+01 -0.17917151093E+02 -0.14234422149E+03  0.14355656071E+03  0.41800000000E+01 0.  1.
         -5    1    4    4    0  501 -0.79568018826E+02 -0.73326247887E+02 -0.64769266533E+02  0.12617582390E+03  0.41800000000E+01 0.  1.
</event>
<event>
11    1  0.1002087E-008  0.1382065E+03  0.7561462E-02  0.1109578E+00
         22   -1    0    0    0    0  0.00000000000E+00  0.00000000000E+00  0.64531855707E+03  0.64531855707E+03  0.00000000000E+00 0. -1.
         22   -1    0    0    0    0 -0.00000000000E+00 -0.00000000000E+00 -0.22562805765E+03  0.22562805765E+03  0.00000000000E+00 0.  1.
         24    2    1    2    0    0  0.25526302493E+01  0.20420286485E+00 -0.18152297804E+03  0.19882631587E+03  0.81084861143E+02 0.  0.
         25    2    1    2    0    0  0.55582678288E+02 -0.10923980872E+02  0.12496770263E+03  0.18567185516E+03  0.12509333961E+03 0.  0.
        -24    2    1    2    0    0 -0.58135308537E+02  0.10719778007E+02  0.47624577484E+03  0.48644844369E+03  0.79545097721E+02 0.  0.
        -13    1    3    3    0    0  0.12916745645E+02  0.30932735135E+02 -0.14964147834E+03  0.15335008464E+03  0.00000000000E+00 0.  1.
         14    1    3    3    0    0 -0.10364115396E+02 -0.30728532271E+02 -0.31881499702E+02  0.45476231228E+02  0.00000000000E+00 0. -1.
         11    1    5    5    0    0 -0.56112679444E+02 -0.15660384232E+01  0.46835600804E+03  0.47170799817E+03  0.00000000000E+00 0. -1.
        -12    1    5    5    0    0 -0.20226290933E+01  0.12285816430E+02  0.78897667988E+01  0.14740445514E+02  0.00000000000E+00 0.  1.
          5    1    4    4  501    0 -0.29268689336E+02 -0.84551489577E+00 -0.50772746480E+01  0.30010368021E+02  0.41800000000E+01 0.  1.
         -5    1    4    4    0  501  0.84851367624E+02 -0.10078465976E+02  0.13004497727E+03  0.15566148714E+03  0.41800000000E+01 0.  1.
</event>
<event>
11    1  0.1002087E-008  0.1809341E+03  0.7561462E-02  0.1068890E+00
         22   -1    0    0    0    0  0.00000000000E+00  0.00000000000E+00  0.12300951910E+04  0.12300951910E+04  0.00000000000E+00 0.  1.
         22   -1    0    0    0    0 -0.00000000000E+00 -0.00000000000E+00 -0.85026962602E+02  0.85026962602E+02  0.00000000000E+00 0. -1.
        -24    2    1    2    0    0 -0.91987072749E+02  0.96251697740E+02  0.74858243406E+02  0.17289123086E+03  0.81003766769E+02 0.  0.
         25    2    1    2    0    0  0.15439207871E+01 -0.15418361636E+03  0.29541617684E+03  0.35593942910E+03  0.12508872211E+03 0.  0.
         24    2    1    2    0    0  0.90443151962E+02  0.57931918616E+02  0.77479380820E+03  0.78629149369E+03  0.80079940737E+02 0.  0.
        -11    1    5    5    0    0  0.79271836122E+02  0.23592674251E+02  0.67718669900E+03  0.68221877986E+03  0.00000000000E+00 0.  1.
         12    1    5    5    0    0  0.11171315840E+02  0.34339244365E+02  0.97607109190E+02  0.10407271384E+03  0.00000000000E+00 0. -1.
         13    1    3    3    0    0 -0.11100629110E+02  0.36932909990E+02  0.60237633893E+02  0.71525074932E+02  0.00000000000E+00 0. -1.
        -14    1    3    3    0    0 -0.80886443638E+02  0.59318787750E+02  0.14620609513E+02  0.10136615593E+03  0.00000000000E+00 0.  1.
          5    1    4    4  501    0 -0.25584831734E+02 -0.13719621246E+03  0.29176579287E+03  0.32345345046E+03  0.41800000000E+01 0. -1.
         -5    1    4    4    0  501  0.27128752521E+02 -0.16987403894E+02  0.36503839735E+01  0.32485978631E+02  0.41800000000E+01 0. -1.
</event>
<event>
11    1  0.1002087E-008  0.1430732E+03  0.7561462E-02  0.1104174E+00
         22   -1    0    0    0    0  0.00000000000E+00  0.00000000000E+00  0.15325840174E+03  0.15325840174E+03  0.00000000000E+00 0.  1.
         22   -1    0    0    0    0 -0.00000000000E+00 -0.00000000000E+00 -0.27679927292E+04  0.27679927292E+04  0.00000000000E+00 0.  1.
         24    2    1    2    0    0 -0.19671842409E+02 -0.38821863077E+02 -0.25071124996E+04  0.25087622432E+04  0.79879840863E+02 0.  0.
         25    2    1    2    0    0 -0.41201422010E+02  0.71891784378E+02 -0.21338993228E+03  0.26084873998E+03  0.12506324846E+03 0.  0.
        -24    2    1    2    0    0  0.60873264419E+02 -0.33069921300E+02  0.10576810442E+03  0.15164014773E+03  0.83717790678E+02 0.  0.
        -11    1    3    3    0    0 -0.94780020026E+01 -0.18814279336E+01 -0.20566442824E+04  0.20566669824E+04  0.00000000000E+00 0.  1.
         12    1    3    3    0    0 -0.10193840406E+02 -0.36940435144E+02 -0.45046821719E+03  0.45209526079E+03  0.00000000000E+00 0. -1.
         13    1    5    5    0    0 -0.15233990480E+02  0.11998175217E+02  0.12341829753E+02  0.22985896462E+02  0.00000000000E+00 0. -1.
        -14    1    5    5    0    0  0.76107254899E+02 -0.45068096517E+02  0.93426274664E+02  0.12865425127E+03  0.00000000000E+00 0.  1.
          5    1    4    4  501    0  0.22905341373E+02  0.81423747193E+02 -0.13000398745E+03  0.15515473059E+03  0.41800000000E+01 0. -1.
         -5    1    4    4    0  501 -0.64106763383E+02 -0.95319628157E+01 -0.83385944826E+02  0.10569400939E+03  0.41800000000E+01 0. -1.
</event>
<event>
11    1  0.1002087E-008  0.2103502E+03  0.7561462E-02  0.1047437E+00
         22   -1    0    0    0    0  0.00000000000E+00  0.00000000000E+00  0.75467887383E+03  0.75467887383E+03  0.00000000000E+00 0.  1.
         22   -1    0    0    0    0 -0.00000000000E+00 -0.00000000000E+00 -0.99021866019E+03  0.99021866019E+03  0.00000000000E+00 0. -1.
         24    2    1    2    0    0 -0.30402750714E+02  0.22568168671E+02 -0.90626028825E+03  0.91036059792E+03  0.77556809494E+02 0.  0.
         25    2    1    2    0    0  0.18170665855E+03 -0.81596111861E+02  0.13984525156E+03  0.27364135446E+03  0.12509061216E+03 0.  0.
        -24    2    1    2    0    0 -0.15130390784E+03  0.59027943191E+02  0.53087525032E+03  0.56089558164E+03  0.79988446047E+02 0.  0.
        -13    1    3    3    0    0  0.49704691577E+01 -0.63304432736E+01 -0.95568201628E+01  0.12494514289E+02  0.00000000000E+00 0.  1.
         14    1    3    3    0    0 -0.35373219872E+02  0.28898611944E+02 -0.89670346808E+03  0.89786608363E+03  0.00000000000E+00 0. -1.
         11    1    5    5    0    0 -0.10618407517E+03  0.83765048018E+01  0.24625210597E+03  0.26830080758E+03  0.00000000000E+00 0. -1.
        -12    1    5    5    0    0 -0.45119832665E+02  0.50651438389E+02  0.28462314435E+03  0.29259477406E+03  0.00000000000E+00 0.  1.
          5    1    4    4  501    0  0.19175993719E+03 -0.58742390628E+02  0.14536521554E+03  0.24773183134E+03  0.41800000000E+01 0. -1.
         -5    1    4    4    0  501 -0.10053278643E+02 -0.22853721233E+02 -0.55199639822E+01  0.25909523115E+02  0.41800000000E+01 0. -1.
</event>
<event>
11    1  0.1002087E-008  0.1488175E+03  0.7561462E-02  0.1098093E+00
         22   -1    0    0    0    0  0.00000000000E+00  0.00000000000E+00  0.98577691904E+03  0.98577691904E+03  0.00000000000E+00 0. -1.
         22   -1    0    0    0    0 -0.00000000000E+00 -0.00000000000E+00 -0.20223203442E+03  0.20223203442E+03  0.00000000000E+00 0. -1.
         24    2    1    2    0    0 -0.55794594675E+02 -0.52129367172E+02 -0.14714417913E+03  0.18431937031E+03  0.80571167933E+02 0.  0.
         25    2    1    2    0    0  0.11885256101E+03  0.88118436639E+02  0.25829039801E+03  0.32288260732E+03  0.12509379788E+03 0.  0.
        -24    2    1    2    0    0 -0.63057966339E+02 -0.35989069467E+02  0.67239866573E+03  0.68080697584E+03  0.78145072994E+02 0.  0.
        -13    1    3    3    0    0  0.64773179524E+01 -0.20039619684E+02 -0.94156092525E+02  0.96482701893E+02  0.00000000000E+00 0.  1.
         14    1    3    3    0    0 -0.62271912627E+02 -0.32089747487E+02 -0.52988086602E+02  0.87836668413E+02  0.00000000000E+00 0. -1.
         11    1    5    5    0    0 -0.73359021251E+01 -0.20045015426E+02  0.46423164388E+03  0.46472210759E+03  0.00000000000E+00 0. -1.
        -12    1    5    5    0    0 -0.55722064214E+02 -0.15944054041E+02  0.20816702185E+03  0.21608486825E+03  0.00000000000E+00 0.  1.
          5    1    4    4  501    0  0.13703420810E+03  0.47720536276E+02  0.16664739354E+03  0.22100780517E+03  0.41800000000E+01 0. -1.
         -5    1    4    4    0  501 -0.18181647084E+02  0.40397900363E+02  0.91643004478E+02  0.10187480215E+03  0.41800000000E+01 0. -1.
</event>
<event>
11    1  0.1002087E-008  0.1491048E+03  0.7561462E-02  0.1097797E+00
         22   -1    0    0    0    0  0.00000000000E+00  0.00000000000E+00  0.14731030002E+04  0.14731030002E+04  0.00000000000E+00 0. -1.
         22   -1    0    0    0    0 -0.00000000000E+00 -0.00000000000E+00 -0.93521057571E+02  0.93521057571E+02  0.00000000000E+00 0.  1.
        -24    2    1    2    0    0 -0.27203556834E+02  0.84814396635E+01 -0.58156778283E+02  0.10306638133E+03  0.80177925751E+02 0.  0.
         25    2    1    2    0    0 -0.47969600147E+02  0.39532232570E+02  0.52601729916E+03  0.54424751792E+03  0.12508909542E+03 0.  0.
         24    2    1    2    0    0  0.75173156981E+02 -0.48013672234E+02  0.91172142177E+03  0.91931015854E+03  0.77064261673E+02 0.  0.
        -11    1    5    5    0    0  0.70588716727E+01 -0.27805648950E+01  0.54106191334E+01  0.93184767979E+01  0.00000000000E+00 0.  1.
         12    1    5    5    0    0  0.68114285309E+02 -0.45233107339E+02  0.90631080263E+03  0.90999168174E+03  0.00000000000E+00 0. -1.
         11    1    3    3    0    0 -0.40858336282E+02 -0.12290962737E+02 -0.32453115596E+01  0.42790226172E+02  0.00000000000E+00 0. -1.
        -12    1    3    3    0    0  0.13654779448E+02  0.20772402401E+02 -0.54911466723E+02  0.60276155161E+02  0.00000000000E+00 0.  1.
          5    1    4    4  501    0 -0.40207848589E+02  0.83101317632E+02  0.30040848795E+03  0.31430118057E+03  0.41800000000E+01 0.  1.
         -5    1    4    4    0  501 -0.77617515587E+01 -0.43569085062E+02  0.22560881121E+03  0.22994633734E+03  0.41800000000E+01 0.  1.
</event>
<event>
11    1  0.1002087E-008  0.1716643E+03  0.7561462E-02  0.1076592E+00
         22   -1    0    0    0    0  0.00000000000E+00  0.00000000000E+00  0.42672988989E+03  0.42672988989E+03  0.00000000000E+00 0.  1.
         22   -1    0    0    0    0 -0.00000000000E+00 -0.00000000000E+00 -0.10956797103E+04  0.10956797103E+04  0.00000000000E+00 0.  1.
         24    2    1    2    0    0  0.75205918908E+02 -0.14301135017E+02 -0.98953122765E+03  0.99569164424E+03  0.79808190202E+02 0.  0.
         25    2    1    2    0    0 -0.18022744729E+03 -0.42525575289E+01  0.50185381784E+02  0.22509129788E+03  0.12508997896E+03 0.  0.
        -24    2    1    2    0    0  0.10502152838E+03  0.18553692545E+02  0.27039602545E+03  0.30162665806E+03  0.80565931653E+02 0.  0.
        -13    1    3    3    0    0  0.83833173349E+02 -0.29208993334E+02 -0.90980937474E+03  0.91413033240E+03  0.00000000000E+00 0.  1.
         14    1    3    3    0    0 -0.86272544411E+01  0.14907858317E+02 -0.79721852907E+02  0.81561311844E+02  0.00000000000E+00 0. -1.
         11    1    5    5    0    0  0.42800774741E+01 -0.22863811269E+02  0.32356577774E+02  0.39849981860E+02  0.00000000000E+00 0. -1.
        -12    1    5    5    0    0  0.10074145091E+03  0.41417503815E+02  0.23803944768E+03  0.26177667620E+03  0.00000000000E+00 0.  1.
          5    1    4    4  501    0 -0.91503232256E+02 -0.64180085467E+02  0.18574315247E+02  0.11337725729E+03  0.41800000000E+01 0.  1.
         -5    1    4    4    0  501 -0.88724215032E+02  0.59927527939E+02  0.31611066537E+02  0.11171404059E+03  0.41800000000E+01 0.  1.
</event>
<event>
11    1  0.1002087E-008  0.1443901E+03  0.7561462E-02  0.1102753E+00
         22   -1    0    0    0    0  0.00000000000E+00  0.00000000000E+00  0.11166838259E+04  0.11166838259E+04  0.00000000000E+00 0.  1.
         22   -1    0    0    0    0 -0.00000000000E+00 -0.00000000000E+00 -0.25103076275E+03  0.25103076275E+03  0.00000000000E+00 0. -1.
        -24    2    1    2    0    0 -0.80266757362E+01  0.49507113453E+01 -0.13318474311E+03  0.15559016423E+03  0.79882328094E+02 0.  0.
         25    2    1    2    0    0  0.79631275830E+02 -0.11449607053E+02 -0.50666878414E+02  0.15712112639E+03  0.12509069589E+03 0.  0.
         24    2    1    2    0    0 -0.71604600094E+02  0.64988957073E+01  0.10495046846E+04  0.10550032980E+04  0.80015131817E+02 0.  0.
        -13    1    5    5    0    0 -0.45516842457E+02  0.16365271014E+02  0.96080706676E+03  0.96202381705E+03  0.00000000000E+00 0.  1.
         14    1    5    5    0    0 -0.26087757637E+02 -0.98663753062E+01  0.88697617862E+02  0.92979480933E+02  0.00000000000E+00 0. -1.
         11    1    3    3    0    0 -0.43997270780E+02  0.58414781981E+01 -0.70266798863E+02  0.83110202298E+02  0.00000000000E+00 0. -1.
        -12    1    3    3    0    0  0.35970595043E+02 -0.89076685283E+00 -0.62917944246E+02  0.72479961931E+02  0.00000000000E+00 0.  1.
          5    1    4    4  501    0  0.20431808386E+02  0.54464566110E+02 -0.85833549247E+01  0.58949080886E+02  0.41800000000E+01 0. -1.
         -5    1    4    4    0  501  0.59199467444E+02 -0.65914173163E+02 -0.42083523489E+02  0.98172045505E+02  0.41800000000E+01 0. -1.
</event>
<event>
11    1  0.1002087E-008  0.1297178E+03  0.7561462E-02  0.1119616E+00
         22   -1    0    0    0    0  0.00000000000E+00  0.00000000000E+00  0.84194339229E+03  0.84194339229E+03  0.00000000000E+00 0.  1.
         22   -1    0    0    0    0 -0.00000000000E+00 -0.00000000000E+00 -0.21559819376E+03  0.21559819376E+03  0.00000000000E+00 0.  1.
        -24    2    1    2    0    0 -0.12974063049E+02  0.31999199583E+02 -0.19040601223E+03  0.20941690931E+03  0.80054464730E+02 0.  0.
         25    2    1    2    0    0  0.33648577090E+02 -0.15291846690E+02  0.34635255117E+03  0.37009982406E+03  0.12509085797E+03 0.  0.
         24    2    1    2    0    0 -0.20674514042E+02 -0.16707352893E+02  0.47039865960E+03  0.47802485269E+03  0.80785454562E+02 0.  0.
        -11    1    5    5    0    0 -0.11801583684E+02 -0.44291828914E+02  0.38762769210E+03  0.39032841451E+03  0.00000000000E+00 0.  1.
         12    1    5    5    0    0 -0.88729303574E+01  0.27584476021E+02  0.82770967493E+02  0.87696438184E+02  0.00000000000E+00 0. -1.
         13    1    3    3    0    0 -0.26259480454E+02 -0.13829250284E+02 -0.30553368129E+02  0.42594797584E+02  0.00000000000E+00 0. -1.
        -14    1    3    3    0    0  0.13285417406E+02  0.45828449867E+02 -0.15985264410E+03  0.16682211172E+03  0.00000000000E+00 0.  1.
          5    1    4    4  501    0 -0.70318636994E+01  0.42352461673E+01 -0.83987009225E+01  0.12465752860E+02  0.41800000000E+01 0.  1.
         -5    1    4    4    0  501  0.40680440790E+02 -0.19527092857E+02  0.35475125209E+03  0.35763407120E+03  0.41800000000E+01 0.  1.
</event>
<event>
11    1  0.1002087E-008  0.4228563E+03  0.7561462E-02  0.9584627E-01
         22   -1    0    0    0    0  0.00000000000E+00  0.00000000000E+00  0.13146483287E+04  0.13146483287E+04  0.00000000000E+00 0.  1.
         22   -1    0    0    0    0 -0.00000000000E+00 -0.00000000000E+00 -0.73960859696E+03  0.73960859696E+03  0.00000000000E+00 0.  1.
        -24    2    1    2    0    0  0.16334913342E+03  0.35803135641E+03 -0.56397150782E+03  0.69244551437E+03  0.80916853555E+02 0.  0.
         25    2    1    2    0    0 -0.16465055635E+03 -0.50661325506E+03  0.68019961161E+03  0.87297579860E+03  0.12509371444E+03 0.  0.
         24    2    1    2    0    0  0.13014229355E+01  0.14858189866E+03  0.45881162794E+03  0.48883561268E+03  0.79836532846E+02 0.  0.
        -11    1    5    5    0    0  0.21612564554E+02  0.13496000727E+03  0.32125472013E+03  0.34912161450E+03  0.00000000000E+00 0.  1.
         12    1    5    5    0    0 -0.20311141619E+02  0.13621891391E+02  0.13755690781E+03  0.13971399817E+03  0.00000000000E+00 0. -1.
         11    1    3    3    0    0  0.77515165892E+02  0.15012395244E+03 -0.31105471976E+03  0.35397858795E+03  0.00000000000E+00 0. -1.
        -12    1    3    3    0    0  0.85833967528E+02  0.20790740396E+03 -0.25291678806E+03  0.33846692643E+03  0.00000000000E+00 0.  1.
          5    1    4    4  501    0 -0.76140153967E+01 -0.20848005359E+03  0.22876263421E+03  0.30963158945E+03  0.41800000000E+01 0.  1.
         -5    1    4    4    0  501 -0.15703654096E+03 -0.29813320147E+03  0.45143697740E+03  0.56334420915E+03  0.41800000000E+01 0.  1.
</event>
<event>
11    1  0.1002087E-008  0.1339137E+03  0.7561462E-02  0.1114552E+00
         22   -1    0    0    0    0  0.00000000000E+00  0.00000000000E+00  0.28711370351E+04  0.28711370351E+04  0.00000000000E+00 0. -1.
         22   -1    0    0    0    0 -0.00000000000E+00 -0.00000000000E+00 -0.30173407284E+02  0.30173407284E+02  0.00000000000E+00 0.  1.
        -24    2    1    2    0    0  0.50784078533E+01  0.45951645154E+02  0.77509870831E+02  0.11998193064E+03  0.79060354693E+02 0.  0.
         25    2    1    2    0    0  0.31642023608E+02 -0.59641523285E+02  0.62223513849E+03  0.63826510480E+03  0.12508975767E+03 0.  0.
         24    2    1    2    0    0 -0.36720431461E+02  0.13689878131E+02  0.21412186185E+04  0.21430634069E+04  0.79798440900E+02 0.  0.
        -13    1    5    5    0    0  0.20298051274E+02 -0.14349384147E+02  0.71005394126E+03  0.71048892687E+03  0.00000000000E+00 0.  1.
         14    1    5    5    0    0 -0.57018482735E+02  0.28039262278E+02  0.14311646772E+04  0.14325744800E+04  0.00000000000E+00 0. -1.
         13    1    3    3    0    0  0.26652536431E+02 -0.42704159334E+01  0.54219618291E+02  0.60566997268E+02  0.00000000000E+00 0. -1.
        -14    1    3    3    0    0 -0.21574128578E+02  0.50222061087E+02  0.23290252540E+02  0.59414933368E+02  0.00000000000E+00 0.  1.
          5    1    4    4  501    0  0.79590997215E+02 -0.37449565184E+02  0.34911295337E+03  0.36004794595E+03  0.41800000000E+01 0. -1.
         -5    1    4    4    0  501 -0.47948973607E+02 -0.22191958101E+02  0.27312218512E+03  0.27821715885E+03  0.41800000000E+01 0. -1.
</event>
<event>
11    1  0.1002087E-008  0.1595661E+03  0.7561462E-02  0.1087486E+00
         22   -1    0    0    0    0  0.00000000000E+00  0.00000000000E+00  0.27500943178E+03  0.27500943178E+03  0.00000000000E+00 0. -1.
         22   -1    0    0    0    0 -0.00000000000E+00 -0.00000000000E+00 -0.44092264783E+03  0.44092264783E+03  0.00000000000E+00 0.  1.
        -24    2    1    2    0    0  0.38102875634E+02 -0.89258501378E+02 -0.35083753793E+03  0.37326284147E+03  0.82578820530E+02 0.  0.
         25    2    1    2    0    0 -0.66505521964E+01  0.12968249466E+03  0.71018936256E+02  0.19379280987E+03  0.12510069778E+03 0.  0.
         24    2    1    2    0    0 -0.31452323438E+02 -0.40423993278E+02  0.11390538563E+03  0.14887642826E+03  0.81033364330E+02 0.  0.
        -11    1    5    5    0    0 -0.25790154125E+02 -0.38888704623E+02  0.13886601949E+02  0.48685738268E+02  0.00000000000E+00 0.  1.
         12    1    5    5    0    0 -0.56621693131E+01 -0.15352886556E+01  0.10001878368E+03  0.10019069000E+03  0.00000000000E+00 0. -1.
         11    1    3    3    0    0 -0.18946318575E+02 -0.17892309648E+01 -0.95823745621E+02  0.97695212574E+02  0.00000000000E+00 0. -1.
        -12    1    3    3    0    0  0.57049194210E+02 -0.87469270413E+02 -0.25501379231E+03  0.27556762890E+03  0.00000000000E+00 0.  1.
          5    1    4    4  501    0  0.45648027294E+02  0.37039376022E+02  0.64139068905E+02  0.87103101735E+02  0.41800000000E+01 0.  1.
         -5    1    4    4    0  501 -0.52298579491E+02  0.92643118635E+02  0.68798673516E+01  0.10668970813E+03  0.41800000000E+01 0.  1.
</event>
<event>
11    1  0.1002087E-008  0.1498234E+03  0.7561462E-02  0.1097059E+00
         22   -1    0    0    0    0  0.00000000000E+00  0.00000000000E+00  0.42860924649E+02  0.42860924649E+02  0.00000000000E+00 0. -1.
         22   -1    0    0    0    0 -0.00000000000E+00 -0.00000000000E+00 -0.11014564773E+04  0.11014564773E+04  0.00000000000E+00 0.  1.
        -24    2    1    2    0    0  0.36893636115E+02 -0.24759725008E+01 -0.39861879010E+03  0.40809610679E+03  0.79235230381E+02 0.  0.
         25    2    1    2    0    0 -0.58922276185E+02  0.79546176785E+02 -0.57058544637E+03  0.59246592720E+03  0.12509474173E+03 0.  0.
         24    2    1    2    0    0  0.22028640070E+02 -0.77070204284E+02 -0.89391316138E+02  0.14375536792E+03  0.79055177137E+02 0.  0.
        -11    1    5    5    0    0 -0.13420606659E+02 -0.23020612664E+02 -0.72068234200E+02  0.76836785925E+02  0.00000000000E+00 0.  1.
         12    1    5    5    0    0  0.35449246729E+02 -0.54049591620E+02 -0.17323081938E+02  0.66918581992E+02  0.00000000000E+00 0. -1.
         13    1    3    3    0    0 -0.86380222143E+01  0.16248915780E+02 -0.23933715887E+02  0.30190486050E+02  0.00000000000E+00 0. -1.
        -14    1    3    3    0    0  0.45531658329E+02 -0.18724888281E+02 -0.37468507421E+03  0.37790562074E+03  0.00000000000E+00 0.  1.
          5    1    4    4  501    0 -0.81895602499E+02  0.12190907147E+02 -0.22961551563E+03  0.24412346332E+03  0.41800000000E+01 0. -1.
         -5    1    4    4    0  501  0.22973326314E+02  0.67355269638E+02 -0.34096993074E+03  0.34834246387E+03  0.41800000000E+01 0. -1.
</event>
<event>
11    1  0.1002087E-008  0.1566494E+03  0.7561462E-02  0.1090272E+00
         22   -1    0    0    0    0  0.00000000000E+00  0.00000000000E+00  0.57842890403E+03  0.57842890403E+03  0.00000000000E+00 0. -1.
         22   -1    0    0    0    0 -0.00000000000E+00 -0.00000000000E+00 -0.60070665967E+03  0.60070665967E+03  0.00000000000E+00 0.  1.
        -24    2    1    2    0    0 -0.16106866289E+02  0.93350880470E+02 -0.52622505842E+03  0.54104788992E+03  0.82741700847E+02 0.  0.
         25    2    1    2    0    0 -0.71652368317E+01 -0.91086921971E+02  0.31077262744E+02  0.15799216840E+03  0.12509021163E+03 0.  0.
         24    2    1    2    0    0  0.23272103121E+02 -0.22639584995E+01  0.47287004003E+03  0.48009550537E+03  0.79617229422E+02 0.  0.
        -11    1    5    5    0    0  0.19154453807E+02 -0.19118354277E+02  0.49871276028E+02  0.56741067522E+02  0.00000000000E+00 0.  1.
         12    1    5    5    0    0  0.41176493132E+01  0.16854395777E+02  0.42299876401E+03  0.42335443785E+03  0.00000000000E+00 0. -1.
         11    1    3    3    0    0 -0.95337067786E+01 -0.14626331653E+02 -0.82436304980E+02  0.84264853417E+02  0.00000000000E+00 0. -1.
        -12    1    3    3    0    0 -0.65731595103E+01  0.10797721212E+03 -0.44378875344E+03  0.45678303651E+03  0.00000000000E+00 0.  1.
          5    1    4    4  501    0  0.19012499091E+02 -0.74648967859E+02 -0.35158447033E+02  0.84779315413E+02  0.41800000000E+01 0. -1.
         -5    1    4    4    0  501 -0.26177735923E+02 -0.16437954112E+02  0.66235709778E+02  0.73212852992E+02  0.41800000000E+01 0. -1.
</event>
<event>
11    1  0.1002087E-008  0.1514629E+03  0.7561462E-02  0.1095393E+00
         22   -1    0    0    0    0  0.00000000000E+00  0.00000000000E+00  0.53382319053E+03  0.53382319053E+03  0.00000000000E+00 0.  1.
         22   -1    0    0    0    0 -0.00000000000E+00 -0.00000000000E+00 -0.46528420904E+03  0.46528420904E+03  0.00000000000E+00 0. -1.
        -24    2    1    2    0    0 -0.59377387548E+02  0.58926911516E+02 -0.40834246448E+03  0.42559398416E+03  0.85957059070E+02 0.  0.
         25    2    1    2    0    0  0.97263675488E+02 -0.76054339706E+02  0.14197665042E+03  0.22594116516E+03  0.12509019023E+03 0.  0.
         24    2    1    2    0    0 -0.37886287940E+02  0.17127428190E+02  0.33490479554E+03  0.34757225025E+03  0.83165662717E+02 0.  0.
        -11    1    5    5    0    0 -0.36078914617E+02  0.43867406671E+02  0.28802775960E+03  0.29357456932E+03  0.00000000000E+00 0.  1.
         12    1    5    5    0    0 -0.18073733227E+01 -0.26739978481E+02  0.46877035943E+02  0.53997680934E+02  0.00000000000E+00 0. -1.
         13    1    3    3    0    0 -0.78301295333E+02  0.33408690382E+02 -0.33536346803E+03  0.34599983979E+03  0.00000000000E+00 0. -1.
        -14    1    3    3    0    0  0.18923907785E+02  0.25518221135E+02 -0.72978996446E+02  0.79594144370E+02  0.00000000000E+00 0.  1.
          5    1    4    4  501    0  0.12227285278E+03 -0.70011250993E+02  0.14170286520E+03  0.19987346046E+03  0.41800000000E+01 0.  1.
         -5    1    4    4    0  501 -0.25009177291E+02 -0.60430887138E+01  0.27378522227E+00  0.26067704700E+02  0.41800000000E+01 0.  1.
</event>
<event>
11    1  0.1002087E-008  0.1308256E+03  0.7561462E-02  0.1118259E+00
         22   -1    0    0    0    0  0.00000000000E+00  0.00000000000E+00  0.77554446751E+03  0.77554446751E+03  0.00000000000E+00 0. -1.
         22   -1    0    0    0    0 -0.00000000000E+00 -0.00000000000E+00 -0.93901509019E+03  0.93901509019E+03  0.00000000000E+00 0. -1.
        -24    2    1    2    0    0 -0.29916427035E+02  0.23642862638E+02 -0.91741355198E+03  0.92170985199E+03  0.80296004420E+02 0.  0.
         25    2    1    2    0    0  0.46806574996E+02 -0.43970686240E+02  0.30345589422E+03  0.33445163949E+03  0.12509253658E+03 0.  0.
         24    2    1    2    0    0 -0.16890147961E+02  0.20327823602E+02  0.45048703509E+03  0.45839806623E+03  0.80571215864E+02 0.  0.
        -13    1    5    5    0    0 -0.17620016950E+01  0.25659246181E+01 -0.29930364994E+01  0.43182040950E+01  0.00000000000E+00 0.  1.
         14    1    5    5    0    0 -0.15128146266E+02  0.17761898984E+02  0.45348007159E+03  0.45407986213E+03  0.00000000000E+00 0. -1.
         11    1    3    3    0    0 -0.38660861270E+02  0.22900524881E+02 -0.90691048128E+03  0.90802297179E+03  0.00000000000E+00 0. -1.
        -12    1    3    3    0    0  0.87444342349E+01  0.74233775763E+00 -0.10503070702E+02  0.13686880200E+02  0.00000000000E+00 0.  1.
          5    1    4    4  501    0 -0.41753775424E+02 -0.28147447099E+02  0.11216922855E+03  0.12302465108E+03  0.41800000000E+01 0.  1.
         -5    1    4    4    0  501  0.88560350420E+02 -0.15823239141E+02  0.19128666567E+03  0.21142698840E+03  0.41800000000E+01 0.  1.
</event>
<event>
11    1  0.1002087E-008  0.1593476E+03  0.7561462E-02  0.1087693E+00
         22   -1    0    0    0    0  0.00000000000E+00  0.00000000000E+00  0.72876720682E+03  0.72876720682E+03  0.00000000000E+00 0. -1.
         22   -1    0    0    0    0 -0.00000000000E+00 -0.00000000000E+00 -0.29125707608E+03  0.29125707608E+03  0.00000000000E+00 0.  1.
        -24    2    1    2    0    0  0.52612667433E+02  0.84444247960E+02 -0.23879687982E+03  0.27085253706E+03  0.80238539573E+02 0.  0.
         25    2    1    2    0    0 -0.17529074612E+02 -0.93967858780E+02  0.15638936792E+03  0.22190595757E+03  0.12508953860E+03 0.  0.
         24    2    1    2    0    0 -0.35083592821E+02  0.95236108203E+01  0.51991764263E+03  0.52726578826E+03  0.79832942465E+02 0.  0.
        -13    1    5    5    0    0 -0.26125402594E+02  0.27524618741E+02  0.10145181956E+03  0.10831718695E+03  0.00000000000E+00 0.  1.
         14    1    5    5    0    0 -0.89581902273E+01 -0.18001007920E+02  0.41846582308E+03  0.41894860131E+03  0.00000000000E+00 0. -1.
         11    1    3    3    0    0 -0.44154649738E+00 -0.13653945159E+02 -0.12280108124E+02  0.18369165393E+02  0.00000000000E+00 0. -1.
        -12    1    3    3    0    0  0.53054213930E+02  0.98098193119E+02 -0.22651677170E+03  0.25248337167E+03  0.00000000000E+00 0.  1.
          5    1    4    4  501    0  0.40366591483E+02  0.49767961479E+01  0.27051640537E+02  0.49025440984E+02  0.41800000000E+01 0.  1.
         -5    1    4    4    0  501 -0.57895666095E+02 -0.98944654928E+02  0.12933772738E+03  0.17288051659E+03  0.41800000000E+01 0.  1.
</event>
<event>
11    1  0.1002087E-008  0.1368241E+03  0.7561462E-02  0.1111157E+00
         22   -1    0    0    0    0  0.00000000000E+00  0.00000000000E+00  0.17787255340E+03  0.17787255340E+03  0.00000000000E+00 0. -1.
         22   -1    0    0    0    0 -0.00000000000E+00 -0.00000000000E+00 -0.15336398672E+04  0.15336398672E+04  0.00000000000E+00 0. -1.
        -24    2    1    2    0    0  0.61553163229E+01 -0.57415916981E+02 -0.13840876813E+04  0.13877035249E+04  0.81779508772E+02 0.  0.
         25    2    1    2    0    0  0.28237092241E+02  0.17372224186E+02 -0.99943467646E+02  0.16351264806E+03  0.12509421170E+03 0.  0.
         24    2    1    2    0    0 -0.34392408564E+02  0.40043692795E+02  0.12826383509E+03  0.16029624769E+03  0.80355090267E+02 0.  0.
        -11    1    5    5    0    0  0.53962560168E+01  0.17529725739E+02 -0.53270484798E+01  0.19099432164E+02  0.00000000000E+00 0.  1.
         12    1    5    5    0    0 -0.39788664581E+02  0.22513967056E+02  0.13359088357E+03  0.14119681552E+03  0.00000000000E+00 0. -1.
         13    1    3    3    0    0 -0.14600442158E+02 -0.72687760920E+02 -0.98703937167E+03  0.98981988499E+03  0.00000000000E+00 0. -1.
        -14    1    3    3    0    0  0.20755758481E+02  0.15271843939E+02 -0.39704830958E+03  0.39788363986E+03  0.00000000000E+00 0.  1.
          5    1    4    4  501    0 -0.45945936195E+02  0.11214509913E+02 -0.13503669457E+02  0.49362088431E+02  0.41800000000E+01 0. -1.
         -5    1    4    4    0  501  0.74183028437E+02  0.61577142729E+01 -0.86439798189E+02  0.11415055963E+03  0.41800000000E+01 0. -1.
</event>
<event>
11    1  0.1002087E-008  0.4919318E+03  0.7561462E-02  0.9411733E-01
         22   -1    0    0    0    0  0.00000000000E+00  0.00000000000E+00  0.11169766429E+04  0.11169766429E+04  0.00000000000E+00 0.  1.
         22   -1    0    0    0    0 -0.00000000000E+00 -0.00000000000E+00 -0.59648151407E+03  0.59648151407E+03  0.00000000000E+00 0.  1.
        -24    2    1    2    0    0  0.12398892959E+03 -0.41557662543E+02 -0.13514876811E+03  0.20384143387E+03  0.78650153628E+02 0.  0.
         25    2    1    2    0    0 -0.57890849174E+03  0.80915834525E+02 -0.11649512641E+03  0.60901617346E+03  0.12508865244E+03 0.  0.
         24    2    1    2    0    0  0.45491956215E+03 -0.39358171982E+02  0.77213902338E+03  0.90060054966E+03  0.79886199726E+02 0.  0.
        -11    1    5    5    0    0  0.18165217052E+03  0.22885909277E+02  0.31808854603E+03  0.36701716447E+03  0.00000000000E+00 0.  1.
         12    1    5    5    0    0  0.27326739162E+03 -0.62244081259E+02  0.45405047734E+03  0.53358338519E+03  0.00000000000E+00 0. -1.
         11    1    3    3    0    0  0.85793694097E+02 -0.64487926931E+02 -0.86226124542E+02  0.13767423586E+03  0.00000000000E+00 0. -1.
        -12    1    3    3    0    0  0.38195235494E+02  0.22930264387E+02 -0.48922643567E+02  0.66167198013E+02  0.00000000000E+00 0.  1.
          5    1    4    4  501    0 -0.48614069283E+03  0.46301376735E+02 -0.52790070753E+02  0.49120347585E+03  0.41800000000E+01 0.  1.
         -5    1    4    4    0  501 -0.92767798908E+02  0.34614457790E+02 -0.63705055652E+02  0.11781269761E+03  0.41800000000E+01 0.  1.
</event>
<event>
11    1  0.1002087E-008  0.2565206E+03  0.7561462E-02  0.1020482E+00
         22   -1    0    0    0    0  0.00000000000E+00  0.00000000000E+00  0.31859615011E+04  0.31859615011E+04  0.00000000000E+00 0.  1.
         22   -1    0    0    0    0 -0.00000000000E+00 -0.00000000000E+00 -0.54045470573E+03  0.54045470573E+03  0.00000000000E+00 0.  1.
         24    2    1    2    0    0  0.10736568537E+03 -0.19722364588E+03 -0.45404453321E+03  0.51298915911E+03  0.81097979845E+02 0.  0.
         25    2    1    2    0    0 -0.18491696170E+03  0.14504279409E+03  0.26460706092E+03  0.37536133719E+03  0.12509013522E+03 0.  0.
        -24    2    1    2    0    0  0.77551276325E+02  0.52180851797E+02  0.28349442676E+04  0.28380657105E+04  0.94715018722E+02 0.  0.
        -11    1    3    3    0    0  0.15233804568E+02 -0.95398330882E+02 -0.23963600911E+03  0.25837632864E+03  0.00000000000E+00 0.  1.
         12    1    3    3    0    0  0.92131880803E+02 -0.10182531500E+03 -0.21440852410E+03  0.25461283048E+03  0.00000000000E+00 0. -1.
         13    1    5    5    0    0  0.71252531359E+02  0.60513485001E+02  0.14157131151E+04  0.14187961197E+04  0.00000000000E+00 0. -1.
        -14    1    5    5    0    0  0.62987449657E+01 -0.83326332043E+01  0.14192311525E+04  0.14192695908E+04  0.00000000000E+00 0.  1.
          5    1    4    4  501    0 -0.11589787111E+03  0.10250920959E+03  0.81196112954E+02  0.17478768760E+03  0.41800000000E+01 0. -1.
         -5    1    4    4    0  501 -0.69019090584E+02  0.42533584501E+02  0.18341094796E+03  0.20057364959E+03  0.41800000000E+01 0. -1.
</event>
<event>
11    1  0.1002087E-008  0.2306189E+03  0.7561462E-02  0.1034762E+00
         22   -1    0    0    0    0  0.00000000000E+00  0.00000000000E+00  0.89371694686E+03  0.89371694686E+03  0.00000000000E+00 0. -1.
         22   -1    0    0    0    0 -0.00000000000E+00 -0.00000000000E+00 -0.14690457217E+03  0.14690457217E+03  0.00000000000E+00 0.  1.
        -24    2    1    2    0    0 -0.12683615819E+03  0.72867598121E+02  0.64713199464E+01  0.16714442614E+03  0.80611930421E+02 0.  0.
         25    2    1    2    0    0 -0.12124136819E+03 -0.93916511517E+02  0.25865013572E+03  0.32568021799E+03  0.12509169112E+03 0.  0.
         24    2    1    2    0    0  0.24807752638E+03  0.21048913396E+02  0.48169091903E+03  0.54779687490E+03  0.77908656901E+02 0.  0.
        -11    1    5    5    0    0  0.24632396510E+03  0.23258578744E+02  0.43054875058E+03  0.49657696674E+03  0.00000000000E+00 0.  1.
         12    1    5    5    0    0  0.17535612816E+01 -0.22096653481E+01  0.51142168451E+02  0.51219908161E+02  0.00000000000E+00 0. -1.
         13    1    3    3    0    0 -0.93178677407E+01  0.41701997737E+02  0.14946106341E+02  0.45268812324E+02  0.00000000000E+00 0. -1.
        -14    1    3    3    0    0 -0.11751829045E+03  0.31165600384E+02 -0.84747863946E+01  0.12187561382E+03  0.00000000000E+00 0.  1.
          5    1    4    4  501    0  0.10183201530E+02 -0.61461421885E+02  0.78918186516E+02  0.10063178691E+03  0.41800000000E+01 0.  1.
         -5    1    4    4    0  501 -0.13142456972E+03 -0.32455089632E+02  0.17973194920E+03  0.22504843108E+03  0.41800000000E+01 0.  1.
</event>
<event>
11    1  0.1002087E-008  0.1467305E+03  0.7561462E-02  0.1100267E+00
         22   -1    0    0    0    0  0.00000000000E+00  0.00000000000E+00  0.45588203348E+03  0.45588203348E+03  0.00000000000E+00 0. -1.
         22   -1    0    0    0    0 -0.00000000000E+00 -0.00000000000E+00 -0.10247605523E+04  0.10247605523E+04  0.00000000000E+00 0. -1.
        -24    2    1    2    0    0 -0.23093663264E+02 -0.92283024836E+00 -0.92513332885E+03  0.92891238529E+03  0.80451069007E+02 0.  0.
         25    2    1    2    0    0  0.22609576196E+02  0.77524435060E+02 -0.27987613230E+02  0.15150254755E+03  0.12509390254E+03 0.  0.
         24    2    1    2    0    0  0.48408706888E+00 -0.76601604812E+02  0.38424242324E+03  0.40022765295E+03  0.81681663619E+02 0.  0.
        -11    1    5    5    0    0  0.23624396426E+02 -0.21721735440E+02  0.42085678662E+02  0.52925893904E+02  0.00000000000E+00 0.  1.
         12    1    5    5    0    0 -0.23140309357E+02 -0.54879869372E+02  0.34215674458E+03  0.34730175905E+03  0.00000000000E+00 0. -1.
         13    1    3    3    0    0 -0.34811059480E+02 -0.29894337608E+02 -0.71466430549E+03  0.71613584663E+03  0.00000000000E+00 0. -1.
        -14    1    3    3    0    0  0.11717396216E+02  0.28971507359E+02 -0.21046902336E+03  0.21277653866E+03  0.00000000000E+00 0.  1.
          5    1    4    4  501    0 -0.84708194776E+01  0.20015425260E+02 -0.70179370833E+02  0.73586605584E+02  0.41800000000E+01 0.  1.
         -5    1    4    4    0  501  0.31080395673E+02  0.57509009801E+02  0.42191757602E+02  0.77915941970E+02  0.41800000000E+01 0.  1.
</event>
<event>
11    1  0.1002087E-008  0.1374226E+03  0.7561462E-02  0.1110471E+00
         22   -1    0    0    0    0  0.00000000000E+00  0.00000000000E+00  0.23616032845E+03  0.23616032845E+03  0.00000000000E+00 0.  1.
         22   -1    0    0    0    0 -0.00000000000E+00 -0.00000000000E+00 -0.29864010814E+03  0.29864010814E+03  0.00000000000E+00 0.  1.
         24    2    1    2    0    0  0.42321766606E+02 -0.34079817538E+02 -0.19623419369E+03  0.21905312188E+03  0.80770325856E+02 0.  0.
         25    2    1    2    0    0 -0.30971968240E+02  0.74877356376E+02 -0.55756209132E+01  0.14915109011E+03  0.12509627820E+03 0.  0.
        -24    2    1    2    0    0 -0.11349798366E+02 -0.40797538838E+02  0.13933003492E+03  0.16659622459E+03  0.80920864540E+02 0.  0.
        -13    1    3    3    0    0  0.29969802228E+02 -0.23422660475E+02 -0.19891608400E+03  0.20252016824E+03  0.00000000000E+00 0.  1.
         14    1    3    3    0    0  0.12351964378E+02 -0.10657157063E+02  0.26818903028E+01  0.16532953646E+02  0.00000000000E+00 0. -1.
         13    1    5    5    0    0 -0.10361996964E+02  0.63788039146E+01 -0.61650451897E+01  0.13640670902E+02  0.00000000000E+00 0. -1.
        -14    1    5    5    0    0 -0.98780140245E+00 -0.47176342753E+02  0.14549508011E+03  0.15295555369E+03  0.00000000000E+00 0.  1.
          5    1    4    4  501    0  0.40260794576E+02 -0.62976300793E+01 -0.20312176940E+01  0.41014509260E+02  0.41800000000E+01 0.  1.
         -5    1    4    4    0  501 -0.71232762816E+02  0.81174986456E+02 -0.35444032192E+01  0.10813658085E+03  0.41800000000E+01 0.  1.
</event>
<event>
11    1  0.1002087E-008  0.8613655E+03  0.7561462E-02  0.8823358E-01
         22   -1    0    0    0    0  0.00000000000E+00  0.00000000000E+00  0.13630021186E+04  0.13630021186E+04  0.00000000000E+00 0.  1.
         22   -1    0    0    0    0 -0.00000000000E+00 -0.00000000000E+00 -0.78899623112E+03  0.78899623112E+03  0.00000000000E+00 0. -1.
        -24    2    1    2    0    0  0.29241438245E+03  0.81843557945E+03 -0.20988519963E+02  0.87352713318E+03  0.85241806972E+02 0.  0.
         25    2    1    2    0    0 -0.24949889162E+03 -0.79346578671E+03  0.18959776718E+03  0.86222495495E+03  0.12508760137E+03 0.  0.
         24    2    1    2    0    0 -0.42915490826E+02 -0.24969792734E+02  0.40539664022E+03  0.41624626155E+03  0.80307437046E+02 0.  0.
        -11    1    5    5    0    0 -0.28167651497E+02 -0.42757676284E+02  0.37274826960E+03  0.37624846573E+03  0.00000000000E+00 0.  1.
         12    1    5    5    0    0 -0.14747839329E+02  0.17787883550E+02  0.32648370625E+02  0.39997795821E+02  0.00000000000E+00 0. -1.
         13    1    3    3    0    0  0.43661653363E+02  0.23223593651E+03  0.20935098425E+01  0.23631388653E+03  0.00000000000E+00 0. -1.
        -14    1    3    3    0    0  0.24875272909E+03  0.58619964294E+03 -0.23082029805E+02  0.63721324665E+03  0.00000000000E+00 0.  1.
          5    1    4    4  501    0 -0.20676604685E+03 -0.70983395293E+03  0.20434283717E+03  0.76706577708E+03  0.41800000000E+01 0. -1.
         -5    1    4    4    0  501 -0.42732844773E+02 -0.83631833787E+02 -0.14745069992E+02  0.95159177876E+02  0.41800000000E+01 0. -1.
</event>
<event>
11    1  0.1002087E-008  0.1530568E+03  0.7561462E-02  0.1093796E+00
         22   -1    0    0    0    0  0.00000000000E+00  0.00000000000E+00  0.82014637449E+03  0.82014637449E+03  0.00000000000E+00 0.  1.
         22   -1    0    0    0    0 -0.00000000000E+00 -0.00000000000E+00 -0.21998988006E+03  0.21998988006E+03  0.00000000000E+00 0.  1.
        -24    2    1    2    0    0  0.11394945366E+02  0.91119974541E+02 -0.15022610823E+03  0.19163897354E+03  0.75663188188E+02 0.  0.
         25    2    1    2    0    0  0.24784372250E+02 -0.71144347022E+02  0.69467418178E+02  0.16166075036E+03  0.12503076741E+03 0.  0.
         24    2    1    2    0    0 -0.36179317615E+02 -0.19975627519E+02  0.68091518448E+03  0.68683653065E+03  0.79943496681E+02 0.  0.
        -11    1    5    5    0    0 -0.32359603565E+02 -0.49731459804E+02  0.48990089807E+03  0.49348075136E+03  0.00000000000E+00 0.  1.
         12    1    5    5    0    0 -0.38197140507E+01  0.29755832285E+02  0.19101428641E+03  0.19335577929E+03  0.00000000000E+00 0. -1.
         11    1    3    3    0    0  0.44749187634E+01  0.23702339146E+02  0.27941848880E+01  0.24282364961E+02  0.00000000000E+00 0. -1.
        -12    1    3    3    0    0  0.69200266025E+01  0.67417635396E+02 -0.15302029312E+03  0.16735660858E+03  0.00000000000E+00 0.  1.
          5    1    4    4  501    0 -0.41716268866E+02 -0.57464540065E+02  0.59851331187E+02  0.92962759737E+02  0.41800000000E+01 0.  1.
         -5    1    4    4    0  501  0.66500641115E+02 -0.13679806957E+02  0.96160869909E+01  0.68697990626E+02  0.41800000000E+01 0.  1.
</event>
<event>
11    1  0.1002087E-008  0.1375977E+03  0.7561462E-02  0.1110271E+00
         22   -1    0    0    0    0  0.00000000000E+00  0.00000000000E+00  0.31197825181E+03  0.31197825181E+03  0.00000000000E+00 0.  1.
         22   -1    0    0    0    0 -0.00000000000E+00 -0.00000000000E+00 -0.58572124530E+03  0.58572124530E+03  0.00000000000E+00 0. -1.
        -24    2    1    2    0    0 -0.57892161623E+02 -0.28669462962E+02 -0.45820500276E+03  0.46971876698E+03  0.80687390642E+02 0.  0.
         25    2    1    2    0    0  0.19224327039E+02 -0.13018359218E+02 -0.76503036033E+02  0.14844969881E+03  0.12508215751E+03 0.  0.
         24    2    1    2    0    0  0.38667834584E+02  0.41687822180E+02  0.26096504531E+03  0.27953103133E+03  0.82472823742E+02 0.  0.
        -11    1    5    5    0    0  0.62840505239E+02  0.16788417010E+02  0.15755576492E+03  0.17045409676E+03  0.00000000000E+00 0.  1.
         12    1    5    5    0    0 -0.24172670655E+02  0.24899405170E+02  0.10340928039E+03  0.10907693457E+03  0.00000000000E+00 0. -1.
         13    1    3    3    0    0  0.29451986824E+01 -0.45071627148E+01 -0.27700460040E+03  0.27705692078E+03  0.00000000000E+00 0. -1.
        -14    1    3    3    0    0 -0.60837360305E+02 -0.24162300247E+02 -0.18120040237E+03  0.19266184620E+03  0.00000000000E+00 0.  1.
          5    1    4    4  501    0 -0.48571609277E+02 -0.67280663393E+01 -0.47442664893E+01  0.49441364958E+02  0.41800000000E+01 0. -1.
         -5    1    4    4    0  501  0.67795936316E+02 -0.62902928788E+01 -0.71758769543E+02  0.99008333850E+02  0.41800000000E+01 0. -1.
</event>
<event>
11    1  0.1002087E-008  0.1367550E+03  0.7561462E-02  0.1111237E+00
         22   -1    0    0    0    0  0.00000000000E+00  0.00000000000E+00  0.41767150873E+03  0.41767150873E+03  0.00000000000E+00 0. -1.
         22   -1    0    0    0    0 -0.00000000000E+00 -0.00000000000E+00 -0.93648006102E+03  0.93648006102E+03  0.00000000000E+00 0.  1.
        -24    2    1    2    0    0  0.27656821583E+02 -0.21619988152E+02 -0.77626615069E+03  0.78086384086E+03  0.76986216920E+02 0.  0.
         25    2    1    2    0    0 -0.70622263089E+02 -0.12627328396E+02 -0.11767104534E+03  0.18611965943E+03  0.12508836576E+03 0.  0.
         24    2    1    2    0    0  0.42965441507E+02  0.34247316548E+02  0.37512864374E+03  0.38716806946E+03  0.78477428615E+02 0.  0.
        -11    1    5    5    0    0  0.57511283988E+01  0.38048770062E+02  0.71089230570E+02  0.80836025905E+02  0.00000000000E+00 0.  1.
         12    1    5    5    0    0  0.37214313108E+02 -0.38014535144E+01  0.30403941317E+03  0.30633204355E+03  0.00000000000E+00 0. -1.
         13    1    3    3    0    0 -0.21706678584E+02 -0.19062233290E+02 -0.15757146135E+03  0.16019773427E+03  0.00000000000E+00 0. -1.
        -14    1    3    3    0    0  0.49363500167E+02 -0.25577548615E+01 -0.61869468934E+03  0.62066610660E+03  0.00000000000E+00 0.  1.
          5    1    4    4  501    0 -0.41103213934E+02 -0.53252888018E+02 -0.11781052347E+03  0.13572816995E+03  0.41800000000E+01 0. -1.
         -5    1    4    4    0  501 -0.29519049156E+02  0.40625559622E+02  0.13947812814E+00  0.50391489478E+02  0.41800000000E+01 0. -1.
</event>
<event>
11    1  0.1002087E-008  0.1450895E+03  0.7561462E-02  0.1102005E+00
         22   -1    0    0    0    0  0.00000000000E+00  0.00000000000E+00  0.70516420470E+03  0.70516420470E+03  0.00000000000E+00 0. -1.
         22   -1    0    0    0    0 -0.00000000000E+00 -0.00000000000E+00 -0.36748530438E+03  0.36748530438E+03  0.00000000000E+00 0.  1.
         24    2    1    2    0    0 -0.49235551970E+02  0.53483808489E+02 -0.32513195278E+03  0.34257679522E+03  0.79771025791E+02 0.  0.
         25    2    1    2    0    0  0.44997069339E+02 -0.84537951062E+02  0.17795740258E+03  0.23767198074E+03  0.12509089447E+03 0.  0.
        -24    2    1    2    0    0  0.42384826310E+01  0.31054142574E+02  0.48485345052E+03  0.49240073313E+03  0.79958045230E+02 0.  0.
        -13    1    3    3    0    0 -0.36902214650E+02  0.61899908348E+02 -0.31793779924E+03  0.32600278570E+03  0.00000000000E+00 0.  1.
         14    1    3    3    0    0 -0.12333337320E+02 -0.84160998598E+01 -0.71941535377E+01  0.16574009515E+02  0.00000000000E+00 0. -1.
         11    1    5    5    0    0 -0.41564658976E+01  0.12448634682E+02  0.46022992980E+03  0.46041702075E+03  0.00000000000E+00 0. -1.
        -12    1    5    5    0    0  0.83949485286E+01  0.18605507892E+02  0.24623520723E+02  0.31983712378E+02  0.00000000000E+00 0.  1.
          5    1    4    4  501    0  0.67168960305E+02 -0.47985717360E+02  0.37445650722E+02  0.90741101255E+02  0.41800000000E+01 0. -1.
         -5    1    4    4    0  501 -0.22171890966E+02 -0.36552233703E+02  0.14051175185E+03  0.14693087949E+03  0.41800000000E+01 0. -1.
</event>
<event>
11    1  0.1002087E-008  0.1665784E+03  0.7561462E-02  0.1081048E+00
         22   -1    0    0    0    0  0.00000000000E+00  0.00000000000E+00  0.52831404761E+03  0.52831404761E+03  0.00000000000E+00 0. -1.
         22   -1    0    0    0    0 -0.00000000000E+00 -0.00000000000E+00 -0.42270503272E+03  0.42270503272E+03  0.00000000000E+00 0. -1.
         24    2    1    2    0    0 -0.87111735451E+02 -0.67925348351E+02 -0.36665386988E+03  0.39152767255E+03  0.81587687028E+02 0.  0.
         25    2    1    2    0    0  0.10794266630E+03  0.27997877017E+02  0.15337069158E+03  0.22717092085E+03  0.12509419619E+03 0.  0.
        -24    2    1    2    0    0 -0.20830930847E+02  0.39927471334E+02  0.31889219319E+03  0.33232048692E+03  0.81954527062E+02 0.  0.
        -13    1    3    3    0    0 -0.97214697642E+01 -0.30820366325E+02 -0.29963427132E+02  0.44070499433E+02  0.00000000000E+00 0.  1.
         14    1    3    3    0    0 -0.77390265687E+02 -0.37104982026E+02 -0.33669044275E+03  0.34745717312E+03  0.00000000000E+00 0. -1.
         13    1    5    5    0    0 -0.28102033880E+02  0.25278854434E+02  0.31247453781E+03  0.31475241312E+03  0.00000000000E+00 0. -1.
        -14    1    5    5    0    0  0.72711030326E+01  0.14648616900E+02  0.64176553786E+01  0.17568073797E+02  0.00000000000E+00 0.  1.
          5    1    4    4  501    0  0.33227596069E+02  0.48998976386E+01 -0.18302697261E+02  0.38477828219E+02  0.41800000000E+01 0. -1.
         -5    1    4    4    0  501  0.74715070229E+02  0.23097979379E+02  0.17167338884E+03  0.18869309263E+03  0.41800000000E+01 0. -1.
</event>
<event>
11    1  0.1002087E-008  0.3104136E+03  0.7561462E-02  0.9958778E-01
         22   -1    0    0    0    0  0.00000000000E+00  0.00000000000E+00  0.70143986994E+03  0.70143986994E+03  0.00000000000E+00 0.  1.
         22   -1    0    0    0    0 -0.00000000000E+00 -0.00000000000E+00 -0.10853874403E+04  0.10853874403E+04  0.00000000000E+00 0. -1.
        -24    2    1    2    0    0  0.27147217215E+02  0.14901107907E+03 -0.81457784912E+03  0.83232940696E+03  0.79334080511E+02 0.  0.
         25    2    1    2    0    0  0.19502523809E+03 -0.30891487463E+03 -0.56027092517E+02  0.39019159502E+03  0.12508877836E+03 0.  0.
         24    2    1    2    0    0 -0.22217245530E+03  0.15990379556E+03  0.48665737132E+03  0.56430630821E+03  0.81709171479E+02 0.  0.
        -11    1    5    5    0    0 -0.82377830948E+02  0.74310127621E+02  0.27545919400E+03  0.29696105748E+03  0.00000000000E+00 0.  1.
         12    1    5    5    0    0 -0.13979462435E+03  0.85593667938E+02  0.21119817731E+03  0.26734525073E+03  0.00000000000E+00 0. -1.
         13    1    3    3    0    0 -0.15089687856E+02  0.88294955625E+02 -0.56382445606E+03  0.57089553783E+03  0.00000000000E+00 0. -1.
        -14    1    3    3    0    0  0.42236905071E+02  0.60716123448E+02 -0.25075339306E+03  0.26143386913E+03  0.00000000000E+00 0.  1.
          5    1    4    4  501    0  0.16084051095E+03 -0.21814006924E+03 -0.92607144398E+02  0.28644077113E+03  0.41800000000E+01 0. -1.
         -5    1    4    4    0  501  0.34184727136E+02 -0.90774805391E+02  0.36580051881E+02  0.10375082389E+03  0.41800000000E+01 0. -1.
</event>
<event>
11    1  0.1002087E-008  0.1471700E+03  0.7561462E-02  0.1099806E+00
         22   -1    0    0    0    0  0.00000000000E+00  0.00000000000E+00  0.25101590643E+03  0.25101590643E+03  0.00000000000E+00 0. -1.
         22   -1    0    0    0    0 -0.00000000000E+00 -0.00000000000E+00 -0.88998807924E+03  0.88998807924E+03  0.00000000000E+00 0.  1.
         24    2    1    2    0    0  0.48042586514E+02  0.22255018678E+02 -0.80040296703E+03  0.80583523403E+03  0.76955433850E+02 0.  0.
         25    2    1    2    0    0  0.23091831876E+02 -0.65831558607E+02  0.82213786739E+01  0.14346311944E+03  0.12508816397E+03 0.  0.
        -24    2    1    2    0    0 -0.71134418390E+02  0.43576539929E+02  0.15320941555E+03  0.19170563219E+03  0.79491534704E+02 0.  0.
        -11    1    3    3    0    0  0.59803223040E+02  0.39882199457E+02 -0.64536654792E+03  0.64935737194E+03  0.00000000000E+00 0.  1.
         12    1    3    3    0    0 -0.11760636526E+02 -0.17627180779E+02 -0.15503641911E+03  0.15647786209E+03  0.00000000000E+00 0. -1.
         13    1    5    5    0    0 -0.38928364573E+02  0.98783638224E+01  0.13634227361E+03  0.14213449692E+03  0.00000000000E+00 0. -1.
        -14    1    5    5    0    0 -0.32206053817E+02  0.33698176106E+02  0.16867141937E+02  0.49571135275E+02  0.00000000000E+00 0.  1.
          5    1    4    4  501    0  0.61721050790E+02 -0.15382204705E+02  0.36866733187E+02  0.73639179437E+02  0.41800000000E+01 0. -1.
         -5    1    4    4    0  501 -0.38629218914E+02 -0.50449353902E+02 -0.28645354513E+02  0.69823940008E+02  0.41800000000E+01 0. -1.
</event>
<event>
11    1  0.1002087E-008  0.1351267E+03  0.7561462E-02  0.1113126E+00
         22   -1    0    0    0    0  0.00000000000E+00  0.00000000000E+00  0.83295690108E+03  0.83295690108E+03  0.00000000000E+00 0.  1.
         22   -1    0    0    0    0 -0.00000000000E+00 -0.00000000000E+00 -0.16415132211E+03  0.16415132211E+03  0.00000000000E+00 0.  1.
        -24    2    1    2    0    0 -0.46712308195E+02 -0.14409328100E+02 -0.11855463055E+03  0.15183596548E+03  0.81297549254E+02 0.  0.
         25    2    1    2    0    0  0.78467568158E+02  0.13522416644E+02  0.18304550938E+03  0.23556981711E+03  0.12508982862E+03 0.  0.
         24    2    1    2    0    0 -0.31755259963E+02  0.88691145627E+00  0.60431470015E+03  0.60970244060E+03  0.74374902457E+02 0.  0.
        -13    1    5    5    0    0 -0.36923191594E+02  0.29935514111E+02  0.45676769966E+03  0.45923435034E+03  0.00000000000E+00 0.  1.
         14    1    5    5    0    0  0.51679316301E+01 -0.29048602655E+02  0.14754700049E+03  0.15046809026E+03  0.00000000000E+00 0. -1.
         13    1    3    3    0    0 -0.13520302486E+02  0.33617915330E+02 -0.40149593237E+02  0.54082831357E+02  0.00000000000E+00 0. -1.
        -14    1    3    3    0    0 -0.33192005708E+02 -0.48027243431E+02 -0.78405037317E+02  0.97753134124E+02  0.00000000000E+00 0.  1.
          5    1    4    4  501    0  0.15979514736E+02 -0.53731048252E+02  0.64030285186E+02  0.85203992034E+02  0.41800000000E+01 0.  1.
         -5    1    4    4    0  501  0.62488053422E+02  0.67253464896E+02  0.11901522419E+03  0.15036582508E+03  0.41800000000E+01 0.  1.
</event>
<event>
11    1  0.1002087E-008  0.1650799E+03  0.7561462E-02  0.1082394E+00
         22   -1    0    0    0    0  0.00000000000E+00  0.00000000000E+00  0.17764999277E+04  0.17764999277E+04  0.00000000000E+00 0. -1.
         22   -1    0    0    0    0 -0.00000000000E+00 -0.00000000000E+00 -0.16109994029E+03  0.16109994029E+03  0.00000000000E+00 0.  1.
        -24    2    1    2    0    0 -0.22061802437E+02  0.38924984204E+02 -0.11874551548E+03  0.15121030353E+03  0.82232480961E+02 0.  0.
         25    2    1    2    0    0 -0.15491723556E+02 -0.13541936094E+03  0.36015495684E+03  0.40489161176E+03  0.12508887849E+03 0.  0.
         24    2    1    2    0    0  0.37553525993E+02  0.96494376733E+02  0.13739905461E+04  0.13814979527E+04  0.99825550866E+02 0.  0.
        -11    1    5    5    0    0  0.26454796074E+02 -0.13381190147E+02  0.18156551151E+03  0.18396996346E+03  0.00000000000E+00 0.  1.
         12    1    5    5    0    0  0.11098729919E+02  0.10987556688E+03  0.11924250345E+04  0.11975279892E+04  0.00000000000E+00 0. -1.
         13    1    3    3    0    0  0.58894267302E+01  0.43325375704E+02 -0.19257629978E+02  0.47776875573E+02  0.00000000000E+00 0. -1.
        -14    1    3    3    0    0 -0.27951229167E+02 -0.44003915000E+01 -0.99487885504E+02  0.10343342796E+03  0.00000000000E+00 0.  1.
          5    1    4    4  501    0  0.31215832329E+02 -0.89223029718E+02  0.10482338540E+03  0.14121116014E+03  0.41800000000E+01 0.  1.
         -5    1    4    4    0  501 -0.46707555884E+02 -0.46196331220E+02  0.25533157144E+03  0.26368045163E+03  0.41800000000E+01 0.  1.
</event>
<event>
11    1  0.1002087E-008  0.1614715E+03  0.7561462E-02  0.1085701E+00
         22   -1    0    0    0    0  0.00000000000E+00  0.00000000000E+00  0.11877276633E+04  0.11877276633E+04  0.00000000000E+00 0. -1.
         22   -1    0    0    0    0 -0.00000000000E+00 -0.00000000000E+00 -0.28823923357E+04  0.28823923357E+04  0.00000000000E+00 0.  1.
        -24    2    1    2    0    0  0.44007625557E+02 -0.51537336861E+01 -0.25538643833E+04  0.25555161415E+04  0.80475023197E+02 0.  0.
         25    2    1    2    0    0 -0.10955072352E+03  0.82982773021E+02 -0.29743238443E+03  0.35071398633E+03  0.12508707071E+03 0.  0.
         24    2    1    2    0    0  0.65543097967E+02 -0.77829039334E+02  0.11566320952E+04  0.11638898711E+04  0.80551669134E+02 0.  0.
        -11    1    5    5    0    0  0.34273332669E+02  0.45297443261E+01  0.52592780710E+03  0.52706284084E+03  0.00000000000E+00 0.  1.
         12    1    5    5    0    0  0.31269765298E+02 -0.82358783661E+02  0.63070428812E+03  0.63682703030E+03  0.00000000000E+00 0. -1.
         13    1    3    3    0    0 -0.11638916703E+02 -0.48988425635E+01 -0.77145073095E+02  0.78171768199E+02  0.00000000000E+00 0. -1.
        -14    1    3    3    0    0  0.55646542261E+02 -0.25489112269E+00 -0.24767193102E+04  0.24773443733E+04  0.00000000000E+00 0.  1.
          5    1    4    4  501    0 -0.43112539422E+02  0.60477682394E+02 -0.41232664773E+02  0.85052020361E+02  0.41800000000E+01 0. -1.
         -5    1    4    4    0  501 -0.66438184102E+02  0.22505090627E+02 -0.25619971966E+03  0.26566196597E+03  0.41800000000E+01 0. -1.
</event>
<event>
11    1  0.1002087E-008  0.1445044E+03  0.7561462E-02  0.1102630E+00
         22   -1    0    0    0    0  0.00000000000E+00  0.00000000000E+00  0.12225400142E+04  0.12225400142E+04  0.00000000000E+00 0. -1.
         22   -1    0    0    0    0 -0.00000000000E+00 -0.00000000000E+00 -0.62161812557E+03  0.62161812557E+03  0.00000000000E+00 0.  1.
         24    2    1    2    0    0 -0.58666184871E+02  0.18061143337E+02 -0.59345729940E+03  0.60180084765E+03  0.78770348944E+02 0.  0.
         25    2    1    2    0    0  0.36221361436E+02  0.55344482449E+02  0.22147272550E+03  0.26281777195E+03  0.12509202354E+03 0.  0.
        -24    2    1    2    0    0  0.22444823435E+02 -0.73405625786E+02  0.97290646250E+03  0.97953952013E+03  0.84015062538E+02 0.  0.
        -13    1    3    3    0    0 -0.30970600505E+02  0.46222924361E+02 -0.43268278617E+03  0.43624549313E+03  0.00000000000E+00 0.  1.
         14    1    3    3    0    0 -0.27695584366E+02 -0.28161781024E+02 -0.16077451323E+03  0.16555535452E+03  0.00000000000E+00 0. -1.
         13    1    5    5    0    0  0.50634593170E+02 -0.38542832926E+02  0.70918153149E+03  0.71203079751E+03  0.00000000000E+00 0. -1.
        -14    1    5    5    0    0 -0.28189769736E+02 -0.34862792860E+02  0.26372493101E+03  0.26750872262E+03  0.00000000000E+00 0.  1.
          5    1    4    4  501    0  0.52254797734E+02 -0.22754886768E+02  0.61032969959E+02  0.83611270652E+02  0.41800000000E+01 0. -1.
         -5    1    4    4    0  501 -0.16033436298E+02  0.78099369217E+02  0.16043975554E+03  0.17920650130E+03  0.41800000000E+01 0. -1.
</event>
<event>
11    1  0.1002087E-008  0.1408737E+03  0.7561462E-02  0.1106587E+00
         22   -1    0    0    0    0  0.00000000000E+00  0.00000000000E+00  0.10137250894E+03  0.10137250894E+03  0.00000000000E+00 0.  1.
         22   -1    0    0    0    0 -0.00000000000E+00 -0.00000000000E+00 -0.79335154907E+03  0.79335154907E+03  0.00000000000E+00 0.  1.
        -24    2    1    2    0    0 -0.62311429628E+02  0.56576292364E+01 -0.59790121252E+03  0.60678407980E+03  0.82379223920E+02 0.  0.
         25    2    1    2    0    0  0.81523085854E+02 -0.81413378222E+01 -0.12871713090E+03  0.19730278396E+03  0.12509194164E+03 0.  0.
         24    2    1    2    0    0 -0.19211656226E+02  0.24837085857E+01  0.34639303292E+02  0.90637194247E+02  0.81485968763E+02 0.  0.
        -11    1    5    5    0    0 -0.56201964926E+01  0.85293538121E+01  0.60201443534E+02  0.61061856250E+02  0.00000000000E+00 0.  1.
         12    1    5    5    0    0 -0.13591459734E+02 -0.60456452264E+01 -0.25562140242E+02  0.29575337998E+02  0.00000000000E+00 0. -1.
         13    1    3    3    0    0 -0.68259783458E+02  0.19180432818E+02 -0.29048433487E+03  0.29901243426E+03  0.00000000000E+00 0. -1.
        -14    1    3    3    0    0  0.59483538300E+01 -0.13522803581E+02 -0.30741687765E+03  0.30777164553E+03  0.00000000000E+00 0.  1.
          5    1    4    4  501    0  0.15657123321E+02  0.25345814945E+02  0.16502147685E+02  0.34312521390E+02  0.41800000000E+01 0. -1.
         -5    1    4    4    0  501  0.65865962533E+02 -0.33487152768E+02 -0.14521927859E+03  0.16299026257E+03  0.41800000000E+01 0. -1.
</event>
<event>
11    1  0.1002087E-008  0.1354994E+03  0.7561462E-02  0.1112691E+00
         22   -1    0    0    0    0  0.00000000000E+00  0.00000000000E+00  0.66246097524E+03  0.66246097524E+03  0.00000000000E+00 0. -1.
         22   -1    0    0    0    0 -0.00000000000E+00 -0.00000000000E+00 -0.67348019210E+03  0.67348019210E+03  0.00000000000E+00 0. -1.
        -24    2    1    2    0    0  0.32177612733E+02  0.39470633621E+02 -0.58764237877E+03  0.59502408295E+03  0.78337502397E+02 0.  0.
         25    2    1    2    0    0 -0.32465131951E+02 -0.89581728599E+02  0.11941547690E+01  0.15723551244E+03  0.12507081784E+03 0.  0.
         24    2    1    2    0    0  0.28751921814E+00  0.50111094978E+02  0.57542900714E+03  0.58368157195E+03  0.83990658206E+02 0.  0.
        -11    1    5    5    0    0 -0.14070279583E+02 -0.20941530601E+02  0.15952023892E+03  0.16150302504E+03  0.00000000000E+00 0.  1.
         12    1    5    5    0    0  0.14357798801E+02  0.71052625579E+02  0.41590876822E+03  0.42217854691E+03  0.00000000000E+00 0. -1.
         13    1    3    3    0    0  0.44767668843E+02  0.50528780930E+02 -0.54567531654E+03  0.54983529621E+03  0.00000000000E+00 0. -1.
        -14    1    3    3    0    0 -0.12590056109E+02 -0.11058147310E+02 -0.41967062233E+02  0.45188786742E+02  0.00000000000E+00 0.  1.
          5    1    4    4  501    0  0.31751895361E+02  0.83747748893E+01 -0.19203720023E+02  0.38269765824E+02  0.41800000000E+01 0. -1.
         -5    1    4    4    0  501 -0.64217027313E+02 -0.97956503488E+02  0.20397874792E+02  0.11896574662E+03  0.41800000000E+01 0. -1.
</event>
<event>
11    1  0.1002087E-008  0.1808330E+03  0.7561462E-02  0.1068971E+00
         22   -1    0    0    0    0  0.00000000000E+00  0.00000000000E+00  0.86973737592E+03  0.86973737592E+03  0.00000000000E+00 0. -1.
         22   -1    0    0    0    0 -0.00000000000E+00 -0.00000000000E+00 -0.15490116549E+03  0.15490116549E+03  0.00000000000E+00 0. -1.
        -24    2    1    2    0    0  0.11392424746E+03 -0.56058326718E+02 -0.62265580745E+02  0.16792930643E+03  0.90564779345E+02 0.  0.
         25    2    1    2    0    0 -0.18450027047E+03 -0.19685642228E+02  0.41401027281E+03  0.47061658660E+03  0.12509033248E+03 0.  0.
         24    2    1    2    0    0  0.70576023013E+02  0.75743968946E+02  0.36309151836E+03  0.38609264838E+03  0.80709098441E+02 0.  0.
        -11    1    5    5    0    0  0.19932974598E+01  0.57604257040E+02  0.20221481428E+03  0.21026900575E+03  0.00000000000E+00 0.  1.
         12    1    5    5    0    0  0.68582725553E+02  0.18139711906E+02  0.16087670408E+03  0.17582364263E+03  0.00000000000E+00 0. -1.
         11    1    3    3    0    0  0.11331941827E+03 -0.52512736413E+02 -0.80993968111E+02  0.14885866086E+03  0.00000000000E+00 0. -1.
        -12    1    3    3    0    0  0.60482918769E+00 -0.35455903048E+01  0.18728387366E+02  0.19070645565E+02  0.00000000000E+00 0.  1.
          5    1    4    4  501    0 -0.89593207417E+01 -0.37897709792E+02  0.35063861121E+02  0.52568551362E+02  0.41800000000E+01 0.  1.
         -5    1    4    4    0  501 -0.17554094973E+03  0.18212067564E+02  0.37894641169E+03  0.41804803524E+03  0.41800000000E+01 0.  1.
</event>
<event>
11    1  0.1002087E-008  0.1359981E+03  0.7561462E-02  0.1112111E+00
         22   -1    0    0    0    0  0.00000000000E+00  0.00000000000E+00  0.37850035044E+03  0.37850035044E+03  0.00000000000E+00 0. -1.
         22   -1    0    0    0    0 -0.00000000000E+00 -0.00000000000E+00 -0.82395860483E+03  0.82395860483E+03  0.00000000000E+00 0.  1.
         24    2    1    2    0    0 -0.41788295785E+01  0.52691777630E+02 -0.77996574569E+03  0.78596180003E+03  0.81212687501E+02 0.  0.
         25    2    1    2    0    0  0.25556909938E+02 -0.86251257624E+02  0.17256518684E+03  0.23133976556E+03  0.12508760263E+03 0.  0.
        -24    2    1    2    0    0 -0.21378080359E+02  0.33559479994E+02  0.16194230446E+03  0.18515738968E+03  0.80465445752E+02 0.  0.
        -11    1    3    3    0    0  0.11730883543E+01  0.74083879647E+02 -0.55652124786E+03  0.56143182727E+03  0.00000000000E+00 0.  1.
         12    1    3    3    0    0 -0.53519179329E+01 -0.21392102017E+02 -0.22344449784E+03  0.22452997276E+03  0.00000000000E+00 0. -1.
         11    1    5    5    0    0 -0.29384003262E+02 -0.13825965175E+02  0.10863963860E+03  0.11338936474E+03  0.00000000000E+00 0. -1.
        -12    1    5    5    0    0  0.80059229031E+01  0.47385445170E+02  0.53302665861E+02  0.71768024937E+02  0.00000000000E+00 0.  1.
          5    1    4    4  501    0  0.48752244952E+02 -0.10866440792E+03  0.15079686032E+03  0.19220275862E+03  0.41800000000E+01 0. -1.
         -5    1    4    4    0  501 -0.23195335014E+02  0.22413150300E+02  0.21768326516E+02  0.39137006938E+02  0.41800000000E+01 0. -1.
</event>
<event>
11    1  0.1002087E-008  0.1339456E+03  0.7561462E-02  0.1114514E+00
         22   -1    0    0    0    0  0.00000000000E+00  0.00000000000E+00  0.51243950801E+02  0.51243950801E+02  0.00000000000E+00 0. -1.
         22   -1    0    0    0    0 -0.00000000000E+00 -0.00000000000E+00 -0.10906195744E+04  0.10906195744E+04  0.00000000000E+00 0. -1.
         24    2    1    2    0    0  0.13019860384E+02  0.10466438253E+02 -0.44849430059E+03  0.45575790837E+03  0.79303658717E+02 0.  0.
         25    2    1    2    0    0 -0.19970663251E+02  0.37630721602E+02 -0.57629354223E+03  0.59125091827E+03  0.12509397644E+03 0.  0.
        -24    2    1    2    0    0  0.69508028663E+01 -0.48097159854E+02 -0.14587780836E+02  0.94854698617E+02  0.80143371863E+02 0.  0.
        -11    1    3    3    0    0  0.32383460860E+02  0.29405893429E+02 -0.37291424241E+03  0.37547094068E+03  0.00000000000E+00 0.  1.
         12    1    3    3    0    0 -0.19363600475E+02 -0.18939455176E+02 -0.75580058176E+02  0.80286967682E+02  0.00000000000E+00 0. -1.
         11    1    5    5    0    0 -0.69925506452E+01  0.18986185584E+02  0.93333530723E+01  0.22281886974E+02  0.00000000000E+00 0. -1.
        -12    1    5    5    0    0  0.13943353511E+02 -0.67083345438E+02 -0.23921133909E+02  0.72572811643E+02  0.00000000000E+00 0.  1.
          5    1    4    4  501    0 -0.26282704327E+02 -0.14230671784E+02 -0.30361045300E+02  0.42808387471E+02  0.41800000000E+01 0. -1.
         -5    1    4    4    0  501  0.63120410762E+01  0.51861393385E+02 -0.54593249693E+03  0.54844253080E+03  0.41800000000E+01 0. -1.
</event>
<event>
11    1  0.1002087E-008  0.1630199E+03  0.7561462E-02  0.1084271E+00
         22   -1    0    0    0    0  0.00000000000E+00  0.00000000000E+00  0.14215696146E+03  0.14215696146E+03  0.00000000000E+00 0.  1.
         22   -1    0    0    0    0 -0.00000000000E+00 -0.00000000000E+00 -0.43166533638E+03  0.43166533638E+03  0.00000000000E+00 0.  1.
         24    2    1    2    0    0  0.42315454516E+02  0.11298669216E+03 -0.17927783069E+03  0.23048674259E+03  0.80168620016E+02 0.  0.
         25    2    1    2    0    0 -0.17878957435E+02 -0.85352427305E+02 -0.17597796566E+03  0.23286165902E+03  0.12510641022E+03 0.  0.
        -24    2    1    2    0    0 -0.24436497081E+02 -0.27634264859E+02  0.65747421430E+02  0.11047389623E+03  0.80752481943E+02 0.  0.
        -11    1    3    3    0    0  0.65873298961E+02  0.91666034061E+02 -0.14481892708E+03  0.18361501833E+03  0.00000000000E+00 0.  1.
         12    1    3    3    0    0 -0.23557844445E+02  0.21320658102E+02 -0.34458903612E+02  0.46871724258E+02  0.00000000000E+00 0. -1.
         11    1    5    5    0    0 -0.14997077939E+02  0.22437824977E+02 -0.38182332153E+00  0.26991000823E+02  0.00000000000E+00 0. -1.
        -12    1    5    5    0    0 -0.94394191425E+01 -0.50072089836E+02  0.66129244752E+02  0.83482895408E+02  0.00000000000E+00 0.  1.
          5    1    4    4  501    0 -0.63618074742E+02 -0.85356857107E+02 -0.12077595582E+03  0.16105078824E+03  0.41800000000E+01 0.  1.
         -5    1    4    4    0  501  0.45739117307E+02  0.44298023763E-02 -0.55202009834E+02  0.71810870775E+02  0.41800000000E+01 0.  1.
</event>
<event>
11    1  0.1002087E-008  0.1542609E+03  0.7561462E-02  0.1092603E+00
         22   -1    0    0    0    0  0.00000000000E+00  0.00000000000E+00  0.13020959492E+03  0.13020959492E+03  0.00000000000E+00 0. -1.
         22   -1    0    0    0    0 -0.00000000000E+00 -0.00000000000E+00 -0.15958449360E+04  0.15958449360E+04  0.00000000000E+00 0.  1.
        -24    2    1    2    0    0  0.70500408580E+02  0.59525792521E+02 -0.14004904440E+04  0.14058152579E+04  0.80183713925E+02 0.  0.
         25    2    1    2    0    0 -0.36599818547E+02 -0.61687443192E+02 -0.14420591533E+03  0.20392531702E+03  0.12508117979E+03 0.  0.
         24    2    1    2    0    0 -0.33900590033E+02  0.21616506717E+01  0.79061018218E+02  0.11631395606E+03  0.78258348022E+02 0.  0.
        -11    1    5    5    0    0 -0.41064050551E+02 -0.18249542297E+02  0.12967080859E+02  0.46770153171E+02  0.00000000000E+00 0.  1.
         12    1    5    5    0    0  0.71634605178E+01  0.20411192969E+02  0.66093937359E+02  0.69543802892E+02  0.00000000000E+00 0. -1.
         11    1    3    3    0    0  0.21522979377E+02  0.37528182416E+02 -0.22631095555E+03  0.23040887943E+03  0.00000000000E+00 0. -1.
        -12    1    3    3    0    0  0.48977429203E+02  0.21997610105E+02 -0.11741794884E+04  0.11754063784E+04  0.00000000000E+00 0.  1.
          5    1    4    4  501    0  0.33676447634E+02  0.16525247693E+02 -0.26977066877E+02  0.46394196554E+02  0.41800000000E+01 0. -1.
         -5    1    4    4    0  501 -0.70276266182E+02 -0.78212690886E+02 -0.11722884846E+03  0.15753112046E+03  0.41800000000E+01 0. -1.
</event>
<event>
11    1  0.2331300E-008  0.1771387E+03  0.7561462E-02  0.1071981E+00
         22   -1    0    0    0    0  0.00000000000E+00  0.00000000000E+00  0.49006666069E+03  0.49006666069E+03  0.00000000000E+00 0. -1.
         22   -1    0    0    0    0 -0.00000000000E+00 -0.00000000000E+00 -0.18632675214E+04  0.18632675214E+04  0.00000000000E+00 0. -1.
        -24    2    1    2    0    0  0.45296243349E+01  0.84729682729E+01 -0.12442522942E+04  0.12468265361E+04  0.79500509006E+02 0.  0.
         25    2    1    2    0    0 -0.33662536886E+02  0.11367847532E+03 -0.59409733270E+03  0.61858652344E+03  0.12506671869E+03 0.  0.
         24    2    1    2    0    0  0.29132912551E+02 -0.12215144359E+03  0.46514876616E+03  0.48792112253E+03  0.77032106182E+02 0.  0.
        -13    1    5    5    0    0 -0.19256635764E+01  0.32348900963E+01 -0.12480987112E+01  0.39661624447E+01  0.00000000000E+00 0.  1.
         14    1    5    5    0    0  0.31058576128E+02 -0.12538633369E+03  0.46639686487E+03  0.48395496008E+03  0.00000000000E+00 0. -1.
         11    1    3    3    0    0 -0.13132143245E+02  0.22524741303E+02 -0.11334051035E+04  0.11337049641E+04  0.00000000000E+00 0. -1.
        -12    1    3    3    0    0  0.17661767580E+02 -0.14051773030E+02 -0.11084719070E+03  0.11312157197E+03  0.00000000000E+00 0.  1.
          5    1    4    4  501    0 -0.10809298023E+02  0.13672551712E+03 -0.43384908128E+03  0.45503099421E+03  0.41800000000E+01 0.  1.
         -5    1    4    4    0  501 -0.22853238863E+02 -0.23047041806E+02 -0.16024825142E+03  0.16355552924E+03  0.41800000000E+01 0.  1.
</event>
<event>
11    1  0.1178376E-008  0.1775499E+03  0.7561462E-02  0.1071642E+00
         22   -1    0    0    0    0  0.00000000000E+00  0.00000000000E+00  0.25241213589E+03  0.25241213589E+03  0.00000000000E+00 0. -1.
         22   -1    0    0    0    0 -0.00000000000E+00 -0.00000000000E+00 -0.12598737900E+04  0.12598737900E+04  0.00000000000E+00 0. -1.
         24    2    1    2    0    0  0.35340124050E+02 -0.17372777493E+02 -0.84986469110E+03  0.85459452646E+03  0.80691224503E+02 0.  0.
         25    2    1    2    0    0 -0.27661039276E+02  0.14221791875E+03 -0.35948551034E+03  0.40726919144E+03  0.12508913880E+03 0.  0.
        -24    2    1    2    0    0 -0.76790847736E+01 -0.12484514126E+03  0.20188854729E+03  0.25042220803E+03  0.79416743246E+02 0.  0.
        -13    1    3    3    0    0  0.12880349283E+02  0.16238570236E+02 -0.56186910710E+02  0.59887924459E+02  0.00000000000E+00 0.  1.
         14    1    3    3    0    0  0.22459774767E+02 -0.33611347729E+02 -0.79367778039E+03  0.79470660200E+03  0.00000000000E+00 0. -1.
         13    1    5    5    0    0 -0.12617210752E-01 -0.11676111281E+03  0.20738788833E+03  0.23799767614E+03  0.00000000000E+00 0. -1.
        -14    1    5    5    0    0 -0.76664675628E+01 -0.80840284485E+01 -0.54993410341E+01  0.12424531889E+02  0.00000000000E+00 0.  1.
          5    1    4    4  501    0 -0.53275876083E+02  0.28556434555E+02 -0.57384468407E+02  0.83452013405E+02  0.41800000000E+01 0. -1.
         -5    1    4    4    0  501  0.25614836807E+02  0.11366148419E+03 -0.30210104193E+03  0.32381717804E+03  0.41800000000E+01 0. -1.
</event>
<event>
11    1  0.1002087E-008  0.1698830E+03  0.7561462E-02  0.1078134E+00
         22   -1    0    0    0    0  0.00000000000E+00  0.00000000000E+00  0.86764074776E+03  0.86764074776E+03  0.00000000000E+00 0. -1.
         22   -1    0    0    0    0 -0.00000000000E+00 -0.00000000000E+00 -0.14636937523E+03  0.14636937523E+03  0.00000000000E+00 0. -1.
         24    2    1    2    0    0 -0.22207212734E+02  0.11135985618E+03 -0.72201748764E+02  0.16473243990E+03  0.95023714761E+02 0.  0.
         25    2    1    2    0    0  0.41711401987E+02 -0.11861478056E+03  0.29728929280E+03  0.34617537760E+03  0.12508861346E+03 0.  0.
        -24    2    1    2    0    0 -0.19504189253E+02  0.72549243775E+01  0.49618382848E+03  0.50310230548E+03  0.80501495694E+02 0.  0.
        -13    1    3    3    0    0 -0.25533241490E+02 -0.77662823667E+01 -0.24948814125E+02  0.36533613140E+02  0.00000000000E+00 0.  1.
         14    1    3    3    0    0  0.33260287561E+01  0.11912613855E+03 -0.47252934638E+02  0.12819882677E+03  0.00000000000E+00 0. -1.
         11    1    5    5    0    0 -0.19292545619E+02  0.40468683315E+02  0.36653162146E+03  0.36926324780E+03  0.00000000000E+00 0. -1.
        -12    1    5    5    0    0 -0.21164363409E+00 -0.33213758937E+02  0.12965220703E+03  0.13383905769E+03  0.00000000000E+00 0.  1.
          5    1    4    4  501    0 -0.24543516475E+02 -0.75745721987E+02  0.22634322736E+03  0.23997609791E+03  0.41800000000E+01 0.  1.
         -5    1    4    4    0  501  0.66254918463E+02 -0.42869058569E+02  0.70946065447E+02  0.10619927968E+03  0.41800000000E+01 0.  1.
</event>
<event>
11    1  0.1002087E-008  0.2623941E+03  0.7561462E-02  0.1017496E+00
         22   -1    0    0    0    0  0.00000000000E+00  0.00000000000E+00  0.11423332458E+04  0.11423332458E+04  0.00000000000E+00 0.  1.
         22   -1    0    0    0    0 -0.00000000000E+00 -0.00000000000E+00 -0.12395437399E+04  0.12395437399E+04  0.00000000000E+00 0.  1.
        -24    2    1    2    0    0 -0.18581177813E+03  0.13673356931E+03 -0.11524697274E+04  0.11781596329E+04  0.81557108395E+02 0.  0.
         25    2    1    2    0    0  0.84622196241E+02 -0.26882911680E+03  0.31528894247E+03  0.44100392008E+03  0.12508928869E+03 0.  0.
         24    2    1    2    0    0  0.10118958189E+03  0.13209554749E+03  0.73997029089E+03  0.76271343272E+03  0.80543056244E+02 0.  0.
        -11    1    5    5    0    0  0.26321086377E+02  0.87536421793E+02  0.47720317496E+03  0.48587888914E+03  0.00000000000E+00 0.  1.
         12    1    5    5    0    0  0.74868495508E+02  0.44559125700E+02  0.26276711593E+03  0.27683454358E+03  0.00000000000E+00 0. -1.
         13    1    3    3    0    0 -0.66481552126E+02  0.10459366149E+02 -0.23799911881E+03  0.24733130749E+03  0.00000000000E+00 0. -1.
        -14    1    3    3    0    0 -0.11933022600E+03  0.12627420316E+03 -0.91447060864E+03  0.93082832536E+03  0.00000000000E+00 0.  1.
          5    1    4    4  501    0  0.22925383819E+02  0.77572346575E+01  0.19588557062E+02  0.31415471993E+02  0.41800000000E+01 0. -1.
         -5    1    4    4    0  501  0.61696812422E+02 -0.27658635146E+03  0.29570038540E+03  0.40958844808E+03  0.41800000000E+01 0. -1.
</event>
<event>
11    1  0.1002087E-008  0.1473247E+03  0.7561462E-02  0.1099644E+00
         22   -1    0    0    0    0  0.00000000000E+00  0.00000000000E+00  0.13177867223E+03  0.13177867223E+03  0.00000000000E+00 0.  1.
         22   -1    0    0    0    0 -0.00000000000E+00 -0.00000000000E+00 -0.88628799188E+03  0.88628799188E+03  0.00000000000E+00 0.  1.
        -24    2    1    2    0    0 -0.10565595473E+02  0.11944712756E+02 -0.74370494192E+03  0.74800498656E+03  0.78486376546E+02 0.  0.
         25    2    1    2    0    0 -0.19105197451E+02  0.64809408878E+02 -0.47085509382E+02  0.14976192224E+03  0.12508525137E+03 0.  0.
         24    2    1    2    0    0  0.29670792924E+02 -0.76754121634E+02  0.36281131652E+02  0.12029975531E+03  0.79900935372E+02 0.  0.
        -13    1    5    5    0    0  0.19542245838E+02 -0.58959134751E+02  0.61774097613E+02  0.87602043806E+02  0.00000000000E+00 0.  1.
         14    1    5    5    0    0  0.10128547086E+02 -0.17794986883E+02 -0.25492965960E+02  0.32697711505E+02  0.00000000000E+00 0. -1.
         13    1    3    3    0    0 -0.38214589337E+01  0.11792920557E+02 -0.15865643114E+02  0.20134427110E+02  0.00000000000E+00 0. -1.
        -14    1    3    3    0    0 -0.67441365393E+01  0.15179219902E+00 -0.72783929881E+03  0.72787055945E+03  0.00000000000E+00 0.  1.
          5    1    4    4  501    0 -0.37653532426E+02  0.96299331938E+02 -0.45213149939E+02  0.11292940788E+03  0.41800000000E+01 0. -1.
         -5    1    4    4    0  501  0.18548334976E+02 -0.31489923060E+02 -0.18723594437E+01  0.36832514367E+02  0.41800000000E+01 0. -1.
</event>
<event>
11    1  0.1002087E-008  0.1313656E+03  0.7561462E-02  0.1117602E+00
         22   -1    0    0    0    0  0.00000000000E+00  0.00000000000E+00  0.23480872020E+03  0.23480872020E+03  0.00000000000E+00 0. -1.
         22   -1    0    0    0    0 -0.00000000000E+00 -0.00000000000E+00 -0.14156939453E+04  0.14156939453E+04  0.00000000000E+00 0.  1.
         24    2    1    2    0    0  0.25328695294E+02 -0.33226646443E+02 -0.12415571058E+04  0.12458792114E+04  0.94896836799E+02 0.  0.
         25    2    1    2    0    0  0.21138242235E+02  0.38390695629E+02 -0.13421390732E+03  0.18863069998E+03  0.12508995667E+03 0.  0.
        -24    2    1    2    0    0 -0.46466937529E+02 -0.51640491867E+01  0.19488578798E+03  0.21599275415E+03  0.80539156941E+02 0.  0.
        -11    1    3    3    0    0  0.46259374824E+01  0.21674007527E+02 -0.81548065658E+03  0.81578174971E+03  0.00000000000E+00 0.  1.
         12    1    3    3    0    0  0.20702757812E+02 -0.54900653969E+02 -0.42607644923E+03  0.43009746171E+03  0.00000000000E+00 0. -1.
         13    1    5    5    0    0  0.75737431053E+01 -0.60759259993E+01  0.13490083955E+03  0.13524982430E+03  0.00000000000E+00 0. -1.
        -14    1    5    5    0    0 -0.54040680635E+02  0.91187681263E+00  0.59984948432E+02  0.80742929853E+02  0.00000000000E+00 0.  1.
          5    1    4    4  501    0  0.20770609419E+02 -0.30098980615E+02 -0.10978935029E+03  0.11579525330E+03  0.41800000000E+01 0.  1.
         -5    1    4    4    0  501  0.36763281584E+00  0.68489676244E+02 -0.24424557029E+02  0.72835446673E+02  0.41800000000E+01 0.  1.
</event>
<event>
11    1  0.1002087E-008  0.2148806E+03  0.7561462E-02  0.1044473E+00
         22   -1    0    0    0    0  0.00000000000E+00  0.00000000000E+00  0.24828518464E+03  0.24828518464E+03  0.00000000000E+00 0. -1.
         22   -1    0    0    0    0 -0.00000000000E+00 -0.00000000000E+00 -0.42528611450E+04  0.42528611450E+04  0.00000000000E+00 0.  1.
         24    2    1    2    0    0  0.56047554410E+02  0.50916719825E+01 -0.37877849517E+04  0.37890574198E+04  0.80461399621E+02 0.  0.
         25    2    1    2    0    0  0.54045934271E+02  0.13503393206E+03 -0.40022266612E+03  0.44382672180E+03  0.12509536637E+03 0.  0.
        -24    2    1    2    0    0 -0.11009348868E+03 -0.14012560404E+03  0.18343165751E+03  0.26826218798E+03  0.81004119435E+02 0.  0.
        -11    1    3    3    0    0 -0.17259193359E+02  0.29134989208E+01 -0.14890181400E+04  0.14891210124E+04  0.00000000000E+00 0.  1.
         12    1    3    3    0    0  0.73306747769E+02  0.21781730617E+01 -0.22987668117E+04  0.22999364075E+04  0.00000000000E+00 0. -1.
         11    1    5    5    0    0 -0.66473364610E+02 -0.11840108433E+03  0.17027490073E+03  0.21778674613E+03  0.00000000000E+00 0. -1.
        -12    1    5    5    0    0 -0.43620124072E+02 -0.21724519711E+02  0.13156756781E+02  0.50475441847E+02  0.00000000000E+00 0.  1.
          5    1    4    4  501    0 -0.24865475218E+02  0.97959689789E+02 -0.25582858537E+03  0.27510021842E+03  0.41800000000E+01 0.  1.
         -5    1    4    4    0  501  0.78911409489E+02  0.37074242272E+02 -0.14439408075E+03  0.16872650338E+03  0.41800000000E+01 0.  1.
</event>
<event>
11    1  0.1002087E-008  0.1271831E+03  0.7561462E-02  0.1122779E+00
         22   -1    0    0    0    0  0.00000000000E+00  0.00000000000E+00  0.32911809542E+02  0.32911809542E+02  0.00000000000E+00 0.  1.
         22   -1    0    0    0    0 -0.00000000000E+00 -0.00000000000E+00 -0.24006014664E+04  0.24006014664E+04  0.00000000000E+00 0. -1.
         24    2    1    2    0    0 -0.12214861864E+02 -0.20807237916E+02 -0.19717764541E+04  0.19735862309E+04  0.80981984524E+02 0.  0.
         25    2    1    2    0    0  0.12006153771E+02  0.22750024224E+01 -0.33133818088E+03  0.35437611577E+03  0.12509243764E+03 0.  0.
        -24    2    1    2    0    0  0.20870809391E+00  0.18532235494E+02 -0.64575021915E+02  0.10555092932E+03  0.81409937435E+02 0.  0.
        -11    1    3    3    0    0 -0.22930090719E+02 -0.47987051773E+02 -0.10489329347E+04  0.10502803662E+04  0.00000000000E+00 0.  1.
         12    1    3    3    0    0  0.10715228854E+02  0.27179813857E+02 -0.92284351937E+03  0.92330586462E+03  0.00000000000E+00 0. -1.
         11    1    5    5    0    0 -0.36346465805E+01  0.47500773725E+02 -0.58947808252E+02  0.75791676707E+02  0.00000000000E+00 0. -1.
        -12    1    5    5    0    0  0.38433546744E+01 -0.28968538231E+02 -0.56272136630E+01  0.29759252612E+02  0.00000000000E+00 0.  1.
          5    1    4    4  501    0  0.43305725308E+02  0.38331673559E+02 -0.27193463055E+03  0.27804787130E+03  0.41800000000E+01 0. -1.
         -5    1    4    4    0  501 -0.31299571538E+02 -0.36056671136E+02 -0.59403550328E+02  0.76328244467E+02  0.41800000000E+01 0. -1.
</event>
<event>
11    1  0.1002087E-008  0.2029827E+03  0.7561462E-02  0.1052434E+00
         22   -1    0    0    0    0  0.00000000000E+00  0.00000000000E+00  0.47871148155E+03  0.47871148155E+03  0.00000000000E+00 0. -1.
         22   -1    0    0    0    0 -0.00000000000E+00 -0.00000000000E+00 -0.71014921242E+03  0.71014921242E+03  0.00000000000E+00 0.  1.
         24    2    1    2    0    0 -0.11018824577E+03 -0.10728005061E+03 -0.53670760669E+03  0.56422555724E+03  0.81516658470E+02 0.  0.
         25    2    1    2    0    0  0.14127070924E+03  0.14105861483E+03 -0.63806874731E+02  0.24407761992E+03  0.12509045199E+03 0.  0.
        -24    2    1    2    0    0 -0.31082463471E+02 -0.33778564224E+02  0.36907675056E+03  0.38055751680E+03  0.80618018185E+02 0.  0.
        -13    1    3    3    0    0 -0.15888898538E+02 -0.70213150599E+02 -0.24901195842E+03  0.25920898721E+03  0.00000000000E+00 0.  1.
         14    1    3    3    0    0 -0.94299347229E+02 -0.37066900006E+02 -0.28769564827E+03  0.30501657004E+03  0.00000000000E+00 0. -1.
         13    1    5    5    0    0 -0.17737379297E+02 -0.42484120627E+02  0.35847499595E+03  0.36141919962E+03  0.00000000000E+00 0. -1.
        -14    1    5    5    0    0 -0.13345084174E+02  0.87055564028E+01  0.10601754603E+02  0.19138317182E+02  0.00000000000E+00 0.  1.
          5    1    4    4  501    0  0.30859642100E+01  0.15818663096E+01  0.27125413611E+02  0.27663801975E+02  0.41800000000E+01 0. -1.
         -5    1    4    4    0  501  0.13818474503E+03  0.13947674852E+03 -0.90932288342E+02  0.21641381795E+03  0.41800000000E+01 0. -1.
</event>
<event>
11    1  0.1002087E-008  0.1704693E+03  0.7561462E-02  0.1077624E+00
         22   -1    0    0    0    0  0.00000000000E+00  0.00000000000E+00  0.13193653460E+04  0.13193653460E+04  0.00000000000E+00 0.  1.
         22   -1    0    0    0    0 -0.00000000000E+00 -0.00000000000E+00 -0.17761085193E+03  0.17761085193E+03  0.00000000000E+00 0. -1.
         24    2    1    2    0    0  0.70507684163E+02  0.81628721798E+02 -0.90280672983E+02  0.16100936867E+03  0.78350718800E+02 0.  0.
         25    2    1    2    0    0 -0.13302881448E+03 -0.10412319687E+03  0.17581634843E+03  0.27403760709E+03  0.12508763375E+03 0.  0.
        -24    2    1    2    0    0  0.62521130315E+02  0.22494475067E+02  0.10562188186E+04  0.10619292221E+04  0.87638957890E+02 0.  0.
        -11    1    3    3    0    0  0.60386644644E+02  0.10397478653E+02 -0.44559448922E+02  0.75764100351E+02  0.00000000000E+00 0.  1.
         12    1    3    3    0    0  0.10121039519E+02  0.71231243146E+02 -0.45721224061E+02  0.85245268318E+02  0.00000000000E+00 0. -1.
         11    1    5    5    0    0 -0.15630505360E+02  0.27485446497E+02  0.31843646987E+03  0.32000241844E+03  0.00000000000E+00 0. -1.
        -12    1    5    5    0    0  0.78151635676E+02 -0.49909714299E+01  0.73778234872E+03  0.74192680369E+03  0.00000000000E+00 0.  1.
          5    1    4    4  501    0 -0.15384232995E+03 -0.72668338154E+02  0.12779176933E+03  0.21282941188E+03  0.41800000000E+01 0.  1.
         -5    1    4    4    0  501  0.20813515471E+02 -0.31454858712E+02  0.48024579097E+02  0.61208195205E+02  0.41800000000E+01 0.  1.
</event>
<event>
11    1  0.1002087E-008  0.1464797E+03  0.7561462E-02  0.1100531E+00
         22   -1    0    0    0    0  0.00000000000E+00  0.00000000000E+00  0.44951266120E+03  0.44951266120E+03  0.00000000000E+00 0.  1.
         22   -1    0    0    0    0 -0.00000000000E+00 -0.00000000000E+00 -0.28293259371E+03  0.28293259371E+03  0.00000000000E+00 0.  1.
         24    2    1    2    0    0 -0.24534124242E+01 -0.61961249880E+02 -0.20068199607E+03  0.22519184943E+03  0.81196611912E+02 0.  0.
         25    2    1    2    0    0 -0.73617348914E+02  0.61946426911E+02  0.43031816423E+02  0.16357270235E+03  0.12508963931E+03 0.  0.
        -24    2    1    2    0    0  0.76070761338E+02  0.14822968507E-01  0.32423024713E+03  0.34368070312E+03  0.84878805296E+02 0.  0.
        -13    1    3    3    0    0  0.14721566956E+02 -0.77412666312E+02 -0.16168918818E+03  0.17986894956E+03  0.00000000000E+00 0.  1.
         14    1    3    3    0    0 -0.17174979381E+02  0.15451416432E+02 -0.38992807888E+02  0.45322899879E+02  0.00000000000E+00 0. -1.
         11    1    5    5    0    0 -0.94367034347E+01  0.38502627630E+01  0.21435499639E+01  0.10414926860E+02  0.00000000000E+00 0. -1.
        -12    1    5    5    0    0  0.85507464773E+02 -0.38354397945E+01  0.32208669717E+03  0.33326577626E+03  0.00000000000E+00 0.  1.
          5    1    4    4  501    0 -0.24436228124E+02 -0.16261303117E+02  0.62400099707E+02  0.69085483767E+02  0.41800000000E+01 0. -1.
         -5    1    4    4    0  501 -0.49181120790E+02  0.78207730028E+02 -0.19368283284E+02  0.94487218584E+02  0.41800000000E+01 0. -1.
</event>
<event>
11    1  0.1002087E-008  0.1979012E+03  0.7561462E-02  0.1056018E+00
         22   -1    0    0    0    0  0.00000000000E+00  0.00000000000E+00  0.49553927971E+03  0.49553927971E+03  0.00000000000E+00 0. -1.
         22   -1    0    0    0    0 -0.00000000000E+00 -0.00000000000E+00 -0.13872009617E+03  0.13872009617E+03  0.00000000000E+00 0. -1.
        -24    2    1    2    0    0  0.34022059907E+02 -0.15843132955E+03  0.22044271158E+01  0.18110022663E+03  0.80835919264E+02 0.  0.
         25    2    1    2    0    0 -0.48762374385E+02  0.12498516714E+03  0.17695823337E+03  0.25487395451E+03  0.12508978843E+03 0.  0.
         24    2    1    2    0    0  0.14740314478E+02  0.33446162417E+02  0.17765652305E+03  0.19828519473E+03  0.80120257209E+02 0.  0.
        -11    1    5    5    0    0  0.17077781725E+02  0.56658341021E+02  0.15436540186E+03  0.16531937433E+03  0.00000000000E+00 0.  1.
         12    1    5    5    0    0 -0.23374672473E+01 -0.23212178604E+02  0.23291121193E+02  0.32965820407E+02  0.00000000000E+00 0. -1.
         11    1    3    3    0    0  0.42585243599E+02 -0.31202275345E+02  0.82822234535E+01  0.53438564580E+02  0.00000000000E+00 0. -1.
        -12    1    3    3    0    0 -0.85631836919E+01 -0.12722905421E+03 -0.60777963378E+01  0.12766166205E+03  0.00000000000E+00 0.  1.
          5    1    4    4  501    0  0.21843974830E+02 -0.11731955680E+02  0.81762533607E+01  0.26440906555E+02  0.41800000000E+01 0. -1.
         -5    1    4    4    0  501 -0.70606349215E+02  0.13671712282E+03  0.16878198001E+03  0.22843304795E+03  0.41800000000E+01 0. -1.
</event>
<event>
11    1  0.2637957E-008  0.1675805E+03  0.7561462E-02  0.1080157E+00
         22   -1    0    0    0    0  0.00000000000E+00  0.00000000000E+00  0.15503762963E+04  0.15503762963E+04  0.00000000000E+00 0. -1.
         22   -1    0    0    0    0 -0.00000000000E+00 -0.00000000000E+00 -0.62203585244E+03  0.62203585244E+03  0.00000000000E+00 0.  1.
         24    2    1    2    0    0 -0.77994575339E+02 -0.70726516303E+02 -0.49772411577E+03  0.51500411716E+03  0.80090894504E+02 0.  0.
         25    2    1    2    0    0  0.14200084809E+03  0.14317064165E+03  0.11842931642E+02  0.23759240120E+03  0.12509124905E+03 0.  0.
        -24    2    1    2    0    0 -0.64006272749E+02 -0.72444125347E+02  0.14142216280E+04  0.14198156304E+04  0.80676247813E+02 0.  0.
        -13    1    3    3    0    0 -0.68592777154E+02 -0.68174594354E+02 -0.49571067258E+03  0.50505624964E+03  0.00000000000E+00 0.  1.
         14    1    3    3    0    0 -0.94017981856E+01 -0.25519219487E+01 -0.20134431949E+01  0.99478675229E+01  0.00000000000E+00 0. -1.
         13    1    5    5    0    0 -0.65161947946E+02 -0.88306918132E+02  0.12634459892E+04  0.12682034375E+04  0.00000000000E+00 0. -1.
        -14    1    5    5    0    0  0.11556751973E+01  0.15862792784E+02  0.15077563879E+03  0.15161219289E+03  0.00000000000E+00 0.  1.
          5    1    4    4  501    0  0.82282376173E+02  0.48685736700E+02  0.63022544703E+02  0.11458622922E+03  0.41800000000E+01 0.  1.
         -5    1    4    4    0  501  0.59718471915E+02  0.94484904950E+02 -0.51179613061E+02  0.12300617198E+03  0.41800000000E+01 0.  1.
</event>
<event>
11    1  0.1002087E-008  0.2568357E+03  0.7561462E-02  0.1020319E+00
         22   -1    0    0    0    0  0.00000000000E+00  0.00000000000E+00  0.40029581806E+04  0.40029581806E+04  0.00000000000E+00 0.  1.
         22   -1    0    0    0    0 -0.00000000000E+00 -0.00000000000E+00 -0.10300830628E+03  0.10300830628E+03  0.00000000000E+00 0. -1.
        -24    2    1    2    0    0 -0.20067812327E+03 -0.89717492548E+02  0.82952107563E+02  0.24881503132E+03  0.81895848720E+02 0.  0.
         25    2    1    2    0    0  0.21592028507E+03  0.13489606578E+03  0.10227197396E+04  0.10613300766E+04  0.12508935821E+03 0.  0.
         24    2    1    2    0    0 -0.15242161804E+02 -0.45178573229E+02  0.27942780271E+04  0.27958213790E+04  0.79712378877E+02 0.  0.
        -11    1    5    5    0    0 -0.42997734551E+02 -0.48536687756E+02  0.20057778357E+04  0.20068256878E+04  0.00000000000E+00 0.  1.
         12    1    5    5    0    0  0.27755572747E+02  0.33581145273E+01  0.78850019146E+03  0.78899569117E+03  0.00000000000E+00 0. -1.
         11    1    3    3    0    0 -0.92097978855E+02 -0.56858990410E+02 -0.73142055193E-01  0.10823579745E+03  0.00000000000E+00 0. -1.
        -12    1    3    3    0    0 -0.10858014441E+03 -0.32858502138E+02  0.83025249618E+02  0.14057923388E+03  0.00000000000E+00 0.  1.
          5    1    4    4  501    0  0.54724622655E+02  0.53146936841E+01  0.43057722451E+03  0.43409359470E+03  0.41800000000E+01 0.  1.
         -5    1    4    4    0  501  0.16119566241E+03  0.12958137209E+03  0.59214251511E+03  0.62723648186E+03  0.41800000000E+01 0.  1.
</event>
<event>
11    1  0.1002087E-008  0.1287393E+03  0.7561462E-02  0.1120828E+00
         22   -1    0    0    0    0  0.00000000000E+00  0.00000000000E+00  0.12579820091E+03  0.12579820091E+03  0.00000000000E+00 0. -1.
         22   -1    0    0    0    0 -0.00000000000E+00 -0.00000000000E+00 -0.55603622048E+03  0.55603622048E+03  0.00000000000E+00 0. -1.
         24    2    1    2    0    0 -0.31350269996E+02 -0.78116715791E+01 -0.44741292134E+03  0.45593419911E+03  0.81570890032E+02 0.  0.
         25    2    1    2    0    0  0.10370435481E+02 -0.54912653399E+01 -0.30030147063E+02  0.12917489991E+03  0.12508655046E+03 0.  0.
        -24    2    1    2    0    0  0.20979834515E+02  0.13302936919E+02  0.47205048833E+02  0.96725322370E+02  0.80686738473E+02 0.  0.
        -11    1    3    3    0    0 -0.21121688082E+02  0.27652432002E+02 -0.87979582669E+02  0.94610727033E+02  0.00000000000E+00 0.  1.
         12    1    3    3    0    0 -0.10228581914E+02 -0.35464103581E+02 -0.35943333867E+03  0.36132347208E+03  0.00000000000E+00 0. -1.
         13    1    5    5    0    0 -0.27247508031E+02 -0.11084214722E+02  0.23773983774E+02  0.37821803426E+02  0.00000000000E+00 0. -1.
        -14    1    5    5    0    0  0.48227342546E+02  0.24387151641E+02  0.23431065059E+02  0.58903518944E+02  0.00000000000E+00 0.  1.
          5    1    4    4  501    0  0.45298423400E+02  0.36706088437E+02  0.12408078779E+02  0.59755475983E+02  0.41800000000E+01 0.  1.
         -5    1    4    4    0  501 -0.34927987919E+02 -0.42197353777E+02 -0.42438225842E+02  0.69419423928E+02  0.41800000000E+01 0.  1.
</event>
<event>
11    1  0.1002087E-008  0.1388697E+03  0.7561462E-02  0.1108827E+00
         22   -1    0    0    0    0  0.00000000000E+00  0.00000000000E+00  0.17199438726E+04  0.17199438726E+04  0.00000000000E+00 0.  1.
         22   -1    0    0    0    0 -0.00000000000E+00 -0.00000000000E+00 -0.11332610001E+03  0.11332610001E+03  0.00000000000E+00 0. -1.
        -24    2    1    2    0    0 -0.43396094846E+02 -0.22704993461E+02 -0.65597963405E+02  0.11466513909E+03  0.80288626491E+02 0.  0.
         25    2    1    2    0    0  0.32315567725E+02  0.80809424925E+02  0.24895638744E+03  0.29189302323E+03  0.12509114714E+03 0.  0.
         24    2    1    2    0    0  0.11080527121E+02 -0.58104431464E+02  0.14232593486E+04  0.14267118103E+04  0.79627340232E+02 0.  0.
        -11    1    5    5    0    0  0.40782241240E+02 -0.35917190645E+02  0.10984600116E+04  0.10998034519E+04  0.00000000000E+00 0.  1.
         12    1    5    5    0    0 -0.29701714118E+02 -0.22187240819E+02  0.32479933699E+03  0.32690835839E+03  0.00000000000E+00 0. -1.
         13    1    3    3    0    0 -0.55412151020E+02 -0.27044781289E+02 -0.76228928619E+02  0.98044766480E+02  0.00000000000E+00 0. -1.
        -14    1    3    3    0    0  0.12016056174E+02  0.43397878281E+01  0.10630965213E+02  0.16620372611E+02  0.00000000000E+00 0.  1.
          5    1    4    4  501    0  0.70571651020E+02  0.87479615725E+02  0.17057147495E+03  0.20431627826E+03  0.41800000000E+01 0. -1.
         -5    1    4    4    0  501 -0.38256083295E+02 -0.66701908006E+01  0.78384912491E+02  0.87576744976E+02  0.41800000000E+01 0. -1.
</event>
<event>
11    1  0.1002087E-008  0.1336856E+03  0.7561462E-02  0.1114822E+00
         22   -1    0    0    0    0  0.00000000000E+00  0.00000000000E+00  0.24179180236E+03  0.24179180236E+03  0.00000000000E+00 0. -1.
         22   -1    0    0    0    0 -0.00000000000E+00 -0.00000000000E+00 -0.59268953938E+03  0.59268953938E+03  0.00000000000E+00 0. -1.
        -24    2    1    2    0    0 -0.20706309995E+02 -0.19665658091E+02 -0.38940821133E+03  0.39821079271E+03  0.78215030519E+02 0.  0.
         25    2    1    2    0    0  0.10302178447E+02 -0.27573953569E+02 -0.16669782175E+03  0.21048251075E+03  0.12509302841E+03 0.  0.
         24    2    1    2    0    0  0.10404131548E+02  0.47239611660E+02  0.20520829606E+03  0.22578803829E+03  0.80808208718E+02 0.  0.
        -11    1    5    5    0    0  0.91425573071E+01  0.68010473067E+02  0.12157456274E+03  0.13960438785E+03  0.00000000000E+00 0.  1.
         12    1    5    5    0    0  0.12615742410E+01 -0.20770861407E+02  0.83633733323E+02  0.86183650437E+02  0.00000000000E+00 0. -1.
         11    1    3    3    0    0  0.15737261434E+02 -0.16247814421E+02 -0.30941544577E+03  0.31024114968E+03  0.00000000000E+00 0. -1.
        -12    1    3    3    0    0 -0.36443571430E+02 -0.34178436700E+01 -0.79992765556E+02  0.87969643032E+02  0.00000000000E+00 0.  1.
          5    1    4    4  501    0 -0.68125906422E+01  0.38017022205E+02 -0.12474460206E+03  0.13065371603E+03  0.41800000000E+01 0.  1.
         -5    1    4    4    0  501  0.17114769089E+02 -0.65590975774E+02 -0.41953219689E+02  0.79828794718E+02  0.41800000000E+01 0.  1.
</event>
<event>
11    1  0.1002087E-008  0.1413246E+03  0.7561462E-02  0.1106088E+00
         22   -1    0    0    0    0  0.00000000000E+00  0.00000000000E+00  0.12116626372E+04  0.12116626372E+04  0.00000000000E+00 0. -1.
         22   -1    0    0    0    0 -0.00000000000E+00 -0.00000000000E+00 -0.97966939240E+03  0.97966939240E+03  0.00000000000E+00 0.  1.
        -24    2    1    2    0    0  0.60520798778E+02  0.37801262459E+02 -0.78719819524E+03  0.79459885239E+03  0.81330406927E+02 0.  0.
         25    2    1    2    0    0 -0.32848713525E+02 -0.72915769015E+01 -0.16458367049E+03  0.20944650618E+03  0.12509136376E+03 0.  0.
         24    2    1    2    0    0 -0.27672085254E+02 -0.30509685557E+02  0.11837751105E+04  0.11872866710E+04  0.81421997434E+02 0.  0.
        -11    1    5    5    0    0 -0.51636100503E+01  0.22707536399E+02  0.14084651608E+03  0.14275866408E+03  0.00000000000E+00 0.  1.
         12    1    5    5    0    0 -0.22508475203E+02 -0.53217221956E+02  0.10429285945E+04  0.10445280070E+04  0.00000000000E+00 0. -1.
         11    1    3    3    0    0  0.58011073242E+02  0.34656137303E+01 -0.26645300600E+03  0.27271688525E+03  0.00000000000E+00 0. -1.
        -12    1    3    3    0    0  0.25097255367E+01  0.34335648728E+02 -0.52074518924E+03  0.52188196713E+03  0.00000000000E+00 0.  1.
          5    1    4    4  501    0 -0.66551083854E+02  0.20795290844E+02 -0.47840741296E+02  0.84662269112E+02  0.41800000000E+01 0.  1.
         -5    1    4    4    0  501  0.33702370329E+02 -0.28086867745E+02 -0.11674292919E+03  0.12478423707E+03  0.41800000000E+01 0.  1.
</event>
<event>
11    1  0.1002087E-008  0.1532022E+03  0.7561462E-02  0.1093651E+00
         22   -1    0    0    0    0  0.00000000000E+00  0.00000000000E+00  0.86186899422E+03  0.86186899422E+03  0.00000000000E+00 0.  1.
         22   -1    0    0    0    0 -0.00000000000E+00 -0.00000000000E+00 -0.11834701291E+03  0.11834701291E+03  0.00000000000E+00 0. -1.
        -24    2    1    2    0    0  0.50322751298E+01 -0.50524005215E+02 -0.51257819611E+02  0.10869196856E+03  0.81293179683E+02 0.  0.
         25    2    1    2    0    0  0.48800599883E+02  0.11378489065E+03  0.20422499629E+03  0.26959973287E+03  0.12509063499E+03 0.  0.
         24    2    1    2    0    0 -0.53832875013E+02 -0.63260885434E+02  0.59055480463E+03  0.60192430570E+03  0.81596412125E+02 0.  0.
        -13    1    5    5    0    0 -0.64522619184E+02 -0.27729250604E+02  0.48455658365E+03  0.48961940575E+03  0.00000000000E+00 0.  1.
         14    1    5    5    0    0  0.10689744172E+02 -0.35531634830E+02  0.10599822098E+03  0.11230489996E+03  0.00000000000E+00 0. -1.
         13    1    3    3    0    0 -0.26100288881E+02 -0.55598123677E+02 -0.20806151513E+02  0.64848071497E+02  0.00000000000E+00 0. -1.
        -14    1    3    3    0    0  0.31132564011E+02  0.50741184619E+01 -0.30451668098E+02  0.43843897067E+02  0.00000000000E+00 0.  1.
          5    1    4    4  501    0  0.72958698904E+02  0.83584897003E+02  0.20216540211E+03  0.23064632874E+03  0.41800000000E+01 0.  1.
         -5    1    4    4    0  501 -0.24158099021E+02  0.30199993646E+02  0.20595941821E+01  0.38953404122E+02  0.41800000000E+01 0.  1.
</event>
<event>
11    1  0.1002087E-008  0.1448436E+03  0.7561462E-02  0.1102267E+00
         22   -1    0    0    0    0  0.00000000000E+00  0.00000000000E+00  0.22211910555E+02  0.22211910555E+02  0.00000000000E+00 0. -1.
         22   -1    0    0    0    0 -0.00000000000E+00 -0.00000000000E+00 -0.34002210606E+04  0.34002210606E+04  0.00000000000E+00 0. -1.
        -24    2    1    2    0    0 -0.72807516973E+02 -0.24558474180E+02 -0.26669479563E+04  0.26693064941E+04  0.81741695534E+02 0.  0.
         25    2    1    2    0    0  0.22276017771E+02  0.59210340055E+02 -0.49923074789E+03  0.51853670944E+03  0.12508754562E+03 0.  0.
         24    2    1    2    0    0  0.50531499202E+02 -0.34651865875E+02 -0.21183044587E+03  0.23458976759E+03  0.80037722625E+02 0.  0.
        -11    1    5    5    0    0  0.31322005259E+02  0.12020775513E+02 -0.15497223091E+03  0.15856216261E+03  0.00000000000E+00 0.  1.
         12    1    5    5    0    0  0.19209493943E+02 -0.46672641388E+02 -0.56858214952E+02  0.76027604981E+02  0.00000000000E+00 0. -1.
         13    1    3    3    0    0 -0.59610269411E+02 -0.32063047700E+02 -0.25895051408E+04  0.25903896035E+04  0.00000000000E+00 0. -1.
        -14    1    3    3    0    0 -0.13197247562E+02  0.75045735198E+01 -0.77442815462E+02  0.78916890673E+02  0.00000000000E+00 0.  1.
          5    1    4    4  501    0 -0.17518025048E+02  0.88558031440E+02 -0.30943993126E+03  0.32236617315E+03  0.41800000000E+01 0.  1.
         -5    1    4    4    0  501  0.39794042819E+02 -0.29347691385E+02 -0.18979081663E+03  0.19617053629E+03  0.41800000000E+01 0.  1.
</event>
<event>
11    1  0.1002087E-008  0.1398096E+03  0.7561462E-02  0.1107771E+00
         22   -1    0    0    0    0  0.00000000000E+00  0.00000000000E+00  0.66705477090E+02  0.66705477090E+02  0.00000000000E+00 0. -1.
         22   -1    0    0    0    0 -0.00000000000E+00 -0.00000000000E+00 -0.18663388574E+04  0.18663388574E+04  0.00000000000E+00 0. -1.
         24    2    1    2    0    0  0.48730521861E+02 -0.28227954762E+02 -0.13452434493E+04  0.13486936420E+04  0.78250374063E+02 0.  0.
         25    2    1    2    0    0 -0.84572842109E+02  0.72952220127E+02 -0.45400113138E+03  0.48398327122E+03  0.12509271554E+03 0.  0.
        -24    2    1    2    0    0  0.35842320248E+02 -0.44724265365E+02 -0.38879960755E+00  0.10036742120E+03  0.82392573933E+02 0.  0.
        -13    1    3    3    0    0 -0.14733026404E+02 -0.28125266501E+02 -0.55403802181E+03  0.55494704459E+03  0.00000000000E+00 0.  1.
         14    1    3    3    0    0  0.63463548265E+02 -0.10268826105E+00 -0.79120542746E+03  0.79374659744E+03  0.00000000000E+00 0. -1.
         13    1    5    5    0    0  0.37072108801E+02 -0.48935091071E+01  0.31842541438E+02  0.49114510357E+02  0.00000000000E+00 0. -1.
        -14    1    5    5    0    0 -0.12297885529E+01 -0.39830756257E+02 -0.32231341046E+02  0.51252910839E+02  0.00000000000E+00 0.  1.
          5    1    4    4  501    0 -0.90027004383E+02  0.53004047028E+02 -0.45065037306E+03  0.46262027804E+03  0.41800000000E+01 0. -1.
         -5    1    4    4    0  501  0.54541622739E+01  0.19948173099E+02 -0.33507583237E+01  0.21362993176E+02  0.41800000000E+01 0. -1.
</event>
<event>
11    1  0.1002087E-008  0.1336281E+03  0.7561462E-02  0.1114890E+00
         22   -1    0    0    0    0  0.00000000000E+00  0.00000000000E+00  0.48279470295E+03  0.48279470295E+03  0.00000000000E+00 0. -1.
         22   -1    0    0    0    0 -0.00000000000E+00 -0.00000000000E+00 -0.40034226721E+03  0.40034226721E+03  0.00000000000E+00 0.  1.
         24    2    1    2    0    0 -0.20747475659E+02 -0.19705421798E+02 -0.33556644343E+03  0.34635566320E+03  0.80861895091E+02 0.  0.
         25    2    1    2    0    0  0.57029013104E+02 -0.95821830157E+01  0.32903314733E+02  0.14168205557E+03  0.12508816964E+03 0.  0.
        -24    2    1    2    0    0 -0.36281537445E+02  0.29287604814E+02  0.38511556443E+03  0.39509925139E+03  0.74935350292E+02 0.  0.
        -13    1    3    3    0    0 -0.48045668077E+02 -0.18622958341E+02 -0.27672068919E+03  0.28147742472E+03  0.00000000000E+00 0.  1.
         14    1    3    3    0    0  0.27298192417E+02 -0.10824634579E+01 -0.58845754235E+02  0.64878238477E+02  0.00000000000E+00 0. -1.
         11    1    5    5    0    0 -0.35093037420E+02  0.47253701986E+02  0.18413013200E+03  0.19330892151E+03  0.00000000000E+00 0. -1.
        -12    1    5    5    0    0 -0.11885000241E+01 -0.17966097172E+02  0.20098543243E+03  0.20179032987E+03  0.00000000000E+00 0.  1.
          5    1    4    4  501    0 -0.20831272720E+02 -0.35749173791E+00  0.55953268064E+02  0.59852404551E+02  0.41800000000E+01 0.  1.
         -5    1    4    4    0  501  0.77860285824E+02 -0.92246912778E+01 -0.23049953331E+02  0.81829651022E+02  0.41800000000E+01 0.  1.
</event>
<event>
11    1  0.1002087E-008  0.1478018E+03  0.7561462E-02  0.1099146E+00
         22   -1    0    0    0    0  0.00000000000E+00  0.00000000000E+00  0.41843823980E+03  0.41843823980E+03  0.00000000000E+00 0.  1.
         22   -1    0    0    0    0 -0.00000000000E+00 -0.00000000000E+00 -0.35566330654E+03  0.35566330654E+03  0.00000000000E+00 0.  1.
        -24    2    1    2    0    0  0.49210295624E+02 -0.65333219935E+02 -0.29903853267E+03  0.31658773364E+03  0.64137869023E+02 0.  0.
         25    2    1    2    0    0 -0.56753863224E+02  0.27468693918E+01  0.79807317461E+02  0.15888244107E+03  0.12508347564E+03 0.  0.
         24    2    1    2    0    0  0.75435675997E+01  0.62586350543E+02  0.28200614847E+03  0.29863137163E+03  0.75360942534E+02 0.  0.
        -11    1    5    5    0    0  0.18614607825E+02  0.24545610850E+02  0.23563426040E+03  0.23763942289E+03  0.00000000000E+00 0.  1.
         12    1    5    5    0    0 -0.11071040225E+02  0.38040739693E+02  0.46371888072E+02  0.60991948742E+02  0.00000000000E+00 0. -1.
         11    1    3    3    0    0  0.22575267591E+02  0.53271901419E+01 -0.35198257526E+02  0.42153754215E+02  0.00000000000E+00 0. -1.
        -12    1    3    3    0    0  0.26635028034E+02 -0.70660410077E+02 -0.26384027515E+03  0.27443397942E+03  0.00000000000E+00 0.  1.
          5    1    4    4  501    0 -0.86546710393E+00 -0.86247858076E+01 -0.31936902420E+02  0.33355270943E+02  0.41800000000E+01 0.  1.
         -5    1    4    4    0  501 -0.55888396120E+02  0.11371655199E+02  0.11174421988E+03  0.12552717013E+03  0.41800000000E+01 0.  1.
</event>
<event>
11    1  0.1002087E-008  0.1599799E+03  0.7561462E-02  0.1087096E+00
         22   -1    0    0    0    0  0.00000000000E+00  0.00000000000E+00  0.10355253837E+04  0.10355253837E+04  0.00000000000E+00 0. -1.
         22   -1    0    0    0    0 -0.00000000000E+00 -0.00000000000E+00 -0.44213936375E+03  0.44213936375E+03  0.00000000000E+00 0.  1.
         24    2    1    2    0    0  0.44393136254E+02 -0.95396294303E+02 -0.38516950791E+03  0.40740313219E+03  0.80935522380E+02 0.  0.
         25    2    1    2    0    0 -0.63006064514E+02  0.15442992536E+02  0.75350778201E+02  0.15979074671E+03  0.12508833988E+03 0.  0.
        -24    2    1    2    0    0  0.18612928260E+02  0.79953301768E+02  0.90320474966E+03  0.91047086855E+03  0.80245941353E+02 0.  0.
        -13    1    3    3    0    0  0.30429357694E+02 -0.10724781195E+03 -0.35516671297E+03  0.37225184080E+03  0.00000000000E+00 0.  1.
         14    1    3    3    0    0  0.13963778559E+02  0.11851517648E+02 -0.30002794940E+02  0.35151291391E+02  0.00000000000E+00 0. -1.
         13    1    5    5    0    0  0.34483145533E+02  0.25565116554E+02  0.62960064184E+03  0.63106230336E+03  0.00000000000E+00 0. -1.
        -14    1    5    5    0    0 -0.15870217273E+02  0.54388185213E+02  0.27360410782E+03  0.27940856519E+03  0.00000000000E+00 0.  1.
          5    1    4    4  501    0 -0.66624157748E+02  0.15699217706E+02  0.10731293841E+03  0.12735298576E+03  0.41800000000E+01 0.  1.
         -5    1    4    4    0  501  0.36180932347E+01 -0.25622517039E+00 -0.31962160211E+02  0.32437760948E+02  0.41800000000E+01 0.  1.
</event>
<event>
11    1  0.1002087E-008  0.1266851E+03  0.7561462E-02  0.1123410E+00
         22   -1    0    0    0    0  0.00000000000E+00  0.00000000000E+00  0.57894480722E+02  0.57894480722E+02  0.00000000000E+00 0. -1.
         22   -1    0    0    0    0 -0.00000000000E+00 -0.00000000000E+00 -0.90539314535E+03  0.90539314535E+03  0.00000000000E+00 0. -1.
         24    2    1    2    0    0  0.35518179105E+01 -0.22916178247E+02 -0.65914759716E+03  0.66436665674E+03  0.79810607776E+02 0.  0.
         25    2    1    2    0    0 -0.28393072370E-01 -0.16035397879E+01 -0.17386822616E+03  0.21419577213E+03  0.12508835511E+03 0.  0.
        -24    2    1    2    0    0 -0.35234248382E+01  0.24519718035E+02 -0.14482841306E+02  0.84725197200E+02  0.79718098655E+02 0.  0.
        -13    1    3    3    0    0 -0.11635290151E+02  0.15760164636E+02 -0.48498392202E+02  0.52305418576E+02  0.00000000000E+00 0.  1.
         14    1    3    3    0    0  0.15187108061E+02 -0.38676342883E+02 -0.61064920496E+03  0.61206123816E+03  0.00000000000E+00 0. -1.
         13    1    5    5    0    0  0.27681743966E+02  0.42618900454E+01  0.19667703349E+02  0.34223693705E+02  0.00000000000E+00 0. -1.
        -14    1    5    5    0    0 -0.31205168804E+02  0.20257827990E+02 -0.34150544655E+02  0.50501503495E+02  0.00000000000E+00 0.  1.
          5    1    4    4  501    0 -0.23118719065E+02  0.28176665951E+02 -0.17239244226E+03  0.17625273395E+03  0.41800000000E+01 0. -1.
         -5    1    4    4    0  501  0.23090325992E+02 -0.29780205738E+02 -0.14757839006E+01  0.37943038181E+02  0.41800000000E+01 0. -1.
</event>
<event>
11    1  0.1002087E-008  0.1311893E+03  0.7561462E-02  0.1117816E+00
         22   -1    0    0    0    0  0.00000000000E+00  0.00000000000E+00  0.20533020207E+03  0.20533020207E+03  0.00000000000E+00 0. -1.
         22   -1    0    0    0    0 -0.00000000000E+00 -0.00000000000E+00 -0.46440445506E+03  0.46440445506E+03  0.00000000000E+00 0.  1.
        -24    2    1    2    0    0  0.33795108093E+02 -0.16764210630E+02 -0.38086795995E+03  0.39145636601E+03  0.82185981038E+02 0.  0.
         25    2    1    2    0    0 -0.62313881898E+02  0.25970805110E+02  0.16929165474E+02  0.14314108392E+03  0.12508105639E+03 0.  0.
         24    2    1    2    0    0  0.28518773805E+02 -0.92065944804E+01  0.10486454149E+03  0.13513720720E+03  0.79796057959E+02 0.  0.
        -13    1    5    5    0    0  0.35775499405E+01 -0.30321857585E+02  0.61383976508E+01  0.31143118610E+02  0.00000000000E+00 0.  1.
         14    1    5    5    0    0  0.24941223865E+02  0.21115263105E+02  0.98726143838E+02  0.10399408859E+03  0.00000000000E+00 0. -1.
         11    1    3    3    0    0 -0.20005131360E+02 -0.29259720113E+01 -0.29742220155E+02  0.35963401573E+02  0.00000000000E+00 0. -1.
        -12    1    3    3    0    0  0.53800239453E+02 -0.13838238618E+02 -0.35112573980E+03  0.35549296443E+03  0.00000000000E+00 0.  1.
          5    1    4    4  501    0 -0.15393909642E+02 -0.49444627474E+02  0.15479858934E+02  0.54211088097E+02  0.41800000000E+01 0.  1.
         -5    1    4    4    0  501 -0.46919972256E+02  0.75415432584E+02  0.14493065394E+01  0.88929995827E+02  0.41800000000E+01 0.  1.
</event>
<event>
11    1  0.1002087E-008  0.3046854E+03  0.7561462E-02  0.9982275E-01
         22   -1    0    0    0    0  0.00000000000E+00  0.00000000000E+00  0.49857675372E+03  0.49857675372E+03  0.00000000000E+00 0. -1.
         22   -1    0    0    0    0 -0.00000000000E+00 -0.00000000000E+00 -0.15163975997E+04  0.15163975997E+04  0.00000000000E+00 0. -1.
        -24    2    1    2    0    0 -0.14498018463E+03 -0.21973966920E+03 -0.98599290885E+03  0.10235602563E+04  0.78668963485E+02 0.  0.
         25    2    1    2    0    0  0.22148471997E+03  0.24221504280E+03 -0.44284530030E+03  0.56522845325E+03  0.12509051213E+03 0.  0.
         24    2    1    2    0    0 -0.76504535341E+02 -0.22475373602E+02  0.41101736317E+03  0.42618564387E+03  0.79629415851E+02 0.  0.
        -13    1    5    5    0    0 -0.50640090024E+01 -0.24412487310E+02  0.32400329858E+02  0.40882699260E+02  0.00000000000E+00 0.  1.
         14    1    5    5    0    0 -0.71440526339E+02  0.19371137076E+01  0.37861703331E+03  0.38530294461E+03  0.00000000000E+00 0. -1.
         11    1    3    3    0    0 -0.11749502273E+03 -0.21737716465E+03 -0.87954088841E+03  0.91359185989E+03  0.00000000000E+00 0. -1.
        -12    1    3    3    0    0 -0.27485161896E+02 -0.23625045510E+01 -0.10645202044E+03  0.10996839640E+03  0.00000000000E+00 0.  1.
          5    1    4    4  501    0  0.79793749904E+02  0.12992377947E+03 -0.11576482622E+03  0.19148419879E+03  0.41800000000E+01 0. -1.
         -5    1    4    4    0  501  0.14169097007E+03  0.11229126333E+03 -0.32708047408E+03  0.37374425446E+03  0.41800000000E+01 0. -1.
</event>
<event>
11    1  0.1002087E-008  0.1549148E+03  0.7561462E-02  0.1091960E+00
         22   -1    0    0    0    0  0.00000000000E+00  0.00000000000E+00  0.58554141779E+03  0.58554141779E+03  0.00000000000E+00 0. -1.
         22   -1    0    0    0    0 -0.00000000000E+00 -0.00000000000E+00 -0.65774919934E+03  0.65774919934E+03  0.00000000000E+00 0. -1.
         24    2    1    2    0    0 -0.88923921279E+02  0.36204977453E+02 -0.60814931741E+03  0.62104616042E+03  0.81452298603E+02 0.  0.
         25    2    1    2    0    0  0.16012838625E+02  0.15047783209E+02  0.78909024855E+02  0.14952731745E+03  0.12509571407E+03 0.  0.
        -24    2    1    2    0    0  0.72911082653E+02 -0.51252760663E+02  0.45703251100E+03  0.47271713926E+03  0.81485619541E+02 0.  0.
        -13    1    3    3    0    0 -0.48046107855E+02  0.18014145427E+02 -0.11569333589E+03  0.12656178682E+03  0.00000000000E+00 0.  1.
         14    1    3    3    0    0 -0.40877813424E+02  0.18190832027E+02 -0.49245598152E+03  0.49448437360E+03  0.00000000000E+00 0. -1.
         11    1    5    5    0    0  0.87186162499E+02 -0.55852459515E+02  0.42366328724E+03  0.43613243989E+03  0.00000000000E+00 0. -1.
        -12    1    5    5    0    0 -0.14275079846E+02  0.45996988527E+01  0.33369223755E+02  0.36584699372E+02  0.00000000000E+00 0.  1.
          5    1    4    4  501    0  0.47317810759E+01  0.47722024624E+02 -0.14144498091E+02  0.50172907157E+02  0.41800000000E+01 0.  1.
         -5    1    4    4    0  501  0.11281057550E+02 -0.32674241415E+02  0.93053522946E+02  0.99354410290E+02  0.41800000000E+01 0.  1.
</event>
<event>
11    1  0.1002087E-008  0.1532271E+03  0.7561462E-02  0.1093626E+00
         22   -1    0    0    0    0  0.00000000000E+00  0.00000000000E+00  0.13483733875E+04  0.13483733875E+04  0.00000000000E+00 0. -1.
         22   -1    0    0    0    0 -0.00000000000E+00 -0.00000000000E+00 -0.13960230560E+03  0.13960230560E+03  0.00000000000E+00 0. -1.
        -24    2    1    2    0    0 -0.26848764428E+02 -0.40991219096E+02 -0.72594080409E+02  0.10977585560E+03  0.66179315255E+02 0.  0.
         25    2    1    2    0    0  0.85599431807E+02  0.10312831494E+03  0.13955226329E+03  0.23040026712E+03  0.12508691712E+03 0.  0.
         24    2    1    2    0    0 -0.58750667380E+02 -0.62137095840E+02  0.11418128990E+04  0.11477995704E+04  0.79965603782E+02 0.  0.
        -13    1    5    5    0    0 -0.61614909327E+02 -0.50750289534E+02  0.53961802326E+03  0.54549023819E+03  0.00000000000E+00 0.  1.
         14    1    5    5    0    0  0.28642419474E+01 -0.11386806306E+02  0.60219487574E+03  0.60230933216E+03  0.00000000000E+00 0. -1.
         13    1    3    3    0    0 -0.42416466172E+02 -0.25569184285E+02 -0.72573328782E+02  0.87862550828E+02  0.00000000000E+00 0. -1.
        -14    1    3    3    0    0  0.15567701744E+02 -0.15422034811E+02 -0.20751626645E-01  0.21913304770E+02  0.00000000000E+00 0.  1.
          5    1    4    4  501    0  0.86050658933E+02  0.63218988386E+01  0.68389758460E+02  0.11017855404E+03  0.41800000000E+01 0.  1.
         -5    1    4    4    0  501 -0.45122712512E+00  0.96806416097E+02  0.71162504828E+02  0.12022171308E+03  0.41800000000E+01 0.  1.
</event>
<event>
11    1  0.1002087E-008  0.1395730E+03  0.7561462E-02  0.1108036E+00
         22   -1    0    0    0    0  0.00000000000E+00  0.00000000000E+00  0.34941604800E+03  0.34941604800E+03  0.00000000000E+00 0.  1.
         22   -1    0    0    0    0 -0.00000000000E+00 -0.00000000000E+00 -0.28859822234E+03  0.28859822234E+03  0.00000000000E+00 0. -1.
        -24    2    1    2    0    0 -0.48598386087E+01 -0.28428109887E+02 -0.23353264898E+03  0.24897618990E+03  0.81362580687E+02 0.  0.
         25    2    1    2    0    0  0.50169500289E+02 -0.20372669295E+02  0.10376997983E+03  0.17131033532E+03  0.12508796049E+03 0.  0.
         24    2    1    2    0    0 -0.45309661681E+02  0.48800779181E+02  0.19058049480E+03  0.21772774511E+03  0.81547314500E+02 0.  0.
        -11    1    5    5    0    0 -0.49371878999E+02  0.30026928927E+02  0.18991086217E+03  0.19850776928E+03  0.00000000000E+00 0.  1.
         12    1    5    5    0    0  0.40622173186E+01  0.18773850255E+02  0.66963263305E+00  0.19219975827E+02  0.00000000000E+00 0. -1.
         13    1    3    3    0    0  0.24400117377E+02 -0.44900930306E+02 -0.11635614678E+03  0.12708348502E+03  0.00000000000E+00 0. -1.
        -14    1    3    3    0    0 -0.29259955986E+02  0.16472820420E+02 -0.11717650220E+03  0.12189270489E+03  0.00000000000E+00 0.  1.
          5    1    4    4  501    0  0.62562428966E+02 -0.43356230874E+02  0.13718528602E+02  0.77456379342E+02  0.41800000000E+01 0. -1.
         -5    1    4    4    0  501 -0.12392928677E+02  0.22983561580E+02  0.90051451233E+02  0.93853955981E+02  0.41800000000E+01 0. -1.
</event>
<event>
11    1  0.1002087E-008  0.1396453E+03  0.7561462E-02  0.1107955E+00
         22   -1    0    0    0    0  0.00000000000E+00  0.00000000000E+00  0.62942810191E+03  0.62942810191E+03  0.00000000000E+00 0. -1.
         22   -1    0    0    0    0 -0.00000000000E+00 -0.00000000000E+00 -0.96340053797E+03  0.96340053797E+03  0.00000000000E+00 0. -1.
        -24    2    1    2    0    0 -0.45368660444E+02  0.42549348425E+02 -0.89387966951E+03  0.89944840454E+03  0.78216407882E+02 0.  0.
         25    2    1    2    0    0  0.34384273389E+02 -0.49206627738E+02  0.11005349399E+02  0.13918300629E+03  0.12508885264E+03 0.  0.
         24    2    1    2    0    0  0.10984387055E+02  0.66572793127E+01  0.54890188405E+03  0.55419722905E+03  0.75341318287E+02 0.  0.
        -13    1    5    5    0    0  0.24851484694E+02 -0.16935620993E+02  0.99076558012E+02  0.10354021391E+03  0.00000000000E+00 0.  1.
         14    1    5    5    0    0 -0.13867097639E+02  0.23592900305E+02  0.44982532604E+03  0.45065701514E+03  0.00000000000E+00 0. -1.
         13    1    3    3    0    0 -0.60540480770E+02  0.69521538966E+01 -0.51223351010E+03  0.51584556906E+03  0.00000000000E+00 0. -1.
        -14    1    3    3    0    0  0.15171820326E+02  0.35597194529E+02 -0.38164615941E+03  0.38360283548E+03  0.00000000000E+00 0.  1.
          5    1    4    4  501    0 -0.31368556892E+02 -0.61121792295E+02 -0.87324003307E+01  0.69380019245E+02  0.41800000000E+01 0.  1.
         -5    1    4    4    0  501  0.65752830281E+02  0.11915164557E+02  0.19737749729E+02  0.69802987048E+02  0.41800000000E+01 0.  1.
</event>
<event>
11    1  0.1002087E-008  0.1264639E+03  0.7561462E-02  0.1123692E+00
         22   -1    0    0    0    0  0.00000000000E+00  0.00000000000E+00  0.47865053254E+02  0.47865053254E+02  0.00000000000E+00 0. -1.
         22   -1    0    0    0    0 -0.00000000000E+00 -0.00000000000E+00 -0.23453715392E+04  0.23453715392E+04  0.00000000000E+00 0.  1.
        -24    2    1    2    0    0 -0.20998272346E+02  0.17227116639E+01 -0.19530574198E+04  0.19548508631E+04  0.81022940955E+02 0.  0.
         25    2    1    2    0    0  0.32138671457E+01 -0.12504335716E+02 -0.33011695192E+03  0.35325272748E+03  0.12507437856E+03 0.  0.
         24    2    1    2    0    0  0.17784405200E+02  0.10781624052E+02 -0.14332114220E+02  0.85133001815E+02  0.81300000089E+02 0.  0.
        -13    1    5    5    0    0 -0.87385800890E+01 -0.24806592611E+02 -0.28269015066E+02  0.38611747328E+02  0.00000000000E+00 0.  1.
         14    1    5    5    0    0  0.26522985289E+02  0.35588216663E+02  0.13936900845E+02  0.46521254488E+02  0.00000000000E+00 0. -1.
         13    1    3    3    0    0 -0.20193023048E+02  0.26781444455E+02 -0.35137531393E+03  0.35297254169E+03  0.00000000000E+00 0. -1.
        -14    1    3    3    0    0 -0.80524929769E+00 -0.25058732792E+02 -0.16016821059E+04  0.16018783215E+04  0.00000000000E+00 0.  1.
          5    1    4    4  501    0  0.82859255215E+01 -0.48205582865E+02 -0.47484308264E+02  0.68298365371E+02  0.41800000000E+01 0. -1.
         -5    1    4    4    0  501 -0.50720583759E+01  0.35701247149E+02 -0.28263264366E+03  0.28495436211E+03  0.41800000000E+01 0. -1.
</event>
<event>
11    1  0.1002087E-008  0.1318805E+03  0.7561462E-02  0.1116980E+00
         22   -1    0    0    0    0  0.00000000000E+00  0.00000000000E+00  0.36449922749E+03  0.36449922749E+03  0.00000000000E+00 0.  1.
         22   -1    0    0    0    0 -0.00000000000E+00 -0.00000000000E+00 -0.12483578614E+03  0.12483578614E+03  0.00000000000E+00 0.  1.
        -24    2    1    2    0    0 -0.88236235677E+01  0.14306895366E+02 -0.58879004741E+02  0.98431106114E+02  0.77067514970E+02 0.  0.
         25    2    1    2    0    0  0.36118016223E+02  0.19591562398E+02  0.12777056661E+03  0.18347027902E+03  0.12509070780E+03 0.  0.
         24    2    1    2    0    0 -0.27294392655E+02 -0.33898457764E+02  0.17077187947E+03  0.20743362849E+03  0.10941474354E+03 0.  0.
        -13    1    5    5    0    0 -0.53429066411E+01 -0.21569223847E+02  0.17943670622E+03  0.18080738261E+03  0.00000000000E+00 0.  1.
         14    1    5    5    0    0 -0.21951486014E+02 -0.12329233917E+02 -0.86648267492E+01  0.26626245883E+02  0.00000000000E+00 0. -1.
         13    1    3    3    0    0 -0.14524896544E+02  0.15980751545E+01  0.16347211598E+02  0.21926189610E+02  0.00000000000E+00 0. -1.
        -14    1    3    3    0    0  0.57012729760E+01  0.12708820211E+02 -0.75226216338E+02  0.76504916504E+02  0.00000000000E+00 0.  1.
          5    1    4    4  501    0  0.61188767026E+02 -0.34512274535E+02  0.55138374091E+02  0.89402880273E+02  0.41800000000E+01 0.  1.
         -5    1    4    4    0  501 -0.25070750804E+02  0.54103836933E+02  0.72632192524E+02  0.94067398750E+02  0.41800000000E+01 0.  1.
</event>
<event>
11    1  0.1002087E-008  0.1903978E+03  0.7561462E-02  0.1061529E+00
         22   -1    0    0    0    0  0.00000000000E+00  0.00000000000E+00  0.72567013936E+03  0.72567013936E+03  0.00000000000E+00 0.  1.
         22   -1    0    0    0    0 -0.00000000000E+00 -0.00000000000E+00 -0.24938348206E+04  0.24938348206E+04  0.00000000000E+00 0. -1.
        -24    2    1    2    0    0  0.81438905109E+02 -0.11487394050E+03 -0.22906231176E+04  0.22957523801E+04  0.60798079942E+02 0.  0.
         25    2    1    2    0    0 -0.18441062555E+03  0.19260693980E+03 -0.78528758488E+02  0.30482577265E+03  0.12508906302E+03 0.  0.
         24    2    1    2    0    0  0.10297172044E+03 -0.77732999293E+02  0.60098719479E+03  0.61892680722E+03  0.72382249221E+02 0.  0.
        -13    1    5    5    0    0  0.95238120731E+02 -0.73838025655E+02  0.59759892225E+03  0.60962843237E+03  0.00000000000E+00 0.  1.
         14    1    5    5    0    0  0.77335997110E+01 -0.38949736382E+01  0.33882725413E+01  0.92983748551E+01  0.00000000000E+00 0. -1.
         13    1    3    3    0    0  0.22370088263E+02 -0.82170335056E+02 -0.11677196356E+04  0.11708208796E+04  0.00000000000E+00 0. -1.
        -14    1    3    3    0    0  0.59068816846E+02 -0.32703605446E+02 -0.11229034820E+04  0.11249315005E+04  0.00000000000E+00 0.  1.
          5    1    4    4  501    0 -0.13825201347E+03  0.19209345647E+03 -0.95803252765E+02  0.25536102069E+03  0.41800000000E+01 0. -1.
         -5    1    4    4    0  501 -0.46158612077E+02  0.51348332916E+00  0.17274494278E+02  0.49464751961E+02  0.41800000000E+01 0. -1.
</event>
<event>
11    1  0.1002087E-008  0.2057193E+03  0.7561462E-02  0.1050551E+00
         22   -1    0    0    0    0  0.00000000000E+00  0.00000000000E+00  0.78339916903E+03  0.78339916903E+03  0.00000000000E+00 0.  1.
         22   -1    0    0    0    0 -0.00000000000E+00 -0.00000000000E+00 -0.15274707152E+03  0.15274707152E+03  0.00000000000E+00 0. -1.
        -24    2    1    2    0    0  0.53470674777E+01  0.90894534314E+01 -0.55596354640E+02  0.11756775072E+03  0.10305344277E+03 0.  0.
         25    2    1    2    0    0  0.15918366995E+03 -0.86099866024E+01  0.14994524414E+03  0.25208067122E+03  0.12509003123E+03 0.  0.
         24    2    1    2    0    0 -0.16453073743E+03 -0.47946682898E+00  0.53630320801E+03  0.56649781860E+03  0.78918021458E+02 0.  0.
        -13    1    5    5    0    0 -0.64249116713E+02  0.29254716937E+01  0.34008053972E+03  0.34610877030E+03  0.00000000000E+00 0.  1.
         14    1    5    5    0    0 -0.10028162072E+03 -0.34049385227E+01  0.19622266829E+03  0.22038904830E+03  0.00000000000E+00 0. -1.
         13    1    3    3    0    0  0.38457203786E+02  0.30595811552E+02 -0.60319821032E+02  0.77804505119E+02  0.00000000000E+00 0. -1.
        -14    1    3    3    0    0 -0.33110136308E+02 -0.21506358121E+02  0.47234663922E+01  0.39763245601E+02  0.00000000000E+00 0.  1.
          5    1    4    4  501    0  0.31190501062E+02  0.37476266267E+02  0.91901787142E+02  0.10411882044E+03  0.41800000000E+01 0.  1.
         -5    1    4    4    0  501  0.12799316889E+03 -0.46086252869E+02  0.58043457001E+02  0.14796185078E+03  0.41800000000E+01 0.  1.
</event>
<event>
11    1  0.1002087E-008  0.2708162E+03  0.7561462E-02  0.1013360E+00
         22   -1    0    0    0    0  0.00000000000E+00  0.00000000000E+00  0.35548028240E+03  0.35548028240E+03  0.00000000000E+00 0. -1.
         22   -1    0    0    0    0 -0.00000000000E+00 -0.00000000000E+00 -0.47865944032E+03  0.47865944032E+03  0.00000000000E+00 0. -1.
        -24    2    1    2    0    0 -0.26259825954E+02  0.22860142461E+03 -0.27944243413E+03  0.37110739876E+03  0.81758410169E+02 0.  0.
         25    2    1    2    0    0 -0.18899562568E+02 -0.29103039389E+03  0.10087682218E+03  0.33298616305E+03  0.12509103844E+03 0.  0.
         24    2    1    2    0    0  0.45159388521E+02  0.62428969279E+02  0.55386454031E+02  0.13004616090E+03  0.88924676542E+02 0.  0.
        -13    1    5    5    0    0 -0.99795418072E+00  0.69858750763E+02  0.41561994425E+02  0.81293544340E+02  0.00000000000E+00 0.  1.
         14    1    5    5    0    0  0.46157342702E+02 -0.74297814836E+01  0.13824459606E+02  0.48752616562E+02  0.00000000000E+00 0. -1.
         11    1    3    3    0    0  0.19626649113E+02  0.15428705435E+03 -0.19708176605E+03  0.25105960050E+03  0.00000000000E+00 0. -1.
        -12    1    3    3    0    0 -0.45886475066E+02  0.74314370259E+02 -0.82360668079E+02  0.12004779826E+03  0.00000000000E+00 0.  1.
          5    1    4    4  501    0 -0.27151406274E+02 -0.96907347329E+02  0.95145762119E+02  0.13855836777E+03  0.41800000000E+01 0. -1.
         -5    1    4    4    0  501  0.82518437059E+01 -0.19412304656E+03  0.57310600597E+01  0.19442779528E+03  0.41800000000E+01 0. -1.
</event>
<event>
11    1  0.1002087E-008  0.1536478E+03  0.7561462E-02  0.1093209E+00
         22   -1    0    0    0    0  0.00000000000E+00  0.00000000000E+00  0.48443289967E+03  0.48443289967E+03  0.00000000000E+00 0.  1.
         22   -1    0    0    0    0 -0.00000000000E+00 -0.00000000000E+00 -0.58304740383E+03  0.58304740383E+03  0.00000000000E+00 0.  1.
        -24    2    1    2    0    0  0.55453204711E+02  0.71588493298E+02 -0.54266762965E+03  0.55493967580E+03  0.72594195525E+02 0.  0.
         25    2    1    2    0    0 -0.22203354923E+02 -0.49791093224E+02  0.13871187533E+03  0.19457797128E+03  0.12508981020E+03 0.  0.
         24    2    1    2    0    0 -0.33249849788E+02 -0.21797400074E+02  0.30534125016E+03  0.31796265642E+03  0.79286144243E+02 0.  0.
        -13    1    5    5    0    0 -0.40902329266E+02  0.16047025584E+02  0.21925873295E+03  0.22361775320E+03  0.00000000000E+00 0.  1.
         14    1    5    5    0    0  0.76524794780E+01 -0.37844425658E+02  0.86082517206E+02  0.94344903222E+02  0.00000000000E+00 0. -1.
         13    1    3    3    0    0  0.58828457007E+02  0.35212582846E+02 -0.22597766536E+03  0.23614956826E+03  0.00000000000E+00 0. -1.
        -14    1    3    3    0    0 -0.33752522957E+01  0.36375910452E+02 -0.31668996428E+03  0.31879010754E+03  0.00000000000E+00 0.  1.
          5    1    4    4  501    0  0.86374339213E+01  0.17797292523E+02 -0.14074332292E+02  0.24635505178E+02  0.41800000000E+01 0.  1.
         -5    1    4    4    0  501 -0.30840788845E+02 -0.67588385746E+02  0.15278620763E+03  0.16994246610E+03  0.41800000000E+01 0.  1.
</event>
<event>
11    1  0.1002087E-008  0.1067972E+04  0.7561462E-02  0.8616922E-01
         22   -1    0    0    0    0  0.00000000000E+00  0.00000000000E+00  0.68737242038E+03  0.68737242038E+03  0.00000000000E+00 0. -1.
         22   -1    0    0    0    0 -0.00000000000E+00 -0.00000000000E+00 -0.41482761206E+03  0.41482761206E+03  0.00000000000E+00 0.  1.
         24    2    1    2    0    0 -0.20069700341E+03 -0.14833898249E+03 -0.60303710001E+02  0.27393283133E+03  0.95493024539E+02 0.  0.
         25    2    1    2    0    0  0.19272910505E+03  0.36064236709E+03  0.40630174179E+03  0.58986132707E+03  0.12509138628E+03 0.  0.
        -24    2    1    2    0    0  0.79678983609E+01 -0.21230338460E+03 -0.73453223467E+02  0.23840587404E+03  0.79408880005E+02 0.  0.
        -13    1    3    3    0    0 -0.73423847658E+02 -0.19415538336E+02  0.15564299495E+02  0.77525943738E+02  0.00000000000E+00 0.  1.
         14    1    3    3    0    0 -0.12727315575E+03 -0.12892344416E+03 -0.75868009496E+02  0.19640688759E+03  0.00000000000E+00 0. -1.
         11    1    5    5    0    0  0.25465509866E+02 -0.34074572603E+02 -0.35353698996E+02  0.55312319817E+02  0.00000000000E+00 0. -1.
        -12    1    5    5    0    0 -0.17497611506E+02 -0.17822881200E+03 -0.38099524472E+02  0.18309355423E+03  0.00000000000E+00 0.  1.
          5    1    4    4  501    0  0.17378142449E+03  0.28193680734E+03  0.38121616817E+03  0.50500652086E+03  0.41800000000E+01 0.  1.
         -5    1    4    4    0  501  0.18947680555E+02  0.78705559754E+02  0.25085573619E+02  0.84854806218E+02  0.41800000000E+01 0.  1.
</event>
<event>
11    1  0.1002087E-008  0.1587730E+03  0.7561462E-02  0.1088237E+00
         22   -1    0    0    0    0  0.00000000000E+00  0.00000000000E+00  0.81670997115E+03  0.81670997115E+03  0.00000000000E+00 0.  1.
         22   -1    0    0    0    0 -0.00000000000E+00 -0.00000000000E+00 -0.16039610760E+03  0.16039610760E+03  0.00000000000E+00 0.  1.
        -24    2    1    2    0    0  0.49083544756E+02 -0.25955402773E+02 -0.99931482049E+02  0.13977371971E+03  0.80420857487E+02 0.  0.
         25    2    1    2    0    0  0.55806207576E+02  0.77537407539E+01  0.10515969520E+03  0.17286000044E+03  0.12509022726E+03 0.  0.
         24    2    1    2    0    0 -0.10488975233E+03  0.18201662019E+02  0.65108565040E+03  0.66447235860E+03  0.79232761787E+02 0.  0.
        -13    1    5    5    0    0 -0.13621827898E+02  0.26285620767E+02  0.30603824870E+03  0.30746690508E+03  0.00000000000E+00 0.  1.
         14    1    5    5    0    0 -0.91267924434E+02 -0.80839587482E+01  0.34504740170E+03  0.35700545352E+03  0.00000000000E+00 0. -1.
         13    1    3    3    0    0  0.99282311803E+01 -0.27318414940E+02  0.33993152614E+01  0.29264670056E+02  0.00000000000E+00 0. -1.
        -14    1    3    3    0    0  0.39155313575E+02  0.13630121674E+01 -0.10333079731E+03  0.11050904966E+03  0.00000000000E+00 0.  1.
          5    1    4    4  501    0 -0.42008007928E+01  0.30787266634E+02 -0.16330849941E+02  0.35350694108E+02  0.41800000000E+01 0.  1.
         -5    1    4    4    0  501  0.60007008369E+02 -0.23033525880E+02  0.12149054515E+03  0.13750930633E+03  0.41800000000E+01 0.  1.
</event>
<event>
11    1  0.1002087E-008  0.2755978E+03  0.7561462E-02  0.1011083E+00
         22   -1    0    0    0    0  0.00000000000E+00  0.00000000000E+00  0.21280357164E+04  0.21280357164E+04  0.00000000000E+00 0.  1.
         22   -1    0    0    0    0 -0.00000000000E+00 -0.00000000000E+00 -0.13676779045E+03  0.13676779045E+03  0.00000000000E+00 0. -1.
         24    2    1    2    0    0  0.12906347754E+03 -0.21766882211E+02 -0.42757142328E+01  0.15339599655E+03  0.79880358220E+02 0.  0.
         25    2    1    2    0    0 -0.10468960053E+02  0.24424496672E+03  0.35106094172E+03  0.44571197058E+03  0.12510065158E+03 0.  0.
        -24    2    1    2    0    0 -0.11859451748E+03 -0.22247808451E+03  0.16444826984E+04  0.16656955397E+04  0.81591223959E+02 0.  0.
        -13    1    3    3    0    0  0.10609659505E+03  0.13950778726E+02  0.12501082169E+02  0.10773759216E+03  0.00000000000E+00 0.  1.
         14    1    3    3    0    0  0.22966882486E+02 -0.35717660937E+02 -0.16776796401E+02  0.45658404389E+02  0.00000000000E+00 0. -1.
         11    1    5    5    0    0 -0.10510280255E+02 -0.10008915628E+03  0.55616014677E+03  0.56519236907E+03  0.00000000000E+00 0. -1.
        -12    1    5    5    0    0 -0.10808423723E+03 -0.12238892824E+03  0.10883225516E+04  0.11005031706E+04  0.00000000000E+00 0.  1.
          5    1    4    4  501    0 -0.13857924949E+01  0.25513109635E+03  0.30678681036E+03  0.39903560763E+03  0.41800000000E+01 0.  1.
         -5    1    4    4    0  501 -0.90831675584E+01 -0.10886129625E+02  0.44274131359E+02  0.46676362955E+02  0.41800000000E+01 0.  1.
</event>
<event>
11    1  0.1002087E-008  0.1542969E+03  0.7561462E-02  0.1092567E+00
         22   -1    0    0    0    0  0.00000000000E+00  0.00000000000E+00  0.19238124981E+03  0.19238124981E+03  0.00000000000E+00 0. -1.
         22   -1    0    0    0    0 -0.00000000000E+00 -0.00000000000E+00 -0.75420957183E+03  0.75420957183E+03  0.00000000000E+00 0. -1.
        -24    2    1    2    0    0 -0.33599479542E+01  0.36824396122E+02 -0.45515531371E+03  0.46380154332E+03  0.81106020655E+02 0.  0.
         25    2    1    2    0    0  0.41087143296E+01 -0.12437586876E+03 -0.24392182850E+03  0.30104974408E+03  0.12508737636E+03 0.  0.
         24    2    1    2    0    0 -0.74876637537E+00  0.87551472640E+02  0.13724882019E+03  0.18173953424E+03  0.80784891227E+02 0.  0.
        -13    1    5    5    0    0 -0.16721928713E+02  0.28608341972E+02  0.18299194828E+01  0.33187478596E+02  0.00000000000E+00 0.  1.
         14    1    5    5    0    0  0.15973162337E+02  0.58943130668E+02  0.13541890071E+03  0.14855205565E+03  0.00000000000E+00 0. -1.
         11    1    3    3    0    0 -0.14261673372E+02  0.47154004411E+02 -0.43895539284E+03  0.44171114131E+03  0.00000000000E+00 0. -1.
        -12    1    3    3    0    0  0.10901725418E+02 -0.10329608288E+02 -0.16199920872E+02  0.22090402005E+02  0.00000000000E+00 0.  1.
          5    1    4    4  501    0 -0.12213940160E+02 -0.38119418096E+02  0.15940425528E+01  0.40277583615E+02  0.41800000000E+01 0.  1.
         -5    1    4    4    0  501  0.16322654490E+02 -0.86256450667E+02 -0.24551587106E+03  0.26077216046E+03  0.41800000000E+01 0.  1.
</event>
<event>
11    1  0.1002087E-008  0.1444618E+03  0.7561462E-02  0.1102676E+00
         22   -1    0    0    0    0  0.00000000000E+00  0.00000000000E+00  0.28103827048E+04  0.28103827048E+04  0.00000000000E+00 0.  1.
         22   -1    0    0    0    0 -0.00000000000E+00 -0.00000000000E+00 -0.11995214624E+03  0.11995214624E+03  0.00000000000E+00 0. -1.
        -24    2    1    2    0    0  0.18910765976E+02  0.85681125091E+01 -0.89639357662E+02  0.12458205978E+03  0.83990746842E+02 0.  0.
         25    2    1    2    0    0 -0.89258087572E+02 -0.10773093940E+02  0.50049339295E+03  0.52366425333E+03  0.12509015980E+03 0.  0.
         24    2    1    2    0    0  0.70347321596E+02  0.22049814309E+01  0.22795765233E+04  0.22820885379E+04  0.80655823616E+02 0.  0.
        -11    1    5    5    0    0  0.82522185399E+02 -0.49273680175E+01  0.21742524503E+04  0.21758235010E+04  0.00000000000E+00 0.  1.
         12    1    5    5    0    0 -0.12174863803E+02  0.71323494484E+01  0.10532407299E+03  0.10626503691E+03  0.00000000000E+00 0. -1.
         13    1    3    3    0    0  0.22468265774E+00  0.29003716407E+02 -0.92313055216E+02  0.96762421481E+02  0.00000000000E+00 0. -1.
        -14    1    3    3    0    0  0.18686083318E+02 -0.20435603898E+02  0.26736975536E+01  0.27819638298E+02  0.00000000000E+00 0.  1.
          5    1    4    4  501    0 -0.10766759797E+02  0.47342868431E+02  0.97703719734E+02  0.10918223096E+03  0.41800000000E+01 0.  1.
         -5    1    4    4    0  501 -0.78491327776E+02 -0.58115962371E+02  0.40278967322E+03  0.41448202237E+03  0.41800000000E+01 0.  1.
</event>
<event>
11    1  0.1002087E-008  0.2277431E+03  0.7561462E-02  0.1036473E+00
         22   -1    0    0    0    0  0.00000000000E+00  0.00000000000E+00  0.14114126362E+04  0.14114126362E+04  0.00000000000E+00 0. -1.
         22   -1    0    0    0    0 -0.00000000000E+00 -0.00000000000E+00 -0.50395855958E+03  0.50395855958E+03  0.00000000000E+00 0.  1.
        -24    2    1    2    0    0  0.18583542766E+03 -0.43417489081E+02 -0.42823666296E+03  0.47566831383E+03  0.80335675408E+02 0.  0.
         25    2    1    2    0    0 -0.15571900315E+03  0.13339750020E+03  0.24902294468E+03  0.34598155414E+03  0.12508999890E+03 0.  0.
         24    2    1    2    0    0 -0.30116424509E+02 -0.89980011118E+02  0.10866677949E+04  0.10937213278E+04  0.79850140973E+02 0.  0.
        -11    1    5    5    0    0 -0.30395930480E+02  0.30849409151E+01  0.23258929089E+03  0.23458731356E+03  0.00000000000E+00 0.  1.
         12    1    5    5    0    0  0.27950597145E+00 -0.93064952034E+02  0.85407850401E+03  0.85913401425E+03  0.00000000000E+00 0. -1.
         13    1    3    3    0    0  0.38960146845E+02 -0.85487144729E+01 -0.18612165968E+03  0.19034769703E+03  0.00000000000E+00 0. -1.
        -14    1    3    3    0    0  0.14687528082E+03 -0.34868774609E+02 -0.24211500328E+03  0.28532061680E+03  0.00000000000E+00 0.  1.
          5    1    4    4  501    0 -0.24604667396E+02  0.85116340331E+02  0.47195370661E+02  0.10047415817E+03  0.41800000000E+01 0. -1.
         -5    1    4    4    0  501 -0.13111433576E+03  0.48281159868E+02  0.20182757402E+03  0.24550739597E+03  0.41800000000E+01 0. -1.
</event>
<event>
11    1  0.1002087E-008  0.1535172E+03  0.7561462E-02  0.1093338E+00
         22   -1    0    0    0    0  0.00000000000E+00  0.00000000000E+00  0.62799764897E+03  0.62799764897E+03  0.00000000000E+00 0. -1.
         22   -1    0    0    0    0 -0.00000000000E+00 -0.00000000000E+00 -0.83426861113E+03  0.83426861113E+03  0.00000000000E+00 0.  1.
        -24    2    1    2    0    0  0.32690811101E+02  0.78566516785E+02 -0.67981196809E+03  0.68963655497E+03  0.78821819992E+02 0.  0.
         25    2    1    2    0    0 -0.79440596559E+02 -0.11482744575E+03 -0.84580481689E+02  0.20566831043E+03  0.12509774320E+03 0.  0.
         24    2    1    2    0    0  0.46749785458E+02  0.36260928961E+02  0.55812148761E+03  0.56696139471E+03  0.80282194422E+02 0.  0.
        -13    1    5    5    0    0  0.43641757873E+02 -0.16469091202E+02  0.24139195847E+03  0.24585750265E+03  0.00000000000E+00 0.  1.
         14    1    5    5    0    0  0.31080275844E+01  0.52730020163E+02  0.31672952914E+03  0.32110389206E+03  0.00000000000E+00 0. -1.
         11    1    3    3    0    0  0.31186081747E+02  0.69659908895E+02 -0.29482655539E+03  0.30454518936E+03  0.00000000000E+00 0. -1.
        -12    1    3    3    0    0  0.15047293537E+01  0.89066078905E+01 -0.38498541270E+03  0.38509136561E+03  0.00000000000E+00 0.  1.
          5    1    4    4  501    0  0.33809470584E+02 -0.28107931090E+02 -0.13107257029E+02  0.46069606881E+02  0.41800000000E+01 0.  1.
         -5    1    4    4    0  501 -0.11325006714E+03 -0.86719514656E+02 -0.71473224660E+02  0.15959870355E+03  0.41800000000E+01 0.  1.
</event>
<event>
11    1  0.1002087E-008  0.1637659E+03  0.7561462E-02  0.1083588E+00
         22   -1    0    0    0    0  0.00000000000E+00  0.00000000000E+00  0.15730518094E+04  0.15730518094E+04  0.00000000000E+00 0. -1.
         22   -1    0    0    0    0 -0.00000000000E+00 -0.00000000000E+00 -0.30126532540E+03  0.30126532540E+03  0.00000000000E+00 0.  1.
        -24    2    1    2    0    0 -0.10990275323E+02  0.93694278609E+01 -0.26852358586E+03  0.28221349667E+03  0.85621079243E+02 0.  0.
         25    2    1    2    0    0  0.92642309035E+02  0.57227715652E+02  0.27993907931E+03  0.32537716721E+03  0.12508718541E+03 0.  0.
         24    2    1    2    0    0 -0.81652033712E+02 -0.66597143513E+02  0.12603709905E+04  0.12667264709E+04  0.70417925083E+02 0.  0.
        -13    1    5    5    0    0 -0.31624956436E+01  0.84309527448E+01  0.31690290029E+03  0.31703080380E+03  0.00000000000E+00 0.  1.
         14    1    5    5    0    0 -0.78489538069E+02 -0.75028096258E+02  0.94346809025E+03  0.94969566711E+03  0.00000000000E+00 0. -1.
         11    1    3    3    0    0 -0.38192010922E+02 -0.59394764999E+01 -0.60033317647E+02  0.71399623998E+02  0.00000000000E+00 0. -1.
        -12    1    3    3    0    0  0.27201735599E+02  0.15308904361E+02 -0.20849026822E+03  0.21081387268E+03  0.00000000000E+00 0.  1.
          5    1    4    4  501    0  0.25434080669E+02 -0.62806103976E+01  0.20381150964E+03  0.20553087940E+03  0.41800000000E+01 0.  1.
         -5    1    4    4    0  501  0.67208228366E+02  0.63508326050E+02  0.76127569674E+02  0.11984628781E+03  0.41800000000E+01 0.  1.
</event>
<event>
11    1  0.1002087E-008  0.1443036E+03  0.7561462E-02  0.1102846E+00
         22   -1    0    0    0    0  0.00000000000E+00  0.00000000000E+00  0.36587364561E+03  0.36587364561E+03  0.00000000000E+00 0. -1.
         22   -1    0    0    0    0 -0.00000000000E+00 -0.00000000000E+00 -0.67166009097E+03  0.67166009097E+03  0.00000000000E+00 0.  1.
         24    2    1    2    0    0 -0.43442442984E+02  0.57463562292E+02 -0.62332205936E+03  0.63433668977E+03  0.93077061932E+02 0.  0.
         25    2    1    2    0    0  0.60481144724E+02 -0.41234499282E+02  0.11700543864E+03  0.18626739824E+03  0.12508804171E+03 0.  0.
        -24    2    1    2    0    0 -0.17038701739E+02 -0.16229063009E+02  0.20053017536E+03  0.21692964856E+03  0.79324783971E+02 0.  0.
        -11    1    3    3    0    0 -0.25879161353E+02  0.77954893314E+02 -0.34209775648E+03  0.35182036805E+03  0.00000000000E+00 0.  1.
         12    1    3    3    0    0 -0.17563281631E+02 -0.20491331023E+02 -0.28122430288E+03  0.28251632172E+03  0.00000000000E+00 0. -1.
         11    1    5    5    0    0  0.26503383945E+02 -0.25441116585E+02  0.11147341889E+03  0.11737121833E+03  0.00000000000E+00 0. -1.
        -12    1    5    5    0    0 -0.43542085685E+02  0.92120535762E+01  0.89056756471E+02  0.99558430230E+02  0.00000000000E+00 0.  1.
          5    1    4    4  501    0  0.47746167200E+02  0.15151679642E+02  0.11804381421E+03  0.12830075741E+03  0.41800000000E+01 0. -1.
         -5    1    4    4    0  501  0.12734977524E+02 -0.56386178924E+02 -0.10383755624E+01  0.57966640838E+02  0.41800000000E+01 0. -1.
</event>
<event>
11    1  0.1002087E-008  0.1297546E+03  0.7561462E-02  0.1119571E+00
         22   -1    0    0    0    0  0.00000000000E+00  0.00000000000E+00  0.17952465739E+03  0.17952465739E+03  0.00000000000E+00 0. -1.
         22   -1    0    0    0    0 -0.00000000000E+00 -0.00000000000E+00 -0.83039095688E+03  0.83039095688E+03  0.00000000000E+00 0. -1.
         24    2    1    2    0    0 -0.20048693458E+02 -0.16296476042E+02 -0.66199316707E+03  0.66721695195E+03  0.79221098656E+02 0.  0.
         25    2    1    2    0    0 -0.14521405044E+02  0.53840687818E+01 -0.12750225613E+03  0.17929082911E+03  0.12509403137E+03 0.  0.
        -24    2    1    2    0    0  0.34570098502E+02  0.10912407260E+02  0.13862912372E+03  0.16340783322E+03  0.78548798035E+02 0.  0.
        -13    1    3    3    0    0  0.18048848221E+02 -0.12366554427E+02 -0.57661221173E+02  0.61672595354E+02  0.00000000000E+00 0.  1.
         14    1    3    3    0    0 -0.38097541679E+02 -0.39299216152E+01 -0.60433194590E+03  0.60554435659E+03  0.00000000000E+00 0. -1.
         13    1    5    5    0    0  0.10615263310E+02  0.44194685680E+02  0.75710964654E+02  0.88306309097E+02  0.00000000000E+00 0. -1.
        -14    1    5    5    0    0  0.23954835192E+02 -0.33282278420E+02  0.62918159062E+02  0.75101524123E+02  0.00000000000E+00 0.  1.
          5    1    4    4  501    0  0.17178097581E+02 -0.90423842002E+00 -0.14237465822E+03  0.14347097403E+03  0.41800000000E+01 0. -1.
         -5    1    4    4    0  501 -0.31699502625E+02  0.62883072018E+01  0.14872402095E+02  0.35819855083E+02  0.41800000000E+01 0. -1.
</event>
<event>
11    1  0.1002087E-008  0.1573688E+03  0.7561462E-02  0.1089578E+00
         22   -1    0    0    0    0  0.00000000000E+00  0.00000000000E+00  0.58638845598E+03  0.58638845598E+03  0.00000000000E+00 0.  1.
         22   -1    0    0    0    0 -0.00000000000E+00 -0.00000000000E+00 -0.26196029277E+03  0.26196029277E+03  0.00000000000E+00 0.  1.
         24    2    1    2    0    0  0.21234689865E+02 -0.36108055691E+02 -0.16250797019E+03  0.18810210541E+03  0.84963862574E+02 0.  0.
         25    2    1    2    0    0  0.29689431377E+02  0.11470311081E+03  0.16066214997E+02  0.17304394282E+03  0.12509123437E+03 0.  0.
        -24    2    1    2    0    0 -0.50924121242E+02 -0.78595055120E+02  0.47086991840E+03  0.48720270053E+03  0.82930950362E+02 0.  0.
        -13    1    3    3    0    0 -0.11421287888E+02 -0.11204510458E+02 -0.14069240139E+03  0.14159921851E+03  0.00000000000E+00 0.  1.
         14    1    3    3    0    0  0.32655977752E+02 -0.24903545232E+02 -0.21815568797E+02  0.46502886900E+02  0.00000000000E+00 0. -1.
         13    1    5    5    0    0 -0.67499392417E+01  0.55868924792E+01  0.19895229157E+03  0.19914514649E+03  0.00000000000E+00 0. -1.
        -14    1    5    5    0    0 -0.44174182001E+02 -0.84181947599E+02  0.27191762683E+03  0.28805755404E+03  0.00000000000E+00 0.  1.
          5    1    4    4  501    0 -0.12332658167E+02  0.59605209784E+02  0.64202310029E+02  0.88567965450E+02  0.41800000000E+01 0.  1.
         -5    1    4    4    0  501  0.42022089544E+02  0.55097901027E+02 -0.48136095032E+02  0.84475977367E+02  0.41800000000E+01 0.  1.
</event>
<event>
11    1  0.1002087E-008  0.1596446E+03  0.7561462E-02  0.1087412E+00
         22   -1    0    0    0    0  0.00000000000E+00  0.00000000000E+00  0.17157844281E+04  0.17157844281E+04  0.00000000000E+00 0.  1.
         22   -1    0    0    0    0 -0.00000000000E+00 -0.00000000000E+00 -0.52979359241E+03  0.52979359241E+03  0.00000000000E+00 0. -1.
         24    2    1    2    0    0  0.15717020052E+02 -0.37348419847E+02 -0.47345999172E+03  0.48042530092E+03  0.70726068908E+02 0.  0.
         25    2    1    2    0    0 -0.79097697294E+02 -0.40142570431E+02  0.66741208391E+02  0.16724099039E+03  0.12508912139E+03 0.  0.
        -24    2    1    2    0    0  0.63380677242E+02  0.77490990278E+02  0.15927096190E+04  0.15979117292E+04  0.81092539849E+02 0.  0.
        -11    1    3    3    0    0 -0.24411235569E+02 -0.17320820207E+02 -0.10301574587E+03  0.10727610700E+03  0.00000000000E+00 0.  1.
         12    1    3    3    0    0  0.40128255622E+02 -0.20027599641E+02 -0.37044424584E+03  0.37314919392E+03  0.00000000000E+00 0. -1.
         11    1    5    5    0    0  0.23629506701E+02 -0.14868699158E+02  0.39822663694E+03  0.39920406582E+03  0.00000000000E+00 0. -1.
        -12    1    5    5    0    0  0.39751170540E+02  0.92359689437E+02  0.11944829821E+04  0.11987076634E+04  0.00000000000E+00 0.  1.
          5    1    4    4  501    0 -0.82410988322E+02  0.33052965109E+01 -0.55067850491E+01  0.82766497224E+02  0.41800000000E+01 0.  1.
         -5    1    4    4    0  501  0.33132910279E+01 -0.43447866942E+02  0.72247993440E+02  0.84474493164E+02  0.41800000000E+01 0.  1.
</event>
<event>
11    1  0.1002087E-008  0.1518289E+03  0.7561462E-02  0.1095025E+00
         22   -1    0    0    0    0  0.00000000000E+00  0.00000000000E+00  0.71795468954E+03  0.71795468954E+03  0.00000000000E+00 0.  1.
         22   -1    0    0    0    0 -0.00000000000E+00 -0.00000000000E+00 -0.35451359944E+03  0.35451359944E+03  0.00000000000E+00 0.  1.
         24    2    1    2    0    0 -0.84114239972E+02  0.14126776086E+02 -0.24761118438E+03  0.27321051086E+03  0.77832598886E+02 0.  0.
         25    2    1    2    0    0  0.92554280905E+02  0.11620852078E+02 -0.24481071426E+02  0.15794764543E+03  0.12508715650E+03 0.  0.
        -24    2    1    2    0    0 -0.84400409331E+01 -0.25747628164E+02  0.63553334590E+03  0.64131013269E+03  0.81497717102E+02 0.  0.
        -13    1    3    3    0    0 -0.86379277596E+02  0.60090125914E+01 -0.24990125201E+03  0.26447707573E+03  0.00000000000E+00 0.  1.
         14    1    3    3    0    0  0.22650376242E+01  0.81177634950E+01  0.22900676273E+01  0.87334351396E+01  0.00000000000E+00 0. -1.
         11    1    5    5    0    0  0.10191521267E+02  0.19173597680E+02  0.61505467905E+02  0.65225888541E+02  0.00000000000E+00 0. -1.
        -12    1    5    5    0    0 -0.18631562201E+02 -0.44921225844E+02  0.57402787800E+03  0.57608424415E+03  0.00000000000E+00 0.  1.
          5    1    4    4  501    0 -0.58096343997E+01  0.23827973524E+02  0.34497741249E+02  0.42533407169E+02  0.41800000000E+01 0.  1.
         -5    1    4    4    0  501  0.98363915304E+02 -0.12207121446E+02 -0.58978812675E+02  0.11541423826E+03  0.41800000000E+01 0.  1.
</event>
<event>
11    1  0.1002087E-008  0.1559013E+03  0.7561462E-02  0.1090997E+00
         22   -1    0    0    0    0  0.00000000000E+00  0.00000000000E+00  0.22184673480E+03  0.22184673480E+03  0.00000000000E+00 0. -1.
         22   -1    0    0    0    0 -0.00000000000E+00 -0.00000000000E+00 -0.72737573374E+03  0.72737573374E+03  0.00000000000E+00 0. -1.
        -24    2    1    2    0    0 -0.34301557580E+02 -0.78449724290E+02 -0.51837197819E+03  0.53152808009E+03  0.80508608621E+02 0.  0.
         25    2    1    2    0    0  0.53526728547E+02  0.14311062270E+03 -0.13205803082E+03  0.23755474153E+03  0.12508865145E+03 0.  0.
         24    2    1    2    0    0 -0.19225170966E+02 -0.64660898410E+02  0.14490101007E+03  0.18013964692E+03  0.83086404968E+02 0.  0.
        -13    1    5    5    0    0  0.30582534593E+02 -0.39050478796E+02  0.53592949036E+02  0.73023527049E+02  0.00000000000E+00 0.  1.
         14    1    5    5    0    0 -0.49807705559E+02 -0.25610419613E+02  0.91308061034E+02  0.10711611987E+03  0.00000000000E+00 0. -1.
         11    1    3    3    0    0 -0.56595403204E+02 -0.72749846767E+02 -0.45137112715E+03  0.46068587377E+03  0.00000000000E+00 0. -1.
        -12    1    3    3    0    0  0.22293845624E+02 -0.56998775236E+01 -0.67000851038E+02  0.70842206320E+02  0.00000000000E+00 0.  1.
          5    1    4    4  501    0  0.39170777328E+02  0.16138722315E+03 -0.13459256515E+03  0.21380555789E+03  0.41800000000E+01 0. -1.
         -5    1    4    4    0  501  0.14355951219E+02 -0.18276600449E+02  0.25345343263E+01  0.23749183642E+02  0.41800000000E+01 0. -1.
</event>
<event>
11    1  0.1002087E-008  0.1522222E+03  0.7561462E-02  0.1094630E+00
         22   -1    0    0    0    0  0.00000000000E+00  0.00000000000E+00  0.25332492253E+04  0.25332492253E+04  0.00000000000E+00 0.  1.
         22   -1    0    0    0    0 -0.00000000000E+00 -0.00000000000E+00 -0.16986474068E+03  0.16986474068E+03  0.00000000000E+00 0.  1.
         24    2    1    2    0    0  0.67115178141E+02 -0.18426032928E+02 -0.14026755534E+03  0.17816457366E+03  0.84992131409E+02 0.  0.
         25    2    1    2    0    0 -0.49711619888E+02  0.10160886541E+03  0.81136450365E+03  0.82870668755E+03  0.12508720768E+03 0.  0.
        -24    2    1    2    0    0 -0.17403558254E+02 -0.83182832479E+02  0.16922875363E+04  0.16962427048E+04  0.78612597535E+02 0.  0.
        -11    1    3    3    0    0  0.78791107100E+02 -0.16516119459E+02 -0.14465410029E+03  0.16554645720E+03  0.00000000000E+00 0.  1.
         12    1    3    3    0    0 -0.11675928959E+02 -0.19099134686E+01  0.43865449515E+01  0.12618116465E+02  0.00000000000E+00 0. -1.
         13    1    5    5    0    0 -0.22922240691E+02  0.44314741732E+01  0.19665925656E+03  0.19804022387E+03  0.00000000000E+00 0. -1.
        -14    1    5    5    0    0  0.55186824371E+01 -0.87614306652E+02  0.14956282798E+04  0.14982024809E+04  0.00000000000E+00 0.  1.
          5    1    4    4  501    0 -0.45080733017E+02  0.59728199294E+02  0.16811212730E+03  0.18406219065E+03  0.41800000000E+01 0. -1.
         -5    1    4    4    0  501 -0.46308868710E+01  0.41880666113E+02  0.64325237635E+03  0.64464449690E+03  0.41800000000E+01 0. -1.
</event>
<event>
11    1  0.1002087E-008  0.1439926E+03  0.7561462E-02  0.1103180E+00
         22   -1    0    0    0    0  0.00000000000E+00  0.00000000000E+00  0.26878638974E+03  0.26878638974E+03  0.00000000000E+00 0. -1.
         22   -1    0    0    0    0 -0.00000000000E+00 -0.00000000000E+00 -0.11068002378E+04  0.11068002378E+04  0.00000000000E+00 0. -1.
        -24    2    1    2    0    0  0.30814520644E+02  0.74566055682E+02 -0.84352269640E+03  0.85129265444E+03  0.81602774551E+02 0.  0.
         25    2    1    2    0    0  0.19937404130E+02 -0.38166202688E+02 -0.23168157450E+03  0.26679036483E+03  0.12508632095E+03 0.  0.
         24    2    1    2    0    0 -0.50751924774E+02 -0.36399852994E+02  0.23719042286E+03  0.25750360827E+03  0.78409848920E+02 0.  0.
        -11    1    5    5    0    0  0.31577981184E+01 -0.16244841991E+02  0.36114400455E+01  0.16938390699E+02  0.00000000000E+00 0.  1.
         12    1    5    5    0    0 -0.53909722892E+02 -0.20155011003E+02  0.23357898281E+03  0.24056521757E+03  0.00000000000E+00 0. -1.
         13    1    3    3    0    0  0.33405617839E+02  0.52881517274E+01 -0.48185257855E+03  0.48303810130E+03  0.00000000000E+00 0. -1.
        -14    1    3    3    0    0 -0.25910971946E+01  0.69277903954E+02 -0.36167011785E+03  0.36825455314E+03  0.00000000000E+00 0.  1.
          5    1    4    4  501    0  0.41538426594E+02 -0.53490867161E+02 -0.23013864707E+03  0.23993328871E+03  0.41800000000E+01 0.  1.
         -5    1    4    4    0  501 -0.21601022464E+02  0.15324664474E+02 -0.15429274315E+01  0.26857076121E+02  0.41800000000E+01 0.  1.
</event>
<event>
11    1  0.1067537E-008  0.1524618E+03  0.7561462E-02  0.1094389E+00
         22   -1    0    0    0    0  0.00000000000E+00  0.00000000000E+00  0.27309729654E+03  0.27309729654E+03  0.00000000000E+00 0.  1.
         22   -1    0    0    0    0 -0.00000000000E+00 -0.00000000000E+00 -0.13021902769E+04  0.13021902769E+04  0.00000000000E+00 0.  1.
         24    2    1    2    0    0  0.53182363793E+01 -0.38395422333E+02 -0.11502565689E+04  0.11537035276E+04  0.80244396111E+02 0.  0.
         25    2    1    2    0    0  0.33727766053E+02 -0.43760810973E+02 -0.10002883562E+03  0.16942786392E+03  0.12508981707E+03 0.  0.
        -24    2    1    2    0    0 -0.39046002432E+02  0.82156233306E+02  0.22119242419E+03  0.25215618194E+03  0.79890015608E+02 0.  0.
        -11    1    3    3    0    0 -0.26365461886E+02 -0.41132286794E+02 -0.91549787174E+03  0.91680060850E+03  0.00000000000E+00 0.  1.
         12    1    3    3    0    0  0.31683698265E+02  0.27368644601E+01 -0.23475869717E+03  0.23690291906E+03  0.00000000000E+00 0. -1.
         13    1    5    5    0    0  0.66323165845E+01  0.13357692030E+02 -0.11648202400E+01  0.14959022890E+02  0.00000000000E+00 0. -1.
        -14    1    5    5    0    0 -0.45678319017E+02  0.68798541276E+02  0.22235724443E+03  0.23719715905E+03  0.00000000000E+00 0.  1.
          5    1    4    4  501    0  0.34321558830E+00  0.21808828153E+02 -0.92749559418E+02  0.95371358146E+02  0.41800000000E+01 0.  1.
         -5    1    4    4    0  501  0.33384550465E+02 -0.65569639126E+02 -0.72792762067E+01  0.74056505771E+02  0.41800000000E+01 0.  1.
</event>
<event>
11    1  0.1002087E-008  0.1470216E+03  0.7561462E-02  0.1099962E+00
         22   -1    0    0    0    0  0.00000000000E+00  0.00000000000E+00  0.17448635336E+04  0.17448635336E+04  0.00000000000E+00 0.  1.
         22   -1    0    0    0    0 -0.00000000000E+00 -0.00000000000E+00 -0.11508012674E+04  0.11508012674E+04  0.00000000000E+00 0.  1.
        -24    2    1    2    0    0  0.89944224532E+02  0.80594835371E+02 -0.11328053520E+04  0.11423051039E+04  0.83830149904E+02 0.  0.
         25    2    1    2    0    0 -0.21425776810E+02  0.27742228945E+02  0.48142352277E+03  0.49864378157E+03  0.12509323498E+03 0.  0.
         24    2    1    2    0    0 -0.68518447722E+02 -0.10833706432E+03  0.12454440954E+04  0.12547159155E+04  0.82154347017E+02 0.  0.
        -13    1    5    5    0    0 -0.50698950821E+02 -0.12043856393E+03  0.10591423511E+04  0.10671730652E+04  0.00000000000E+00 0.  1.
         14    1    5    5    0    0 -0.17819496901E+02  0.12101499615E+02  0.18630174433E+03  0.18754285032E+03  0.00000000000E+00 0. -1.
         13    1    3    3    0    0  0.29515179530E+02  0.45198361864E+01 -0.86695505409E+02  0.91693431608E+02  0.00000000000E+00 0. -1.
        -14    1    3    3    0    0  0.60429045002E+02  0.76074999185E+02 -0.10461098466E+04  0.10506116723E+04  0.00000000000E+00 0.  1.
          5    1    4    4  501    0  0.91868771263E+01  0.28904759934E+02  0.20868282471E+02  0.37051875411E+02  0.41800000000E+01 0.  1.
         -5    1    4    4    0  501 -0.30612653937E+02 -0.11625309888E+01  0.46055524030E+03  0.46159190616E+03  0.41800000000E+01 0.  1.
</event>
<event>
11    1  0.1002087E-008  0.1513105E+03  0.7561462E-02  0.1095547E+00
         22   -1    0    0    0    0  0.00000000000E+00  0.00000000000E+00  0.38063523548E+03  0.38063523548E+03  0.00000000000E+00 0. -1.
         22   -1    0    0    0    0 -0.00000000000E+00 -0.00000000000E+00 -0.72833427298E+03  0.72833427298E+03  0.00000000000E+00 0. -1.
         24    2    1    2    0    0 -0.30084083139E+02 -0.87225470295E+02 -0.64309502459E+03  0.65457257292E+03  0.79879333006E+02 0.  0.
         25    2    1    2    0    0 -0.21421393221E+02  0.18126792196E+02 -0.85780748453E+01  0.12848970497E+03  0.12509422142E+03 0.  0.
        -24    2    1    2    0    0  0.51505476361E+02  0.69098678099E+02  0.30397406194E+03  0.32590723057E+03  0.79924033873E+02 0.  0.
        -11    1    3    3    0    0 -0.20646533128E+02 -0.21393514519E+02 -0.53231187769E+02  0.60971478127E+02  0.00000000000E+00 0.  1.
         12    1    3    3    0    0 -0.94375500112E+01 -0.65831955776E+02 -0.58986383682E+03  0.59360109480E+03  0.00000000000E+00 0. -1.
         11    1    5    5    0    0  0.72944551106E+02  0.47282053296E+02  0.22201060584E+03  0.23842233369E+03  0.00000000000E+00 0. -1.
        -12    1    5    5    0    0 -0.21439074746E+02  0.21816624804E+02  0.81963456109E+02  0.87484896874E+02  0.00000000000E+00 0.  1.
          5    1    4    4  501    0 -0.25340465358E+02  0.25857229215E+02  0.54015716339E+02  0.65160613094E+02  0.41800000000E+01 0. -1.
         -5    1    4    4    0  501  0.39190721366E+01 -0.77304370190E+01 -0.62593791184E+02  0.63329091875E+02  0.41800000000E+01 0. -1.
</event>
<event>
11    1  0.1002087E-008  0.1268760E+03  0.7561462E-02  0.1123168E+00
         22   -1    0    0    0    0  0.00000000000E+00  0.00000000000E+00  0.10223575325E+04  0.10223575325E+04  0.00000000000E+00 0. -1.
         22   -1    0    0    0    0 -0.00000000000E+00 -0.00000000000E+00 -0.42282285059E+03  0.42282285059E+03  0.00000000000E+00 0. -1.
        -24    2    1    2    0    0  0.18134798499E+01  0.91155210006E+00 -0.38888379416E+03  0.39746626356E+03  0.82126157041E+02 0.  0.
         25    2    1    2    0    0 -0.15100911686E+02  0.15586295762E+02  0.11811445978E+03  0.17340569704E+03  0.12509012754E+03 0.  0.
         24    2    1    2    0    0  0.13287431836E+02 -0.16497847862E+02  0.87030401627E+03  0.87430842247E+03  0.80854202393E+02 0.  0.
        -13    1    5    5    0    0  0.12961300971E+02  0.16824061325E+02  0.66393432279E+02  0.69707476013E+02  0.00000000000E+00 0.  1.
         14    1    5    5    0    0  0.32613086524E+00 -0.33321909187E+02  0.80391058399E+03  0.80460094646E+03  0.00000000000E+00 0. -1.
         11    1    3    3    0    0 -0.69386380581E+01 -0.39302104870E+02 -0.22374151773E+03  0.22727311082E+03  0.00000000000E+00 0. -1.
        -12    1    3    3    0    0  0.87521179080E+01  0.40213656970E+02 -0.16514227643E+03  0.17019315274E+03  0.00000000000E+00 0.  1.
          5    1    4    4  501    0 -0.16279909386E+02 -0.41110626344E+02  0.24048711823E+01  0.44478925947E+02  0.41800000000E+01 0. -1.
         -5    1    4    4    0  501  0.11789976994E+01  0.56696922106E+02  0.11570958860E+03  0.12892677109E+03  0.41800000000E+01 0. -1.
</event>
<event>
11    1  0.1002087E-008  0.2954666E+03  0.7561462E-02  0.1002128E+00
         22   -1    0    0    0    0  0.00000000000E+00  0.00000000000E+00  0.70513386259E+03  0.70513386259E+03  0.00000000000E+00 0. -1.
         22   -1    0    0    0    0 -0.00000000000E+00 -0.00000000000E+00 -0.12665252087E+04  0.12665252087E+04  0.00000000000E+00 0.  1.
        -24    2    1    2    0    0 -0.39071292777E+02 -0.65150783727E+01 -0.10903837842E+04  0.10940411415E+04  0.80126215120E+02 0.  0.
         25    2    1    2    0    0  0.28311863055E+02  0.27283615639E+03  0.25965422911E+02  0.30259419381E+03  0.12509161889E+03 0.  0.
         24    2    1    2    0    0  0.10759429722E+02 -0.26632107802E+03  0.50302701515E+03  0.57502373597E+03  0.81076735443E+02 0.  0.
        -11    1    5    5    0    0 -0.13731027712E+02 -0.58569906022E+01  0.46654624026E+02  0.48984685403E+02  0.00000000000E+00 0.  1.
         12    1    5    5    0    0  0.24490457435E+02 -0.26046408742E+03  0.45637239113E+03  0.52603905057E+03  0.00000000000E+00 0. -1.
         13    1    3    3    0    0 -0.16747467449E+02  0.22138518433E+02 -0.12815527917E+03  0.13112729404E+03  0.00000000000E+00 0. -1.
        -14    1    3    3    0    0 -0.22323825328E+02 -0.28653596806E+02 -0.96222850504E+03  0.96291384749E+03  0.00000000000E+00 0.  1.
          5    1    4    4  501    0  0.70759755037E+02  0.97337551448E+02  0.22188113275E+01  0.12043229375E+03  0.41800000000E+01 0.  1.
         -5    1    4    4    0  501 -0.42447891982E+02  0.17549860494E+03  0.23746611584E+02  0.18216190006E+03  0.41800000000E+01 0.  1.
</event>
<event>
11    1  0.1002087E-008  0.1337749E+03  0.7561462E-02  0.1114716E+00
         22   -1    0    0    0    0  0.00000000000E+00  0.00000000000E+00  0.14890115689E+04  0.14890115689E+04  0.00000000000E+00 0.  1.
         22   -1    0    0    0    0 -0.00000000000E+00 -0.00000000000E+00 -0.11605639200E+04  0.11605639200E+04  0.00000000000E+00 0. -1.
        -24    2    1    2    0    0  0.35766924832E+02  0.31179342397E+02 -0.11361587518E+04  0.11399732520E+04  0.80192778107E+02 0.  0.
         25    2    1    2    0    0 -0.48413938011E+02 -0.11753800640E+02  0.19372816812E+03  0.23592292086E+03  0.12508781011E+03 0.  0.
         24    2    1    2    0    0  0.12647013180E+02 -0.19425541757E+02  0.12708782325E+04  0.12736793161E+04  0.81180169230E+02 0.  0.
        -13    1    5    5    0    0  0.27295988425E+02 -0.38963704385E+02  0.11039245871E+04  0.11049492003E+04  0.00000000000E+00 0.  1.
         14    1    5    5    0    0 -0.14648975245E+02  0.19538162628E+02  0.16695364542E+03  0.16873011585E+03  0.00000000000E+00 0. -1.
         13    1    3    3    0    0  0.21085487240E+02  0.54366529537E+02 -0.95162038230E+03  0.95340530170E+03  0.00000000000E+00 0. -1.
        -14    1    3    3    0    0  0.14681437591E+02 -0.23187187140E+02 -0.18453836947E+03  0.18656795026E+03  0.00000000000E+00 0.  1.
          5    1    4    4  501    0  0.70368429177E+01  0.50493191452E+02  0.71477725889E+02  0.87895490439E+02  0.41800000000E+01 0.  1.
         -5    1    4    4    0  501 -0.55450780929E+02 -0.62246992092E+02  0.12225044223E+03  0.14802743042E+03  0.41800000000E+01 0.  1.
</event>
<event>
11    1  0.1002087E-008  0.1363360E+03  0.7561462E-02  0.1111720E+00
         22   -1    0    0    0    0  0.00000000000E+00  0.00000000000E+00  0.44593198308E+03  0.44593198308E+03  0.00000000000E+00 0.  1.
         22   -1    0    0    0    0 -0.00000000000E+00 -0.00000000000E+00 -0.46870560403E+03  0.46870560403E+03  0.00000000000E+00 0.  1.
        -24    2    1    2    0    0 -0.56522134388E+02 -0.15268042860E+02 -0.33993028185E+03  0.35408400561E+03  0.79968879559E+02 0.  0.
         25    2    1    2    0    0  0.22948705655E+02  0.32792492086E+02 -0.80192733510E+02  0.15388485933E+03  0.12509070627E+03 0.  0.
         24    2    1    2    0    0  0.33573428733E+02 -0.17524449226E+02  0.39734939442E+03  0.40666872217E+03  0.77837182054E+02 0.  0.
        -11    1    5    5    0    0  0.15677289925E+02 -0.41591556155E+02  0.32952416239E+03  0.33250835864E+03  0.00000000000E+00 0.  1.
         12    1    5    5    0    0  0.17896138808E+02  0.24067106929E+02  0.67825232022E+02  0.74160363530E+02  0.00000000000E+00 0. -1.
         13    1    3    3    0    0 -0.44409632755E+01 -0.17921966302E+01  0.38347483576E+01  0.61350972724E+01  0.00000000000E+00 0. -1.
        -14    1    3    3    0    0 -0.52081171112E+02 -0.13475846230E+02 -0.34376503021E+03  0.34794890833E+03  0.00000000000E+00 0.  1.
          5    1    4    4  501    0  0.53255564440E+02 -0.20724103787E+02 -0.62826169291E+01  0.57641888389E+02  0.41800000000E+01 0. -1.
         -5    1    4    4    0  501 -0.30306858785E+02  0.53516595872E+02 -0.73910116581E+02  0.96242970944E+02  0.41800000000E+01 0. -1.
</event>
<event>
11    1  0.1002087E-008  0.1403458E+03  0.7561462E-02  0.1107173E+00
         22   -1    0    0    0    0  0.00000000000E+00  0.00000000000E+00  0.15425043935E+03  0.15425043935E+03  0.00000000000E+00 0. -1.
         22   -1    0    0    0    0 -0.00000000000E+00 -0.00000000000E+00 -0.89862824986E+03  0.89862824986E+03  0.00000000000E+00 0.  1.
         24    2    1    2    0    0  0.15666289670E+02 -0.64232911748E+02 -0.79025697342E+03  0.79668706357E+03  0.76373383062E+02 0.  0.
         25    2    1    2    0    0  0.15153517649E+02  0.30097578712E+02 -0.37339330824E+02  0.13482718354E+03  0.12509456605E+03 0.  0.
        -24    2    1    2    0    0 -0.30819807319E+02  0.34135333035E+02  0.83218493731E+02  0.12136444210E+03  0.75424986732E+02 0.  0.
        -11    1    3    3    0    0  0.20005049541E+01 -0.50542387433E+02 -0.75309708475E+03  0.75479384868E+03  0.00000000000E+00 0.  1.
         12    1    3    3    0    0  0.13665784716E+02 -0.13690524315E+02 -0.37159888668E+02  0.41893214889E+02  0.00000000000E+00 0. -1.
         13    1    5    5    0    0 -0.19935917676E+02 -0.14872431912E+02  0.62110674214E+02  0.66905649207E+02  0.00000000000E+00 0. -1.
        -14    1    5    5    0    0 -0.10883889643E+02  0.49007764947E+02  0.21107819517E+02  0.54458792896E+02  0.00000000000E+00 0.  1.
          5    1    4    4  501    0 -0.11859366337E+02  0.29678244896E+02 -0.78815757012E+02  0.85151856958E+02  0.41800000000E+01 0.  1.
         -5    1    4    4    0  501  0.27012883986E+02  0.41933381602E+00  0.41476426187E+02  0.49675326586E+02  0.41800000000E+01 0.  1.
</event>
<event>
11    1  0.1002087E-008  0.1301051E+03  0.7561462E-02  0.1119140E+00
         22   -1    0    0    0    0  0.00000000000E+00  0.00000000000E+00  0.12918293865E+04  0.12918293865E+04  0.00000000000E+00 0. -1.
         22   -1    0    0    0    0 -0.00000000000E+00 -0.00000000000E+00 -0.30163767154E+02  0.30163767154E+02  0.00000000000E+00 0.  1.
        -24    2    1    2    0    0 -0.15852487906E+02  0.25535590138E+01  0.89319202440E+02  0.12186436267E+03  0.81333762534E+02 0.  0.
         25    2    1    2    0    0  0.25278579992E+02 -0.35514389352E+02  0.38458736413E+03  0.40676158177E+03  0.12508902947E+03 0.  0.
         24    2    1    2    0    0 -0.94260920866E+01  0.32960830338E+02  0.78775905277E+03  0.79336720922E+03  0.87703682282E+02 0.  0.
        -13    1    5    5    0    0  0.37123858124E+02  0.44484487976E+01  0.24002008220E+03  0.24291481922E+03  0.00000000000E+00 0.  1.
         14    1    5    5    0    0 -0.46549950210E+02  0.28512381540E+02  0.54773897058E+03  0.55045239000E+03  0.00000000000E+00 0. -1.
         13    1    3    3    0    0 -0.65320280461E+01 -0.39176633298E+02  0.49207364813E+02  0.63236387775E+02  0.00000000000E+00 0. -1.
        -14    1    3    3    0    0 -0.93204598595E+01  0.41730192312E+02  0.40111837628E+02  0.58627974895E+02  0.00000000000E+00 0.  1.
          5    1    4    4  501    0 -0.69999596198E+01  0.37404225194E+02  0.51113746997E+02  0.63860496625E+02  0.41800000000E+01 0.  1.
         -5    1    4    4    0  501  0.32278539612E+02 -0.72918614546E+02  0.33347361714E+03  0.34290108514E+03  0.41800000000E+01 0.  1.
</event>
<event>
11    1  0.1002087E-008  0.1613682E+03  0.7561462E-02  0.1085798E+00
         22   -1    0    0    0    0  0.00000000000E+00  0.00000000000E+00  0.37049067406E+03  0.37049067406E+03  0.00000000000E+00 0. -1.
         22   -1    0    0    0    0 -0.00000000000E+00 -0.00000000000E+00 -0.17207132332E+04  0.17207132332E+04  0.00000000000E+00 0.  1.
         24    2    1    2    0    0 -0.54167384701E+02  0.70630691288E+02 -0.11869117541E+04  0.11936093601E+04  0.89559992955E+02 0.  0.
         25    2    1    2    0    0 -0.20308016125E+02  0.19284956153E+01 -0.51064943272E+03  0.52613648479E+03  0.12506247588E+03 0.  0.
        -24    2    1    2    0    0  0.74475400826E+02 -0.72559186903E+02  0.34733862766E+03  0.37145806240E+03  0.80780869815E+02 0.  0.
        -11    1    3    3    0    0 -0.19366563839E+02  0.65727077976E+02 -0.10508632784E+04  0.10530948402E+04  0.00000000000E+00 0.  1.
         12    1    3    3    0    0 -0.34800820862E+02  0.49036133120E+01 -0.13604847567E+03  0.14051451985E+03  0.00000000000E+00 0. -1.
         13    1    5    5    0    0  0.55752103976E+02 -0.15088250723E+02  0.25230069920E+03  0.25882734636E+03  0.00000000000E+00 0. -1.
        -14    1    5    5    0    0  0.18723296850E+02 -0.57470936180E+02  0.95037928458E+02  0.11263071604E+03  0.00000000000E+00 0.  1.
          5    1    4    4  501    0 -0.66125325495E+02  0.13114256702E+02 -0.40176639594E+03  0.40740428534E+03  0.41800000000E+01 0. -1.
         -5    1    4    4    0  501  0.45817309370E+02 -0.11185761086E+02 -0.10888303678E+03  0.11873219945E+03  0.41800000000E+01 0. -1.
</event>
<event>
11    1  0.1002087E-008  0.1396099E+03  0.7561462E-02  0.1107995E+00
         22   -1    0    0    0    0  0.00000000000E+00  0.00000000000E+00  0.69174197054E+02  0.69174197054E+02  0.00000000000E+00 0.  1.
         22   -1    0    0    0    0 -0.00000000000E+00 -0.00000000000E+00 -0.14509169572E+04  0.14509169572E+04  0.00000000000E+00 0.  1.
        -24    2    1    2    0    0 -0.11228611710E+02  0.60535585860E+02 -0.11232598941E+04  0.11277534749E+04  0.79526546119E+02 0.  0.
         25    2    1    2    0    0 -0.23474017628E+02 -0.69789505406E+02 -0.26790853366E+03  0.30470390405E+03  0.12509149519E+03 0.  0.
         24    2    1    2    0    0  0.34702629338E+02  0.92539195465E+01  0.94256676723E+01  0.87633775259E+02  0.79378383992E+02 0.  0.
        -13    1    5    5    0    0  0.32607855826E+02  0.20081599479E+01  0.42559259705E+02  0.53652544717E+02  0.00000000000E+00 0.  1.
         14    1    5    5    0    0  0.20947735122E+01  0.72457595986E+01 -0.33133592032E+02  0.33981230543E+02  0.00000000000E+00 0. -1.
         13    1    3    3    0    0 -0.35065345400E+02 -0.37029916018E+00 -0.41664097188E+03  0.41811411722E+03  0.00000000000E+00 0. -1.
        -14    1    3    3    0    0  0.23836733690E+02  0.60905885020E+02 -0.70661892226E+03  0.70963935770E+03  0.00000000000E+00 0.  1.
          5    1    4    4  501    0 -0.18777257812E+02 -0.78206317954E+02 -0.27842476675E+03  0.28983898412E+03  0.41800000000E+01 0.  1.
         -5    1    4    4    0  501 -0.46967598166E+01  0.84168125477E+01  0.10516233088E+02  0.14864919932E+02  0.41800000000E+01 0.  1.
</event>
<event>
11    1  0.1002087E-008  0.2953764E+03  0.7561462E-02  0.1002167E+00
         22   -1    0    0    0    0  0.00000000000E+00  0.00000000000E+00  0.35368375325E+03  0.35368375325E+03  0.00000000000E+00 0.  1.
         22   -1    0    0    0    0 -0.00000000000E+00 -0.00000000000E+00 -0.12250099919E+04  0.12250099919E+04  0.00000000000E+00 0.  1.
        -24    2    1    2    0    0 -0.24964042255E+03  0.96652526093E+02 -0.85811613877E+03  0.90226624173E+03  0.77839655495E+02 0.  0.
         25    2    1    2    0    0  0.23559760448E+03 -0.12994624224E+03 -0.27302194977E+03  0.40321262309E+03  0.12508867755E+03 0.  0.
         24    2    1    2    0    0  0.14042818069E+02  0.33293716151E+02  0.25981184993E+03  0.27321488029E+03  0.76410085574E+02 0.  0.
        -13    1    5    5    0    0  0.24274493981E+02  0.28256175202E+02  0.25912581211E+03  0.26178970377E+03  0.00000000000E+00 0.  1.
         14    1    5    5    0    0 -0.10231675911E+02  0.50375409486E+01  0.68603781184E+00  0.11425176526E+02  0.00000000000E+00 0. -1.
         13    1    3    3    0    0 -0.18701543227E+02  0.13771259556E+02 -0.17274867554E+03  0.17430289789E+03  0.00000000000E+00 0. -1.
        -14    1    3    3    0    0 -0.23093887932E+03  0.82881266537E+02 -0.68536746323E+03  0.72796334384E+03  0.00000000000E+00 0.  1.
          5    1    4    4  501    0  0.20134322045E+03 -0.85979454137E+02 -0.14258037138E+03  0.26130096375E+03  0.41800000000E+01 0.  1.
         -5    1    4    4    0  501  0.34254384029E+02 -0.43966788107E+02 -0.13044157839E+03  0.14191165933E+03  0.41800000000E+01 0.  1.
</event>
<event>
11    1  0.1002087E-008  0.1332478E+03  0.7561462E-02  0.1115342E+00
         22   -1    0    0    0    0  0.00000000000E+00  0.00000000000E+00  0.60688006890E+03  0.60688006890E+03  0.00000000000E+00 0.  1.
         22   -1    0    0    0    0 -0.00000000000E+00 -0.00000000000E+00 -0.17924690541E+03  0.17924690541E+03  0.00000000000E+00 0.  1.
        -24    2    1    2    0    0  0.22038204714E+02 -0.29892163902E+02 -0.13017927096E+03  0.15737279796E+03  0.80251673003E+02 0.  0.
         25    2    1    2    0    0 -0.75086326006E+01 -0.18712189093E+02  0.10091921741E+03  0.16198638096E+03  0.12509345942E+03 0.  0.
         24    2    1    2    0    0 -0.14529572114E+02  0.48604352996E+02  0.45689321703E+03  0.46676779540E+03  0.80915211500E+02 0.  0.
        -11    1    5    5    0    0  0.31181683101E+02  0.14801243087E+02  0.24337134892E+03  0.24580680958E+03  0.00000000000E+00 0.  1.
         12    1    5    5    0    0 -0.45711255215E+02  0.33803109908E+02  0.21352186811E+03  0.22096098582E+03  0.00000000000E+00 0. -1.
         13    1    3    3    0    0  0.19413167927E+02  0.25315185335E+02 -0.35385153294E+02  0.47642824970E+02  0.00000000000E+00 0. -1.
        -14    1    3    3    0    0  0.26250367868E+01 -0.55207349237E+02 -0.94794117662E+02  0.10972997299E+03  0.00000000000E+00 0.  1.
          5    1    4    4  501    0  0.27868676937E+02 -0.63405225116E+02  0.59487967255E+02  0.91395713107E+02  0.41800000000E+01 0. -1.
         -5    1    4    4    0  501 -0.35377309537E+02  0.44693036023E+02  0.41431250157E+02  0.70590667858E+02  0.41800000000E+01 0. -1.
</event>
<event>
11    1  0.1002087E-008  0.1315257E+03  0.7561462E-02  0.1117408E+00
         22   -1    0    0    0    0  0.00000000000E+00  0.00000000000E+00  0.23557908575E+03  0.23557908575E+03  0.00000000000E+00 0. -1.
         22   -1    0    0    0    0 -0.00000000000E+00 -0.00000000000E+00 -0.49810822568E+03  0.49810822568E+03  0.00000000000E+00 0. -1.
         24    2    1    2    0    0 -0.64801002434E+01 -0.44996919886E+01 -0.37575326254E+03  0.38445099825E+03  0.80930938558E+02 0.  0.
         25    2    1    2    0    0  0.46154314963E+02 -0.16814328097E+01 -0.66818989411E+02  0.14914822405E+03  0.12508943755E+03 0.  0.
        -24    2    1    2    0    0 -0.39674214719E+02  0.61811247983E+01  0.18004311202E+03  0.20008808912E+03  0.77507880918E+02 0.  0.
        -11    1    3    3    0    0 -0.16405346683E+02 -0.16935598308E+01 -0.11627669702E+02  0.20179352006E+02  0.00000000000E+00 0.  1.
         12    1    3    3    0    0  0.99252464396E+01 -0.28061321578E+01 -0.36412559284E+03  0.36427164624E+03  0.00000000000E+00 0. -1.
         13    1    5    5    0    0 -0.44757401197E+02  0.16350025683E+02  0.18236267216E+03  0.18848525804E+03  0.00000000000E+00 0. -1.
        -14    1    5    5    0    0  0.50831864782E+01 -0.10168900885E+02 -0.23195601324E+01  0.11602831085E+02  0.00000000000E+00 0.  1.
          5    1    4    4  501    0 -0.20449906697E+01  0.56882801206E+02 -0.33695079385E+02  0.66277189399E+02  0.41800000000E+01 0. -1.
         -5    1    4    4    0  501  0.48199305632E+02 -0.58564234016E+02 -0.33123910026E+02  0.82871034655E+02  0.41800000000E+01 0. -1.
</event>
<event>
11    1  0.1002087E-008  0.2438781E+03  0.7561462E-02  0.1027212E+00
         22   -1    0    0    0    0  0.00000000000E+00  0.00000000000E+00  0.95501869455E+03  0.95501869455E+03  0.00000000000E+00 0.  1.
         22   -1    0    0    0    0 -0.00000000000E+00 -0.00000000000E+00 -0.10032302932E+04  0.10032302932E+04  0.00000000000E+00 0. -1.
        -24    2    1    2    0    0 -0.19322374659E+03  0.79690718265E+02 -0.90532908599E+03  0.93270110589E+03  0.81391474754E+02 0.  0.
         25    2    1    2    0    0  0.17854183546E+03 -0.12804818715E+03  0.11587990793E+03  0.27811747460E+03  0.12509057269E+03 0.  0.
         24    2    1    2    0    0  0.14681911132E+02  0.48357468880E+02  0.74123757938E+03  0.74743040730E+03  0.81639827078E+02 0.  0.
        -13    1    5    5    0    0  0.41466655387E+02  0.54279845701E+02  0.50223659622E+03  0.50686031975E+03  0.00000000000E+00 0.  1.
         14    1    5    5    0    0 -0.26784744255E+02 -0.59223768213E+01  0.23900098316E+03  0.24057008755E+03  0.00000000000E+00 0. -1.
         13    1    3    3    0    0 -0.14778416608E+03  0.77131862680E+02 -0.81114141259E+03  0.82809412219E+03  0.00000000000E+00 0. -1.
        -14    1    3    3    0    0 -0.45439580502E+02  0.25588555850E+01 -0.94187673404E+02  0.10460698370E+03  0.00000000000E+00 0.  1.
          5    1    4    4  501    0 -0.67118152648E+01 -0.43969396840E+02  0.15216824646E+01  0.44700606709E+02  0.41800000000E+01 0. -1.
         -5    1    4    4    0  501  0.18525365072E+03 -0.84078790305E+02  0.11435822547E+03  0.23341686789E+03  0.41800000000E+01 0. -1.
</event>
<event>
11    1  0.1002087E-008  0.1298328E+03  0.7561462E-02  0.1119475E+00
         22   -1    0    0    0    0  0.00000000000E+00  0.00000000000E+00  0.10530781421E+03  0.10530781421E+03  0.00000000000E+00 0.  1.
         22   -1    0    0    0    0 -0.00000000000E+00 -0.00000000000E+00 -0.12589358975E+04  0.12589358975E+04  0.00000000000E+00 0.  1.
        -24    2    1    2    0    0  0.15656509529E+01 -0.38313625265E+02 -0.94193211536E+03  0.94624583160E+03  0.81698707095E+02 0.  0.
         25    2    1    2    0    0  0.20126330943E+02  0.11933705479E+02 -0.28002370108E+03  0.30758466552E+03  0.12509025051E+03 0.  0.
         24    2    1    2    0    0 -0.21691981896E+02  0.26379919787E+02  0.68327733181E+02  0.11041321456E+03  0.79724253411E+02 0.  0.
        -11    1    5    5    0    0  0.19797231383E+02  0.25980803912E+02  0.59674642358E+02  0.68029372207E+02  0.00000000000E+00 0.  1.
         12    1    5    5    0    0 -0.41489213279E+02  0.39911587414E+00  0.86530908226E+01  0.42383842355E+02  0.00000000000E+00 0. -1.
         13    1    3    3    0    0 -0.24179887798E+02 -0.47018483790E+02 -0.38043488842E+03  0.38409127707E+03  0.00000000000E+00 0. -1.
        -14    1    3    3    0    0  0.25745538751E+02  0.87048585246E+01 -0.56149722694E+03  0.56215455453E+03  0.00000000000E+00 0.  1.
          5    1    4    4  501    0 -0.32325510418E+02 -0.11033199640E-01 -0.12881276956E+02  0.35047659573E+02  0.41800000000E+01 0. -1.
         -5    1    4    4    0  501  0.52451841361E+02  0.11944738678E+02 -0.26714242413E+03  0.27253700595E+03  0.41800000000E+01 0. -1.
</event>
<event>
11    1  0.1002087E-008  0.1911886E+03  0.7561462E-02  0.1060936E+00
         22   -1    0    0    0    0  0.00000000000E+00  0.00000000000E+00  0.78103856162E+03  0.78103856162E+03  0.00000000000E+00 0. -1.
         22   -1    0    0    0    0 -0.00000000000E+00 -0.00000000000E+00 -0.23473941678E+03  0.23473941678E+03  0.00000000000E+00 0.  1.
        -24    2    1    2    0    0 -0.36413149190E+01 -0.11945151132E+03 -0.72730798083E+02  0.16381032496E+03  0.85218136810E+02 0.  0.
         25    2    1    2    0    0  0.14727795236E+03  0.94865712552E+02  0.45183686862E+01  0.21530846938E+03  0.12508805962E+03 0.  0.
         24    2    1    2    0    0 -0.14363663744E+03  0.24585798771E+02  0.61451157423E+03  0.63665918406E+03  0.80464257100E+02 0.  0.
        -11    1    5    5    0    0 -0.90818246808E+01  0.21102724160E+02  0.36079938048E+02  0.42773431428E+02  0.00000000000E+00 0.  1.
         12    1    5    5    0    0 -0.13455481276E+03  0.34830746105E+01  0.57843163618E+03  0.59388575264E+03  0.00000000000E+00 0. -1.
         13    1    3    3    0    0  0.35201385850E+02 -0.53602907703E+02 -0.56910794327E+02  0.85739417953E+02  0.00000000000E+00 0. -1.
        -14    1    3    3    0    0 -0.38842700769E+02 -0.65848603620E+02 -0.15820003756E+02  0.78070907005E+02  0.00000000000E+00 0.  1.
          5    1    4    4  501    0  0.10181244587E+03  0.12403997049E+03 -0.33202534120E+01  0.16056209047E+03  0.41800000000E+01 0. -1.
         -5    1    4    4    0  501  0.45465506493E+02 -0.29174257940E+02  0.78386220982E+01  0.54746378907E+02  0.41800000000E+01 0. -1.
</event>
<event>
11    1  0.1002087E-008  0.1337844E+03  0.7561462E-02  0.1114705E+00
         22   -1    0    0    0    0  0.00000000000E+00  0.00000000000E+00  0.23582806457E+03  0.23582806457E+03  0.00000000000E+00 0. -1.
         22   -1    0    0    0    0 -0.00000000000E+00 -0.00000000000E+00 -0.50742534869E+03  0.50742534869E+03  0.00000000000E+00 0. -1.
        -24    2    1    2    0    0  0.22129431559E+02  0.40255902588E+02 -0.41821700777E+03  0.42844146938E+03  0.80909688301E+02 0.  0.
         25    2    1    2    0    0 -0.59101947478E+02 -0.47698937084E+02  0.38215620930E+01  0.14636450176E+03  0.12505892309E+03 0.  0.
         24    2    1    2    0    0  0.36972515918E+02  0.74430344966E+01  0.14279816156E+03  0.16844744211E+03  0.80999136488E+02 0.  0.
        -11    1    5    5    0    0  0.56180277222E+01 -0.18077324269E+02 -0.11156867349E+01  0.18963033647E+02  0.00000000000E+00 0.  1.
         12    1    5    5    0    0  0.31354488196E+02  0.25520358766E+02  0.14391384830E+03  0.14948440846E+03  0.00000000000E+00 0. -1.
         13    1    3    3    0    0  0.62497850685E+01  0.46045234609E+02 -0.40308769432E+03  0.40575720912E+03  0.00000000000E+00 0. -1.
        -14    1    3    3    0    0  0.15879646491E+02 -0.57893320214E+01 -0.15129313456E+02  0.22684260261E+02  0.00000000000E+00 0.  1.
          5    1    4    4  501    0  0.15303564380E+02 -0.61656617471E+02 -0.20264219741E+02  0.66812039053E+02  0.41800000000E+01 0. -1.
         -5    1    4    4    0  501 -0.74405511858E+02  0.13957680386E+02  0.24085781834E+02  0.79552462709E+02  0.41800000000E+01 0. -1.
</event>
<event>
11    1  0.1002087E-008  0.2171880E+03  0.7561462E-02  0.1042993E+00
         22   -1    0    0    0    0  0.00000000000E+00  0.00000000000E+00  0.10489647680E+04  0.10489647680E+04  0.00000000000E+00 0. -1.
         22   -1    0    0    0    0 -0.00000000000E+00 -0.00000000000E+00 -0.93665837665E+03  0.93665837665E+03  0.00000000000E+00 0. -1.
         24    2    1    2    0    0 -0.17055999286E+03 -0.50171370840E+02 -0.90696604625E+03  0.92782622032E+03  0.81646852040E+02 0.  0.
         25    2    1    2    0    0  0.15022053858E+03  0.55437236975E+02  0.77711277239E+03  0.80323717329E+03  0.12508476358E+03 0.  0.
        -24    2    1    2    0    0  0.20339454280E+02 -0.52658661344E+01  0.24215966522E+03  0.25455975105E+03  0.75617065867E+02 0.  0.
        -13    1    3    3    0    0 -0.49823384160E+01 -0.36517781648E+01 -0.20516813381E+03  0.20526110764E+03  0.00000000000E+00 0.  1.
         14    1    3    3    0    0 -0.16557765444E+03 -0.46519592676E+02 -0.70179791244E+03  0.72256511268E+03  0.00000000000E+00 0. -1.
         13    1    5    5    0    0 -0.35267316202E+01 -0.35271107710E+02  0.16021850221E+03  0.16409283142E+03  0.00000000000E+00 0. -1.
        -14    1    5    5    0    0  0.23866185900E+02  0.30005241576E+02  0.81941163012E+02  0.90466919629E+02  0.00000000000E+00 0.  1.
          5    1    4    4  501    0  0.10406839518E+03 -0.21906616827E+02  0.51980974260E+03  0.53059379155E+03  0.41800000000E+01 0.  1.
         -5    1    4    4    0  501  0.46152143397E+02  0.77343853802E+02  0.25730302980E+03  0.27264338173E+03  0.41800000000E+01 0.  1.
</event>
<event>
11    1  0.1002087E-008  0.1712841E+03  0.7561462E-02  0.1076920E+00
         22   -1    0    0    0    0  0.00000000000E+00  0.00000000000E+00  0.25942131899E+03  0.25942131899E+03  0.00000000000E+00 0.  1.
         22   -1    0    0    0    0 -0.00000000000E+00 -0.00000000000E+00 -0.13996868679E+04  0.13996868679E+04  0.00000000000E+00 0.  1.
        -24    2    1    2    0    0  0.44781678696E+02 -0.15070721989E+02 -0.99480390888E+03  0.99942546744E+03  0.83569865693E+02 0.  0.
         25    2    1    2    0    0 -0.11987329038E+03 -0.73394184226E+02 -0.35781726636E+03  0.40427659333E+03  0.12510018299E+03 0.  0.
         24    2    1    2    0    0  0.75091611686E+02  0.88464906215E+02  0.21235562638E+03  0.25540612607E+03  0.81685906989E+02 0.  0.
        -11    1    5    5    0    0  0.85044377031E+02  0.42875270913E+02  0.14314538294E+03  0.17193439324E+03  0.00000000000E+00 0.  1.
         12    1    5    5    0    0 -0.99527653445E+01  0.45589635301E+02  0.69210243437E+02  0.83471732829E+02  0.00000000000E+00 0. -1.
         11    1    3    3    0    0 -0.23461228448E+02 -0.11826051686E+02 -0.35943479776E+03  0.36039375491E+03  0.00000000000E+00 0. -1.
        -12    1    3    3    0    0  0.68242907145E+02 -0.32446703035E+01 -0.63536911112E+03  0.63903171254E+03  0.00000000000E+00 0.  1.
          5    1    4    4  501    0 -0.11438214199E+03 -0.88950210885E+02 -0.35905624270E+03  0.38721347116E+03  0.41800000000E+01 0.  1.
         -5    1    4    4    0  501 -0.54911483898E+01  0.15556026659E+02  0.12389763367E+01  0.17063122177E+02  0.41800000000E+01 0.  1.
</event>
<event>
11    1  0.1002087E-008  0.1375639E+03  0.7561462E-02  0.1110310E+00
         22   -1    0    0    0    0  0.00000000000E+00  0.00000000000E+00  0.10556686549E+03  0.10556686549E+03  0.00000000000E+00 0. -1.
         22   -1    0    0    0    0 -0.00000000000E+00 -0.00000000000E+00 -0.23378562706E+04  0.23378562706E+04  0.00000000000E+00 0.  1.
        -24    2    1    2    0    0  0.51686122779E+02 -0.37301044960E+01 -0.14721874584E+04  0.14754023027E+04  0.82405542226E+02 0.  0.
         25    2    1    2    0    0 -0.78460460961E+02  0.10663266909E+02 -0.84023016002E+03  0.85317269770E+03  0.12508869289E+03 0.  0.
         24    2    1    2    0    0  0.26774338182E+02 -0.69331624131E+01  0.80128213283E+02  0.11484813564E+03  0.77489546201E+02 0.  0.
        -13    1    5    5    0    0 -0.23734266476E+02 -0.22160241543E+01  0.52575870873E+01  0.24410415609E+02  0.00000000000E+00 0.  1.
         14    1    5    5    0    0  0.50508604658E+02 -0.47171382588E+01  0.74870626196E+02  0.90437720033E+02  0.00000000000E+00 0. -1.
         11    1    3    3    0    0  0.69380289437E+01  0.36117403947E+02 -0.64486939733E+03  0.64591728784E+03  0.00000000000E+00 0. -1.
        -12    1    3    3    0    0  0.44748093835E+02 -0.39847508443E+02 -0.82731806105E+03  0.82948501491E+03  0.00000000000E+00 0.  1.
          5    1    4    4  501    0 -0.34207982616E+02  0.47506524858E+02 -0.15875333917E+03  0.16925469292E+03  0.41800000000E+01 0.  1.
         -5    1    4    4    0  501 -0.44252478345E+02 -0.36843257949E+02 -0.68147682085E+03  0.68391800478E+03  0.41800000000E+01 0.  1.
</event>
<event>
11    1  0.1002087E-008  0.2261795E+03  0.7561462E-02  0.1037414E+00
         22   -1    0    0    0    0  0.00000000000E+00  0.00000000000E+00  0.57657737738E+03  0.57657737738E+03  0.00000000000E+00 0.  1.
         22   -1    0    0    0    0 -0.00000000000E+00 -0.00000000000E+00 -0.18121167254E+04  0.18121167254E+04  0.00000000000E+00 0. -1.
        -24    2    1    2    0    0 -0.17638573972E+02 -0.62913850564E+02 -0.14547482737E+04  0.14584418389E+04  0.80565413844E+02 0.  0.
         25    2    1    2    0    0 -0.40509032158E+02  0.23896701917E+03 -0.28030081364E+03  0.39110383842E+03  0.12508976123E+03 0.  0.
         24    2    1    2    0    0  0.58147606130E+02 -0.17605316860E+03  0.49950973927E+03  0.53914842544E+03  0.82432898494E+02 0.  0.
        -11    1    5    5    0    0  0.43128601531E+02 -0.17394257558E+03  0.39766566277E+03  0.43618124125E+03  0.00000000000E+00 0.  1.
         12    1    5    5    0    0  0.15019004599E+02 -0.21105930189E+01  0.10184407650E+03  0.10296718419E+03  0.00000000000E+00 0. -1.
         13    1    3    3    0    0 -0.17902849049E+01  0.14668846026E+02 -0.56043310567E+03  0.56062790342E+03  0.00000000000E+00 0. -1.
        -14    1    3    3    0    0 -0.15848289067E+02 -0.77582696591E+02 -0.89431516801E+03  0.89781393552E+03  0.00000000000E+00 0.  1.
          5    1    4    4  501    0 -0.52049269561E+02  0.71007116293E+02 -0.16481485534E+03  0.18690250391E+03  0.41800000000E+01 0.  1.
         -5    1    4    4    0  501  0.11540237404E+02  0.16795990287E+03 -0.11548595830E+03  0.20420133451E+03  0.41800000000E+01 0.  1.
</event>
<event>
11    1  0.1002087E-008  0.1974399E+03  0.7561462E-02  0.1056349E+00
         22   -1    0    0    0    0  0.00000000000E+00  0.00000000000E+00  0.31675825939E+04  0.31675825939E+04  0.00000000000E+00 0.  1.
         22   -1    0    0    0    0 -0.00000000000E+00 -0.00000000000E+00 -0.66329278382E+03  0.66329278382E+03  0.00000000000E+00 0.  1.
         24    2    1    2    0    0 -0.44753538511E+02  0.36551794885E+02 -0.60347426797E+03  0.61155293339E+03  0.80479098609E+02 0.  0.
         25    2    1    2    0    0 -0.73769021485E+02  0.63932105741E+02  0.64973808862E+02  0.17145910727E+03  0.12508975559E+03 0.  0.
        -24    2    1    2    0    0  0.11852256000E+03 -0.10048390063E+03  0.30427902692E+04  0.30478633370E+04  0.82180822804E+02 0.  0.
        -13    1    3    3    0    0  0.21923460532E+02  0.13605199328E+02 -0.10541981340E+03  0.10853145455E+03  0.00000000000E+00 0.  1.
         14    1    3    3    0    0 -0.66676999042E+02  0.22946595557E+02 -0.49805445457E+03  0.50302147883E+03  0.00000000000E+00 0. -1.
         13    1    5    5    0    0  0.43219005313E+02 -0.76487738517E+02  0.20717957295E+04  0.20736575902E+04  0.00000000000E+00 0. -1.
        -14    1    5    5    0    0  0.75303554682E+02 -0.23996162109E+02  0.97099453965E+03  0.97420574684E+03  0.00000000000E+00 0.  1.
          5    1    4    4  501    0 -0.91509018540E+02  0.55834071352E+00  0.47750868721E+02  0.10330455015E+03  0.41800000000E+01 0. -1.
         -5    1    4    4    0  501  0.17739997055E+02  0.63373765028E+02  0.17222940142E+02  0.68154557122E+02  0.41800000000E+01 0. -1.
</event>
<event>
11    1  0.1002087E-008  0.1340253E+03  0.7561462E-02  0.1114420E+00
         22   -1    0    0    0    0  0.00000000000E+00  0.00000000000E+00  0.22178739848E+04  0.22178739848E+04  0.00000000000E+00 0.  1.
         22   -1    0    0    0    0 -0.00000000000E+00 -0.00000000000E+00 -0.16461860223E+03  0.16461860223E+03  0.00000000000E+00 0. -1.
         24    2    1    2    0    0  0.24385708095E+02  0.13841714106E+02 -0.97503150760E+02  0.12759050027E+03  0.77370637472E+02 0.  0.
         25    2    1    2    0    0 -0.61431454205E+02 -0.43677711249E+02  0.53404014664E+02  0.15550506720E+03  0.12509304984E+03 0.  0.
        -24    2    1    2    0    0  0.37045746110E+02  0.29835997142E+02  0.20973545186E+04  0.20993970195E+04  0.79431068766E+02 0.  0.
        -13    1    3    3    0    0  0.28064936061E+02  0.71438907418E+01  0.81933898425E+00  0.28971488181E+02  0.00000000000E+00 0.  1.
         14    1    3    3    0    0 -0.36792279659E+01  0.66978233646E+01 -0.98322489745E+02  0.98619012091E+02  0.00000000000E+00 0. -1.
         13    1    5    5    0    0  0.32129420080E+02  0.14780950093E+02  0.31613270533E+03  0.31810479955E+03  0.00000000000E+00 0. -1.
        -14    1    5    5    0    0  0.49163260295E+01  0.15055047049E+02  0.17812218133E+04  0.17812922200E+04  0.00000000000E+00 0.  1.
          5    1    4    4  501    0 -0.43525434242E+02 -0.55560216615E+02  0.89030521533E+02  0.11368952133E+03  0.41800000000E+01 0. -1.
         -5    1    4    4    0  501 -0.17906019962E+02  0.11882505366E+02 -0.35626506869E+02  0.41815545869E+02  0.41800000000E+01 0. -1.
</event>
<event>
11    1  0.1002087E-008  0.1320742E+03  0.7561462E-02  0.1116746E+00
         22   -1    0    0    0    0  0.00000000000E+00  0.00000000000E+00  0.35146329033E+03  0.35146329033E+03  0.00000000000E+00 0.  1.
         22   -1    0    0    0    0 -0.00000000000E+00 -0.00000000000E+00 -0.32156979191E+03  0.32156979191E+03  0.00000000000E+00 0.  1.
        -24    2    1    2    0    0 -0.22317209138E+02  0.36087711890E+02 -0.24740979222E+03  0.26365476084E+03  0.80634030374E+02 0.  0.
         25    2    1    2    0    0  0.28109113473E+02 -0.31814472237E+02  0.12273398469E+02  0.13266735367E+03  0.12509079709E+03 0.  0.
         24    2    1    2    0    0 -0.57919043350E+01 -0.42732396539E+01  0.26502989217E+03  0.27671096772E+03  0.79223160638E+02 0.  0.
        -13    1    5    5    0    0  0.29831740219E+02 -0.10081614031E+02  0.19885352986E+03  0.20133131402E+03  0.00000000000E+00 0.  1.
         14    1    5    5    0    0 -0.35623644554E+02  0.58083743774E+01  0.66176362307E+02  0.75379653703E+02  0.00000000000E+00 0. -1.
         11    1    3    3    0    0  0.17044211154E+02  0.39822364034E+01 -0.85983637803E+01  0.19501158948E+02  0.00000000000E+00 0. -1.
        -12    1    3    3    0    0 -0.39361420292E+02  0.32105475487E+02 -0.23881142844E+03  0.24415360190E+03  0.00000000000E+00 0.  1.
          5    1    4    4  501    0 -0.45799280695E+02  0.99404554949E+01  0.62278137391E+01  0.47462035688E+02  0.41800000000E+01 0. -1.
         -5    1    4    4    0  501  0.73908394169E+02 -0.41754927731E+02  0.60455847300E+01  0.85205317986E+02  0.41800000000E+01 0. -1.
</event>
<event>
11    1  0.1002087E-008  0.3655565E+03  0.7561462E-02  0.9757235E-01
         22   -1    0    0    0    0  0.00000000000E+00  0.00000000000E+00  0.72385708436E+03  0.72385708436E+03  0.00000000000E+00 0. -1.
         22   -1    0    0    0    0 -0.00000000000E+00 -0.00000000000E+00 -0.42628164105E+03  0.42628164105E+03  0.00000000000E+00 0. -1.
        -24    2    1    2    0    0  0.22002028546E+03  0.20884726144E+03 -0.31670922448E+02  0.31527759525E+03  0.79817354685E+02 0.  0.
         25    2    1    2    0    0 -0.42703494577E+03 -0.12057237638E+03  0.44407922318E+02  0.46317354550E+03  0.12514442390E+03 0.  0.
         24    2    1    2    0    0  0.20701466030E+03 -0.88274885058E+02  0.28483844344E+03  0.37168758466E+03  0.79819777096E+02 0.  0.
        -13    1    5    5    0    0  0.20706718321E+02 -0.16410232507E+02  0.85677388447E+02  0.89658679477E+02  0.00000000000E+00 0.  1.
         14    1    5    5    0    0  0.18630794198E+03 -0.71864652551E+02  0.19916105500E+03  0.28202890518E+03  0.00000000000E+00 0. -1.
         11    1    3    3    0    0  0.16528262058E+03  0.16405741146E+03  0.10167798369E+02  0.23310204427E+03  0.00000000000E+00 0. -1.
        -12    1    3    3    0    0  0.54737664886E+02  0.44789849983E+02 -0.41838720817E+02  0.82175550977E+02  0.00000000000E+00 0.  1.
          5    1    4    4  501    0 -0.37017497202E+03 -0.10173388453E+03 -0.72111072417E+01  0.38399058014E+03  0.41800000000E+01 0.  1.
         -5    1    4    4    0  501 -0.56859973749E+02 -0.18838491851E+02  0.51619029560E+02  0.79182965356E+02  0.41800000000E+01 0.  1.
</event>
<event>
11    1  0.1002087E-008  0.1463711E+03  0.7561462E-02  0.1100646E+00
         22   -1    0    0    0    0  0.00000000000E+00  0.00000000000E+00  0.93371372104E+03  0.93371372104E+03  0.00000000000E+00 0.  1.
         22   -1    0    0    0    0 -0.00000000000E+00 -0.00000000000E+00 -0.18962703312E+03  0.18962703312E+03  0.00000000000E+00 0. -1.
        -24    2    1    2    0    0  0.42579918103E+02 -0.59180108697E+02 -0.12729712384E+03  0.16888207204E+03  0.83673543170E+02 0.  0.
         25    2    1    2    0    0 -0.26749230582E+02  0.10631937727E+03  0.14077865459E+03  0.21790095699E+03  0.12507144417E+03 0.  0.
         24    2    1    2    0    0 -0.15830687521E+02 -0.47139268572E+02  0.73060515717E+03  0.73655772513E+03  0.79124367033E+02 0.  0.
        -13    1    5    5    0    0 -0.27364040191E+02 -0.64370102544E+02  0.47625295312E+03  0.48136179341E+03  0.00000000000E+00 0.  1.
         14    1    5    5    0    0  0.11533352670E+02  0.17230833973E+02  0.25435220405E+03  0.25519593172E+03  0.00000000000E+00 0. -1.
         13    1    3    3    0    0  0.63648913174E+02 -0.49033471767E+02 -0.11994514948E+03  0.14436864059E+03  0.00000000000E+00 0. -1.
        -14    1    3    3    0    0 -0.21068995071E+02 -0.10146636930E+02 -0.73519743567E+01  0.24513431446E+02  0.00000000000E+00 0.  1.
          5    1    4    4  501    0 -0.24598100833E+02  0.62476455778E+02 -0.31711854817E+01  0.67349112159E+02  0.41800000000E+01 0. -1.
         -5    1    4    4    0  501 -0.21511297488E+01  0.43842921490E+02  0.14394984008E+03  0.15055184483E+03  0.41800000000E+01 0. -1.
</event>
<event>
11    1  0.1002087E-008  0.1303292E+03  0.7561462E-02  0.1118865E+00
         22   -1    0    0    0    0  0.00000000000E+00  0.00000000000E+00  0.24874260133E+03  0.24874260133E+03  0.00000000000E+00 0.  1.
         22   -1    0    0    0    0 -0.00000000000E+00 -0.00000000000E+00 -0.16002135797E+04  0.16002135797E+04  0.00000000000E+00 0.  1.
         24    2    1    2    0    0 -0.75507081786E+01 -0.21712920237E+02 -0.13007749456E+04  0.13036658384E+04  0.83670156292E+02 0.  0.
         25    2    1    2    0    0  0.99844400702E+01  0.57561344367E+02 -0.27265843924E+03  0.30561816064E+03  0.12508732236E+03 0.  0.
        -24    2    1    2    0    0 -0.24337318915E+01 -0.35848424130E+02  0.22196240642E+03  0.23967218202E+03  0.82972359287E+02 0.  0.
        -11    1    3    3    0    0 -0.35325826118E+02  0.73571544185E+01 -0.31301889975E+03  0.31509184901E+03  0.00000000000E+00 0.  1.
         12    1    3    3    0    0  0.27775117939E+02 -0.29070074656E+02 -0.98775604581E+03  0.98857398936E+03  0.00000000000E+00 0. -1.
         13    1    5    5    0    0  0.27936066724E+02 -0.16196969583E+01  0.16117659899E+03  0.16358772357E+03  0.00000000000E+00 0. -1.
        -14    1    5    5    0    0 -0.30369798615E+02 -0.34228727171E+02  0.60785807434E+02  0.76084458447E+02  0.00000000000E+00 0.  1.
          5    1    4    4  501    0  0.55440632966E+02  0.84981394439E+00 -0.17623176676E+03  0.18479581700E+03  0.41800000000E+01 0.  1.
         -5    1    4    4    0  501 -0.45456192896E+02  0.56711530423E+02 -0.96426672486E+02  0.12082234364E+03  0.41800000000E+01 0.  1.
</event>
<event>
11    1  0.1702647E-008  0.1830102E+03  0.7561462E-02  0.1067234E+00
         22   -1    0    0    0    0  0.00000000000E+00  0.00000000000E+00  0.69923830001E+03  0.69923830001E+03  0.00000000000E+00 0. -1.
         22   -1    0    0    0    0 -0.00000000000E+00 -0.00000000000E+00 -0.88406357054E+03  0.88406357054E+03  0.00000000000E+00 0.  1.
        -24    2    1    2    0    0  0.99967813780E+01 -0.17331476328E+02 -0.63647126932E+03  0.64196940678E+03  0.81416993648E+02 0.  0.
         25    2    1    2    0    0 -0.90936546012E+02 -0.89312108705E+02 -0.20163825290E+03  0.26935381901E+03  0.12508951442E+03 0.  0.
         24    2    1    2    0    0  0.80939764634E+02  0.10664358503E+03  0.65328425169E+03  0.67197864476E+03  0.82770077796E+02 0.  0.
        -11    1    5    5    0    0  0.48583156181E+02  0.41206519247E+02  0.14364112050E+03  0.15713392947E+03  0.00000000000E+00 0.  1.
         12    1    5    5    0    0  0.32356608453E+02  0.65437065786E+02  0.50964313119E+03  0.51484471529E+03  0.00000000000E+00 0. -1.
         11    1    3    3    0    0  0.23205102953E+02  0.13759827002E+01 -0.50971877074E+02  0.56022338258E+02  0.00000000000E+00 0. -1.
        -12    1    3    3    0    0 -0.13208321575E+02 -0.18707459028E+02 -0.58549939225E+03  0.58594706852E+03  0.00000000000E+00 0.  1.
          5    1    4    4  501    0 -0.23270806043E+02  0.98987700089E+01 -0.12324251338E+03  0.12587972658E+03  0.41800000000E+01 0.  1.
         -5    1    4    4    0  501 -0.67665739969E+02 -0.99210878714E+02 -0.78395739524E+02  0.14347409242E+03  0.41800000000E+01 0.  1.
</event>
<event>
11    1  0.1002087E-008  0.1668687E+03  0.7561462E-02  0.1080789E+00
         22   -1    0    0    0    0  0.00000000000E+00  0.00000000000E+00  0.14987998416E+04  0.14987998416E+04  0.00000000000E+00 0.  1.
         22   -1    0    0    0    0 -0.00000000000E+00 -0.00000000000E+00 -0.11047918277E+03  0.11047918277E+03  0.00000000000E+00 0. -1.
         24    2    1    2    0    0 -0.59764613457E+02 -0.79621634574E+02  0.44797083532E+01  0.12787001074E+03  0.80120273006E+02 0.  0.
         25    2    1    2    0    0  0.79444790757E+02  0.11735549099E+03  0.14249352190E+03  0.23672248417E+03  0.12509734083E+03 0.  0.
        -24    2    1    2    0    0 -0.19680177299E+02 -0.37733856420E+02  0.12413474286E+04  0.12446865295E+04  0.80560318193E+02 0.  0.
        -13    1    3    3    0    0  0.12096756862E+02  0.78089452856E+01  0.28911727372E+01  0.14685708456E+02  0.00000000000E+00 0.  1.
         14    1    3    3    0    0 -0.71861370320E+02 -0.87430579859E+02  0.15885356160E+01  0.11318430229E+03  0.00000000000E+00 0. -1.
         13    1    5    5    0    0 -0.23727128947E+02 -0.64467838026E+01  0.10270240314E+03  0.10560455142E+03  0.00000000000E+00 0. -1.
        -14    1    5    5    0    0  0.40469516480E+01 -0.31287072617E+02  0.11386450255E+04  0.11390819781E+04  0.00000000000E+00 0.  1.
          5    1    4    4  501    0  0.40449564620E+02  0.10922220656E+03  0.34507844105E+02  0.12154802092E+03  0.41800000000E+01 0.  1.
         -5    1    4    4    0  501  0.38995226137E+02  0.81332844321E+01  0.10798567779E+03  0.11517446325E+03  0.41800000000E+01 0.  1.
</event>
<event>
11    1  0.1002087E-008  0.4097302E+03  0.7561462E-02  0.9621477E-01
         22   -1    0    0    0    0  0.00000000000E+00  0.00000000000E+00  0.84924448850E+03  0.84924448850E+03  0.00000000000E+00 0. -1.
         22   -1    0    0    0    0 -0.00000000000E+00 -0.00000000000E+00 -0.35681048984E+04  0.35681048984E+04  0.00000000000E+00 0. -1.
         24    2    1    2    0    0  0.36533830811E+03  0.12424516911E+03 -0.32771565526E+04  0.33008348574E+04  0.82745054458E+02 0.  0.
         25    2    1    2    0    0 -0.41023491666E+03 -0.28131803904E+03 -0.17070352102E+02  0.51319210184E+03  0.12506882319E+03 0.  0.
        -24    2    1    2    0    0  0.44896608551E+02  0.15707286993E+03  0.57536649479E+03  0.60332242769E+03  0.79143897404E+02 0.  0.
        -13    1    3    3    0    0 -0.11757083965E+01 -0.49877787102E+01 -0.76305681811E+02  0.76477560783E+02  0.00000000000E+00 0.  1.
         14    1    3    3    0    0  0.36651401650E+03  0.12923294782E+03 -0.32008508708E+04  0.32243572966E+04  0.00000000000E+00 0. -1.
         13    1    5    5    0    0  0.37375591043E+02  0.16275227587E+03  0.49506345622E+03  0.52246824190E+03  0.00000000000E+00 0. -1.
        -14    1    5    5    0    0  0.75210175089E+01 -0.56794059414E+01  0.80303038568E+02  0.80854185788E+02  0.00000000000E+00 0.  1.
          5    1    4    4  501    0 -0.28443506723E+03 -0.20306769249E+03 -0.68793697870E+02  0.35621600255E+03  0.41800000000E+01 0.  1.
         -5    1    4    4    0  501 -0.12579984943E+03 -0.78250346545E+02  0.51723345768E+02  0.15697609929E+03  0.41800000000E+01 0.  1.
</event>
<event>
11    1  0.1002087E-008  0.2050866E+03  0.7561462E-02  0.1050984E+00
         22   -1    0    0    0    0  0.00000000000E+00  0.00000000000E+00  0.10114399330E+04  0.10114399330E+04  0.00000000000E+00 0.  1.
         22   -1    0    0    0    0 -0.00000000000E+00 -0.00000000000E+00 -0.19906885893E+03  0.19906885893E+03  0.00000000000E+00 0.  1.
         24    2    1    2    0    0 -0.16261093696E+03  0.25501180024E+02 -0.87214838150E+02  0.20321539986E+03  0.81224649842E+02 0.  0.
         25    2    1    2    0    0  0.15646666561E+03 -0.45347424362E+01  0.14297434328E+03  0.24615285566E+03  0.12508870523E+03 0.  0.
        -24    2    1    2    0    0  0.61442713499E+01 -0.20966437588E+02  0.75661156897E+03  0.76114053644E+03  0.79978161578E+02 0.  0.
        -11    1    3    3    0    0 -0.14357432811E+03 -0.89402368415E+01 -0.73498596269E+02  0.16154119964E+03  0.00000000000E+00 0.  1.
         12    1    3    3    0    0 -0.19036608854E+02  0.34441416866E+02 -0.13716241881E+02  0.41674200217E+02  0.00000000000E+00 0. -1.
         11    1    5    5    0    0  0.21398789425E+02  0.17039257158E+02  0.11441190752E+03  0.11763642742E+03  0.00000000000E+00 0. -1.
        -12    1    5    5    0    0 -0.15254518075E+02 -0.38005694746E+02  0.64219966145E+03  0.64350410902E+03  0.00000000000E+00 0.  1.
          5    1    4    4  501    0 -0.11918264425E+02  0.15562243152E+02 -0.54323749116E+01  0.20765633533E+02  0.41800000000E+01 0.  1.
         -5    1    4    4    0  501  0.16838493004E+03 -0.20096985588E+02  0.14840671819E+03  0.22538722213E+03  0.41800000000E+01 0.  1.
</event>
<event>
11    1  0.1002087E-008  0.1609292E+03  0.7561462E-02  0.1086207E+00
         22   -1    0    0    0    0  0.00000000000E+00  0.00000000000E+00  0.42271746922E+03  0.42271746922E+03  0.00000000000E+00 0. -1.
         22   -1    0    0    0    0 -0.00000000000E+00 -0.00000000000E+00 -0.40113831467E+03  0.40113831467E+03  0.00000000000E+00 0.  1.
         24    2    1    2    0    0 -0.37682803513E+02  0.54067175401E+01 -0.28307890820E+03  0.29841074608E+03  0.86406474509E+02 0.  0.
         25    2    1    2    0    0 -0.36905208758E+02  0.68621254534E+02 -0.40019483863E+02  0.15270841138E+03  0.12508968307E+03 0.  0.
        -24    2    1    2    0    0  0.74588012270E+02 -0.74027972074E+02  0.34467754661E+03  0.37273662642E+03  0.95322973692E+02 0.  0.
        -11    1    3    3    0    0 -0.51423171400E+02  0.13482076590E+02 -0.27582260705E+03  0.28089894892E+03  0.00000000000E+00 0.  1.
         12    1    3    3    0    0  0.13740367888E+02 -0.80753590503E+01 -0.72563011477E+01  0.17511797162E+02  0.00000000000E+00 0. -1.
         11    1    5    5    0    0  0.92440717332E+02 -0.70807389605E+02  0.32814431835E+03  0.34819199633E+03  0.00000000000E+00 0. -1.
        -12    1    5    5    0    0 -0.17852705062E+02 -0.32205824692E+01  0.16533228259E+02  0.24544630088E+02  0.00000000000E+00 0.  1.
          5    1    4    4  501    0 -0.59510898725E+01 -0.30208946822E+02 -0.37938701490E+02  0.49038896903E+02  0.41800000000E+01 0. -1.
         -5    1    4    4    0  501 -0.30954118885E+02  0.98830201356E+02 -0.20807823731E+01  0.10366951447E+03  0.41800000000E+01 0. -1.
</event>
<event>
11    1  0.1002087E-008  0.1918817E+03  0.7561462E-02  0.1060418E+00
         22   -1    0    0    0    0  0.00000000000E+00  0.00000000000E+00  0.30476879494E+03  0.30476879494E+03  0.00000000000E+00 0. -1.
         22   -1    0    0    0    0 -0.00000000000E+00 -0.00000000000E+00 -0.63907085347E+03  0.63907085347E+03  0.00000000000E+00 0.  1.
         24    2    1    2    0    0  0.72875284282E+02  0.13426536912E+03 -0.40759597834E+03  0.44260092317E+03  0.80144240133E+02 0.  0.
         25    2    1    2    0    0 -0.44688446716E+02 -0.12227648759E+03 -0.16754893772E+03  0.24630816369E+03  0.12508584365E+03 0.  0.
        -24    2    1    2    0    0 -0.28186837566E+02 -0.11988881530E+02  0.24084285753E+03  0.25493056155E+03  0.77756530897E+02 0.  0.
        -13    1    3    3    0    0  0.14871721242E+02  0.66838557478E+02 -0.27163178055E+03  0.28012922922E+03  0.00000000000E+00 0.  1.
         14    1    3    3    0    0  0.58003563040E+02  0.67426811646E+02 -0.13596419778E+03  0.16247169394E+03  0.00000000000E+00 0. -1.
         13    1    5    5    0    0 -0.33787237293E+02 -0.33499737962E+02  0.21771293287E+03  0.22285136524E+03  0.00000000000E+00 0. -1.
        -14    1    5    5    0    0  0.56003997278E+01  0.21510856431E+02  0.23129924653E+02  0.32079196311E+02  0.00000000000E+00 0.  1.
          5    1    4    4  501    0 -0.48968734154E+02 -0.10441747498E+03 -0.47512802554E+02  0.12480338462E+03  0.41800000000E+01 0. -1.
         -5    1    4    4    0  501  0.42802874372E+01 -0.17859012615E+02 -0.12003613517E+03  0.12150477907E+03  0.41800000000E+01 0. -1.
</event>
<event>
11    1  0.1002087E-008  0.1380404E+03  0.7561462E-02  0.1109767E+00
         22   -1    0    0    0    0  0.00000000000E+00  0.00000000000E+00  0.15192605973E+04  0.15192605973E+04  0.00000000000E+00 0.  1.
         22   -1    0    0    0    0 -0.00000000000E+00 -0.00000000000E+00 -0.59168683254E+03  0.59168683254E+03  0.00000000000E+00 0. -1.
        -24    2    1    2    0    0 -0.53655659565E+02 -0.21201651108E+02 -0.54553241569E+03  0.55443020027E+03  0.80366601267E+02 0.  0.
         25    2    1    2    0    0  0.85980252401E+02  0.11239374206E+01  0.10281046907E+03  0.18333115804E+03  0.12508578624E+03 0.  0.
         24    2    1    2    0    0 -0.32324592836E+02  0.20077713687E+02  0.13702957114E+04  0.13731860715E+04  0.80508735615E+02 0.  0.
        -11    1    5    5    0    0 -0.36937506085E+02  0.19141453602E+02  0.13665166327E+04  0.13671497658E+04  0.00000000000E+00 0.  1.
         12    1    5    5    0    0  0.46129132491E+01  0.93626008563E+00  0.37790787078E+01  0.60363057802E+01  0.00000000000E+00 0. -1.
         13    1    3    3    0    0  0.62859872269E+01  0.21760335780E+02 -0.18885548799E+03  0.19020888831E+03  0.00000000000E+00 0. -1.
        -14    1    3    3    0    0 -0.59941646792E+02 -0.42961986888E+02 -0.35667692769E+03  0.36422131196E+03  0.00000000000E+00 0.  1.
          5    1    4    4  501    0  0.94450571801E+02  0.30797386722E+02  0.29555936790E+02  0.10373242185E+03  0.41800000000E+01 0.  1.
         -5    1    4    4    0  501 -0.84703193999E+01 -0.29673449301E+02  0.73254532275E+02  0.79598736190E+02  0.41800000000E+01 0.  1.
</event>
<event>
11    1  0.1002087E-008  0.3228314E+03  0.7561462E-02  0.9909661E-01
         22   -1    0    0    0    0  0.00000000000E+00  0.00000000000E+00  0.58621618610E+02  0.58621618610E+02  0.00000000000E+00 0.  1.
         22   -1    0    0    0    0 -0.00000000000E+00 -0.00000000000E+00 -0.29241618475E+04  0.29241618475E+04  0.00000000000E+00 0.  1.
         24    2    1    2    0    0 -0.30604425125E+02  0.39393235506E+02 -0.41423902888E+03  0.42538962335E+03  0.82908990874E+02 0.  0.
         25    2    1    2    0    0  0.25739280166E+03  0.15378669103E+03 -0.18817117962E+04  0.19095516977E+04  0.12508797478E+03 0.  0.
        -24    2    1    2    0    0 -0.22678837653E+03 -0.19317992654E+03 -0.56958940382E+03  0.64784214510E+03  0.80721151348E+02 0.  0.
        -11    1    3    3    0    0 -0.55365662710E+02  0.43487490535E+02 -0.27261332702E+03  0.28155735563E+03  0.00000000000E+00 0.  1.
         12    1    3    3    0    0  0.24761237585E+02 -0.40942550286E+01 -0.14162570186E+03  0.14383226772E+03  0.00000000000E+00 0. -1.
         11    1    5    5    0    0 -0.11994065690E+03 -0.65302518322E+02 -0.31783716559E+03  0.34593445031E+03  0.00000000000E+00 0. -1.
        -12    1    5    5    0    0 -0.10684771963E+03 -0.12787740821E+03 -0.25175223823E+03  0.30190769479E+03  0.00000000000E+00 0.  1.
          5    1    4    4  501    0  0.96880303385E+02  0.12597551054E+03 -0.80107731014E+03  0.81669942553E+03  0.41800000000E+01 0. -1.
         -5    1    4    4    0  501  0.16051249827E+03  0.27811180493E+02 -0.10806344860E+04  0.10928522721E+04  0.41800000000E+01 0. -1.
</event>
<event>
11    1  0.1002087E-008  0.1619596E+03  0.7561462E-02  0.1085249E+00
         22   -1    0    0    0    0  0.00000000000E+00  0.00000000000E+00  0.16351795862E+04  0.16351795862E+04  0.00000000000E+00 0.  1.
         22   -1    0    0    0    0 -0.00000000000E+00 -0.00000000000E+00 -0.16404373938E+03  0.16404373938E+03  0.00000000000E+00 0.  1.
        -24    2    1    2    0    0  0.82692154791E+02  0.58410490085E+02 -0.83479259698E+02  0.15461186529E+03  0.81769580354E+02 0.  0.
         25    2    1    2    0    0 -0.11993545169E+03 -0.18229206333E+02  0.13132022907E+03  0.21819561226E+03  0.12508999205E+03 0.  0.
         24    2    1    2    0    0  0.37243296900E+02 -0.40181283752E+02  0.14232948775E+04  0.14264158481E+04  0.76761088071E+02 0.  0.
        -11    1    5    5    0    0  0.48323085770E+02 -0.56493352836E+02  0.10807077068E+04  0.10832616337E+04  0.00000000000E+00 0.  1.
         12    1    5    5    0    0 -0.11079788870E+02  0.16312069084E+02  0.34258717070E+03  0.34315421438E+03  0.00000000000E+00 0. -1.
         11    1    3    3    0    0  0.88020697494E+02  0.19311117548E+02 -0.51295364334E+02  0.10369077515E+03  0.00000000000E+00 0. -1.
        -12    1    3    3    0    0 -0.53285427030E+01  0.39099372537E+02 -0.32183895365E+02  0.50921090139E+02  0.00000000000E+00 0.  1.
          5    1    4    4  501    0 -0.72566717465E+02 -0.45299817353E+02  0.13866868294E+03  0.16298612813E+03  0.41800000000E+01 0.  1.
         -5    1    4    4    0  501 -0.47368734226E+02  0.27070611020E+02 -0.73484538677E+01  0.55209484126E+02  0.41800000000E+01 0.  1.
</event>
<event>
11    1  0.1002087E-008  0.1823970E+03  0.7561462E-02  0.1067720E+00
         22   -1    0    0    0    0  0.00000000000E+00  0.00000000000E+00  0.19032225512E+03  0.19032225512E+03  0.00000000000E+00 0. -1.
         22   -1    0    0    0    0 -0.00000000000E+00 -0.00000000000E+00 -0.91479811892E+03  0.91479811892E+03  0.00000000000E+00 0.  1.
        -24    2    1    2    0    0 -0.56040700992E+02 -0.78537936455E+01 -0.57723485586E+03  0.58576123050E+03  0.81938379877E+02 0.  0.
         25    2    1    2    0    0  0.15377032799E+03  0.89126828644E+02 -0.25470284497E+03  0.33484049272E+03  0.12512278359E+03 0.  0.
         24    2    1    2    0    0 -0.97729626996E+02 -0.81273034998E+02  0.10746183703E+03  0.18451865082E+03  0.79641069008E+02 0.  0.
        -11    1    5    5    0    0 -0.53960429823E+02 -0.22262408837E+02  0.52048409659E+01  0.58604037433E+02  0.00000000000E+00 0.  1.
         12    1    5    5    0    0 -0.43769197173E+02 -0.59010626162E+02  0.10225699606E+03  0.12591461339E+03  0.00000000000E+00 0. -1.
         13    1    3    3    0    0  0.98421608830E+01  0.13749150613E+02 -0.32536459014E+02  0.36667812023E+02  0.00000000000E+00 0. -1.
        -14    1    3    3    0    0 -0.65882861875E+02 -0.21602944258E+02 -0.54469839684E+03  0.54909341847E+03  0.00000000000E+00 0.  1.
          5    1    4    4  501    0  0.10465938292E+03 -0.10309070410E+02 -0.14103873384E+03  0.17598085183E+03  0.41800000000E+01 0. -1.
         -5    1    4    4    0  501  0.49110945072E+02  0.99435899053E+02 -0.11366411113E+03  0.15885964089E+03  0.41800000000E+01 0. -1.
</event>
<event>
11    1  0.1002087E-008  0.1990957E+03  0.7561462E-02  0.1055165E+00
         22   -1    0    0    0    0  0.00000000000E+00  0.00000000000E+00  0.29019687837E+03  0.29019687837E+03  0.00000000000E+00 0.  1.
         22   -1    0    0    0    0 -0.00000000000E+00 -0.00000000000E+00 -0.14636591570E+04  0.14636591570E+04  0.00000000000E+00 0.  1.
         24    2    1    2    0    0 -0.25207786763E+02  0.12677647385E+02 -0.40890602982E+03  0.41727908811E+03  0.78240276660E+02 0.  0.
         25    2    1    2    0    0 -0.24989190297E+02  0.13441404161E+03 -0.10145307345E+04  0.10313155548E+04  0.12509024032E+03 0.  0.
        -24    2    1    2    0    0  0.50196977060E+02 -0.14709168899E+03  0.24997448563E+03  0.30526139247E+03  0.80879990057E+02 0.  0.
        -13    1    3    3    0    0 -0.48618651113E+02 -0.10175223766E+02 -0.27373622813E+03  0.27820645392E+03  0.00000000000E+00 0.  1.
         14    1    3    3    0    0  0.23410864351E+02  0.22852871151E+02 -0.13516980169E+03  0.13907263418E+03  0.00000000000E+00 0. -1.
         11    1    5    5    0    0  0.56845874736E+02 -0.48344920266E+02  0.87319918817E+02  0.11486275729E+03  0.00000000000E+00 0. -1.
        -12    1    5    5    0    0 -0.66488976762E+01 -0.98746768728E+02  0.16265456681E+03  0.19039863518E+03  0.00000000000E+00 0.  1.
          5    1    4    4  501    0 -0.21142650308E+02  0.12554065643E+03 -0.47797798436E+03  0.49465937170E+03  0.41800000000E+01 0. -1.
         -5    1    4    4    0  501 -0.38465399897E+01  0.88733851817E+01 -0.53655275009E+03  0.53665618311E+03  0.41800000000E+01 0. -1.
</event>
<event>
11    1  0.1002087E-008  0.1757912E+03  0.7561462E-02  0.1073099E+00
         22   -1    0    0    0    0  0.00000000000E+00  0.00000000000E+00  0.27056104261E+03  0.27056104261E+03  0.00000000000E+00 0. -1.
         22   -1    0    0    0    0 -0.00000000000E+00 -0.00000000000E+00 -0.16372196766E+04  0.16372196766E+04  0.00000000000E+00 0. -1.
         24    2    1    2    0    0  0.82851221948E+02  0.89817296170E+02 -0.14190352552E+04  0.14265834314E+04  0.80918226610E+02 0.  0.
         25    2    1    2    0    0 -0.10464701984E+03 -0.91400249290E+02 -0.16409489384E+03  0.24875915917E+03  0.12509588624E+03 0.  0.
        -24    2    1    2    0    0  0.21795797889E+02  0.15829531204E+01  0.21647151508E+03  0.23243812869E+03  0.81792446367E+02 0.  0.
        -13    1    3    3    0    0  0.73839968321E+02  0.47453702933E+02 -0.59807859553E+03  0.60448507117E+03  0.00000000000E+00 0.  1.
         14    1    3    3    0    0  0.90112536267E+01  0.42363593237E+02 -0.82095665969E+03  0.82209836018E+03  0.00000000000E+00 0. -1.
         11    1    5    5    0    0  0.37362997799E+02 -0.30181569450E+02  0.14390470025E+03  0.15170854786E+03  0.00000000000E+00 0. -1.
        -12    1    5    5    0    0 -0.15567199909E+02  0.31764522571E+02  0.72566814824E+02  0.80729580829E+02  0.00000000000E+00 0.  1.
          5    1    4    4  501    0 -0.10564028418E+03 -0.10189286137E+03 -0.86658071691E+02  0.17049668216E+03  0.41800000000E+01 0. -1.
         -5    1    4    4    0  501  0.99326434516E+00  0.10492612077E+02 -0.77436822152E+02  0.78262477007E+02  0.41800000000E+01 0. -1.
</event>
<event>
11    1  0.1002087E-008  0.1410371E+03  0.7561462E-02  0.1106406E+00
         22   -1    0    0    0    0  0.00000000000E+00  0.00000000000E+00  0.67413245317E+03  0.67413245317E+03  0.00000000000E+00 0. -1.
         22   -1    0    0    0    0 -0.00000000000E+00 -0.00000000000E+00 -0.50776311485E+03  0.50776311485E+03  0.00000000000E+00 0.  1.
         24    2    1    2    0    0 -0.49045929389E+02  0.53983042770E+02 -0.41053782995E+03  0.42483997354E+03  0.81412659991E+02 0.  0.
         25    2    1    2    0    0  0.11577669916E+02 -0.95996967150E+01 -0.39949576854E+02  0.13217389915E+03  0.12509106406E+03 0.  0.
        -24    2    1    2    0    0  0.37468259473E+02 -0.44383346055E+02  0.61685674512E+03  0.62488169534E+03  0.81185819498E+02 0.  0.
        -11    1    3    3    0    0 -0.44059415898E+02  0.51072022139E+02 -0.41306589869E+03  0.41853676091E+03  0.00000000000E+00 0.  1.
         12    1    3    3    0    0 -0.49865134907E+01  0.29110206317E+01  0.25280687427E+01  0.63032126316E+01  0.00000000000E+00 0. -1.
         13    1    5    5    0    0  0.37061145843E+02 -0.23036989742E+02  0.58443321904E+03  0.58606008134E+03  0.00000000000E+00 0. -1.
        -14    1    5    5    0    0  0.40711362979E+00 -0.21346356313E+02  0.32423526088E+02  0.38821613997E+02  0.00000000000E+00 0.  1.
          5    1    4    4  501    0 -0.52080548830E+02 -0.19377558240E+02  0.10076859170E+01  0.55734739263E+02  0.41800000000E+01 0. -1.
         -5    1    4    4    0  501  0.63658218746E+02  0.97778615254E+01 -0.40957262771E+02  0.76439159883E+02  0.41800000000E+01 0. -1.
</event>
<event>
11    1  0.1002087E-008  0.2223295E+03  0.7561462E-02  0.1039768E+00
         22   -1    0    0    0    0  0.00000000000E+00  0.00000000000E+00  0.47417820977E+03  0.47417820977E+03  0.00000000000E+00 0. -1.
         22   -1    0    0    0    0 -0.00000000000E+00 -0.00000000000E+00 -0.11119067015E+04  0.11119067015E+04  0.00000000000E+00 0. -1.
        -24    2    1    2    0    0  0.13160550704E+03 -0.88795961947E+02 -0.57342931839E+03  0.60024978138E+03  0.79207856387E+02 0.  0.
         25    2    1    2    0    0 -0.19373217130E+03  0.17677684599E+03 -0.47313434271E+03  0.55523573599E+03  0.12509360014E+03 0.  0.
         24    2    1    2    0    0  0.62126664262E+02 -0.87980884042E+02  0.40883516939E+03  0.43059939388E+03  0.81665683807E+02 0.  0.
        -11    1    5    5    0    0 -0.17211856946E+01 -0.41268370381E+02  0.59584248251E+02  0.72500506990E+02  0.00000000000E+00 0.  1.
         12    1    5    5    0    0  0.63847849956E+02 -0.46712513660E+02  0.34925092114E+03  0.35809888689E+03  0.00000000000E+00 0. -1.
         11    1    3    3    0    0  0.59085775599E+02 -0.85188823779E+02 -0.30316539931E+03  0.32040212844E+03  0.00000000000E+00 0. -1.
        -12    1    3    3    0    0  0.72519731439E+02 -0.36071381683E+01 -0.27026391908E+03  0.27984765293E+03  0.00000000000E+00 0.  1.
          5    1    4    4  501    0 -0.53557590980E+02  0.10759745766E+03 -0.12429569311E+03  0.17295236387E+03  0.41800000000E+01 0.  1.
         -5    1    4    4    0  501 -0.14017458032E+03  0.69179388334E+02 -0.34883864960E+03  0.38228337211E+03  0.41800000000E+01 0.  1.
</event>
<event>
11    1  0.1002087E-008  0.1406782E+03  0.7561462E-02  0.1106803E+00
         22   -1    0    0    0    0  0.00000000000E+00  0.00000000000E+00  0.13445739754E+04  0.13445739754E+04  0.00000000000E+00 0. -1.
         22   -1    0    0    0    0 -0.00000000000E+00 -0.00000000000E+00 -0.13672415977E+04  0.13672415977E+04  0.00000000000E+00 0. -1.
        -24    2    1    2    0    0 -0.27300582950E+02 -0.59020367137E+02 -0.13078046914E+04  0.13118182455E+04  0.79279712633E+02 0.  0.
         25    2    1    2    0    0 -0.15990761710E+00  0.45756595965E+02  0.22575537621E+02  0.13505737797E+03  0.12504858576E+03 0.  0.
         24    2    1    2    0    0  0.27460490567E+02  0.13263771172E+02  0.12625615315E+04  0.12649399497E+04  0.71284284073E+02 0.  0.
        -11    1    5    5    0    0 -0.83642648727E+00 -0.10713437674E+01 -0.52361037694E+00  0.14565557193E+01  0.00000000000E+00 0.  1.
         12    1    5    5    0    0  0.28296917054E+02  0.14335114939E+02  0.12630851419E+04  0.12634833939E+04  0.00000000000E+00 0. -1.
         11    1    3    3    0    0 -0.32543591747E+02 -0.42337952503E+02 -0.12561369224E+04  0.12572714724E+04  0.00000000000E+00 0. -1.
        -12    1    3    3    0    0  0.52430087973E+01 -0.16682414634E+02 -0.51667769021E+02  0.54546773094E+02  0.00000000000E+00 0.  1.
          5    1    4    4  501    0  0.14541081373E+02  0.42797906704E+02 -0.46065553968E+02  0.64673112868E+02  0.41800000000E+01 0.  1.
         -5    1    4    4    0  501 -0.14700988990E+02  0.29586892613E+01  0.68641091589E+02  0.70384265102E+02  0.41800000000E+01 0.  1.
</event>
<event>
11    1  0.1002087E-008  0.1480476E+03  0.7561462E-02  0.1098891E+00
         22   -1    0    0    0    0  0.00000000000E+00  0.00000000000E+00  0.13570036228E+03  0.13570036228E+03  0.00000000000E+00 0. -1.
         22   -1    0    0    0    0 -0.00000000000E+00 -0.00000000000E+00 -0.17074526351E+04  0.17074526351E+04  0.00000000000E+00 0.  1.
         24    2    1    2    0    0  0.69484678460E+02 -0.34525616142E+02 -0.14727783026E+04  0.14770221906E+04  0.80613176007E+02 0.  0.
         25    2    1    2    0    0 -0.70483466143E+02  0.93877516076E+02 -0.17141910867E+03  0.24251498341E+03  0.12509236322E+03 0.  0.
        -24    2    1    2    0    0  0.99878768324E+00 -0.59351899935E+02  0.72445138495E+02  0.12361582334E+03  0.80677928120E+02 0.  0.
        -11    1    3    3    0    0  0.53201561182E+02 -0.99471728235E+01 -0.13363020699E+04  0.13373976874E+04  0.00000000000E+00 0.  1.
         12    1    3    3    0    0  0.16283117278E+02 -0.24578443318E+02 -0.13647623270E+03  0.13962450314E+03  0.00000000000E+00 0. -1.
         11    1    5    5    0    0 -0.12159531877E+02 -0.76092551202E+02  0.46303203691E+02  0.89899484070E+02  0.00000000000E+00 0. -1.
        -12    1    5    5    0    0  0.13158319560E+02  0.16740651267E+02  0.26141934803E+02  0.33716339270E+02  0.00000000000E+00 0.  1.
          5    1    4    4  501    0 -0.25454193125E+02  0.41261489486E+01  0.15439055917E+02  0.30344322375E+02  0.41800000000E+01 0. -1.
         -5    1    4    4    0  501 -0.45029273019E+02  0.89751367128E+02 -0.18685816459E+03  0.21217066104E+03  0.41800000000E+01 0. -1.
</event>
<event>
11    1  0.1002087E-008  0.1830990E+03  0.7561462E-02  0.1067163E+00
         22   -1    0    0    0    0  0.00000000000E+00  0.00000000000E+00  0.92180292218E+03  0.92180292218E+03  0.00000000000E+00 0.  1.
         22   -1    0    0    0    0 -0.00000000000E+00 -0.00000000000E+00 -0.14816521988E+03  0.14816521988E+03  0.00000000000E+00 0.  1.
         24    2    1    2    0    0  0.42490642892E+02 -0.75986697476E+02 -0.68356361540E+02  0.13669632580E+03  0.80211348311E+02 0.  0.
         25    2    1    2    0    0 -0.13984322253E+03  0.13999227054E+03  0.34868301561E+03  0.41997693523E+03  0.12508724179E+03 0.  0.
        -24    2    1    2    0    0  0.97352579633E+02 -0.64005573063E+02  0.49331104823E+03  0.51329488102E+03  0.80880198014E+02 0.  0.
        -13    1    3    3    0    0  0.21907034060E+02 -0.90492297908E+02 -0.55959582783E+02  0.10862895115E+03  0.00000000000E+00 0.  1.
         14    1    3    3    0    0  0.20583608832E+02  0.14505600432E+02 -0.12396778758E+02  0.28067374655E+02  0.00000000000E+00 0. -1.
         13    1    5    5    0    0 -0.38754754133E+01 -0.22406224018E+02  0.17976370965E+03  0.18119616301E+03  0.00000000000E+00 0. -1.
        -14    1    5    5    0    0  0.10122805505E+03 -0.41599349045E+02  0.31354733859E+03  0.33209871801E+03  0.00000000000E+00 0.  1.
          5    1    4    4  501    0 -0.11367303925E+03  0.31708078023E+02  0.22025590971E+03  0.24991418573E+03  0.41800000000E+01 0.  1.
         -5    1    4    4    0  501 -0.26170183279E+02  0.10828419252E+03  0.12842710589E+03  0.17006274951E+03  0.41800000000E+01 0.  1.
</event>
<event>
11    1  0.1002087E-008  0.1402647E+03  0.7561462E-02  0.1107263E+00
         22   -1    0    0    0    0  0.00000000000E+00  0.00000000000E+00  0.99167033076E+03  0.99167033076E+03  0.00000000000E+00 0. -1.
         22   -1    0    0    0    0 -0.00000000000E+00 -0.00000000000E+00 -0.76389571922E+02  0.76389571922E+02  0.00000000000E+00 0.  1.
         24    2    1    2    0    0 -0.20198659842E+02 -0.59356302638E+02 -0.17005047531E+01  0.10179538481E+03  0.80176381368E+02 0.  0.
         25    2    1    2    0    0 -0.19188762137E+02  0.75057036746E+02  0.22806603021E+03  0.27140978733E+03  0.12508953259E+03 0.  0.
        -24    2    1    2    0    0  0.39387421979E+02 -0.15700734108E+02  0.68891523338E+03  0.69485473055E+03  0.80131240627E+02 0.  0.
        -11    1    3    3    0    0 -0.50598493136E+02 -0.27134081521E+02  0.87266547270E+00  0.57421489293E+02  0.00000000000E+00 0.  1.
         12    1    3    3    0    0  0.30399833294E+02 -0.32222221117E+02 -0.25731702258E+01  0.44373895513E+02  0.00000000000E+00 0. -1.
         11    1    5    5    0    0  0.62053904446E+01 -0.44516112646E+02  0.27997740394E+03  0.28356222928E+03  0.00000000000E+00 0. -1.
        -12    1    5    5    0    0  0.33182031534E+02  0.28815378538E+02  0.40893782943E+03  0.41129250127E+03  0.00000000000E+00 0.  1.
          5    1    4    4  501    0  0.98256890628E+01 -0.10467570544E+01 -0.13038729602E+02  0.16885518515E+02  0.41800000000E+01 0.  1.
         -5    1    4    4    0  501 -0.29014451200E+02  0.76103793800E+02  0.24110475982E+03  0.25452426881E+03  0.41800000000E+01 0.  1.
</event>
<event>
11    1  0.1002087E-008  0.2652664E+03  0.7561462E-02  0.1016067E+00
         22   -1    0    0    0    0  0.00000000000E+00  0.00000000000E+00  0.69673478125E+02  0.69673478125E+02  0.00000000000E+00 0. -1.
         22   -1    0    0    0    0 -0.00000000000E+00 -0.00000000000E+00 -0.15514959854E+04  0.15514959854E+04  0.00000000000E+00 0.  1.
        -24    2    1    2    0    0 -0.17068675500E+03 -0.15247449233E+03 -0.77199589780E+03  0.80938922884E+03  0.82163364082E+02 0.  0.
         25    2    1    2    0    0  0.15535067745E+03  0.18672665757E+03 -0.64933850489E+03  0.70447830124E+03  0.12509398607E+03 0.  0.
         24    2    1    2    0    0  0.15336077552E+02 -0.34252165241E+02 -0.60488104586E+02  0.10730193345E+03  0.80290024454E+02 0.  0.
        -11    1    5    5    0    0 -0.32919602695E+02 -0.17710790548E+02 -0.29457643752E+02  0.47593330613E+02  0.00000000000E+00 0.  1.
         12    1    5    5    0    0  0.48255680247E+02 -0.16541374693E+02 -0.31030460834E+02  0.59708602834E+02  0.00000000000E+00 0. -1.
         13    1    3    3    0    0 -0.11455602440E+03 -0.10422188424E+03 -0.37792743513E+03  0.40842922288E+03  0.00000000000E+00 0. -1.
        -14    1    3    3    0    0 -0.56130730604E+02 -0.48252608087E+02 -0.39406846267E+03  0.40096000596E+03  0.00000000000E+00 0.  1.
          5    1    4    4  501    0  0.77861211717E+02  0.15533711912E+03 -0.53668594305E+03  0.56412876432E+03  0.41800000000E+01 0. -1.
         -5    1    4    4    0  501  0.77489465735E+02  0.31389538455E+02 -0.11265256184E+03  0.14034953692E+03  0.41800000000E+01 0. -1.
</event>
<event>
11    1  0.1002087E-008  0.1279991E+03  0.7561462E-02  0.1121752E+00
         22   -1    0    0    0    0  0.00000000000E+00  0.00000000000E+00  0.44630019883E+03  0.44630019883E+03  0.00000000000E+00 0. -1.
         22   -1    0    0    0    0 -0.00000000000E+00 -0.00000000000E+00 -0.29326532254E+03  0.29326532254E+03  0.00000000000E+00 0.  1.
         24    2    1    2    0    0 -0.21224115043E+01 -0.22441110658E+02 -0.14922238087E+03  0.17067409804E+03  0.79713365965E+02 0.  0.
         25    2    1    2    0    0 -0.20433575582E+02  0.65150922704E+01 -0.97299587353E+02  0.15992660479E+03  0.12509728926E+03 0.  0.
        -24    2    1    2    0    0  0.22555987086E+02  0.15926018387E+02  0.39955684451E+03  0.40896481853E+03  0.82729318785E+02 0.  0.
        -13    1    3    3    0    0 -0.17179209710E+02  0.22757492208E+02 -0.91451495900E+02  0.95793553020E+02  0.00000000000E+00 0.  1.
         14    1    3    3    0    0  0.15056798205E+02 -0.45198602866E+02 -0.57770884966E+02  0.74880545023E+02  0.00000000000E+00 0. -1.
         11    1    5    5    0    0  0.35939361847E+02 -0.20732913314E+02  0.28355268409E+03  0.28657218302E+03  0.00000000000E+00 0. -1.
        -12    1    5    5    0    0 -0.13383374761E+02  0.36658931701E+02  0.11600416042E+03  0.12239263551E+03  0.00000000000E+00 0.  1.
          5    1    4    4  501    0  0.40653675590E+02  0.13533386396E+02  0.19540373458E+01  0.43094832037E+02  0.41800000000E+01 0. -1.
         -5    1    4    4    0  501 -0.61087251172E+02 -0.70182941257E+01 -0.99253624699E+02  0.11683177275E+03  0.41800000000E+01 0. -1.
</event>
<event>
11    1  0.1002087E-008  0.2025003E+03  0.7561462E-02  0.1052769E+00
         22   -1    0    0    0    0  0.00000000000E+00  0.00000000000E+00  0.40614734701E+03  0.40614734701E+03  0.00000000000E+00 0.  1.
         22   -1    0    0    0    0 -0.00000000000E+00 -0.00000000000E+00 -0.89877113855E+03  0.89877113855E+03  0.00000000000E+00 0. -1.
         24    2    1    2    0    0  0.12293284118E+03  0.10160664038E+03 -0.76579041505E+03  0.78647419410E+03  0.81671937549E+02 0.  0.
         25    2    1    2    0    0 -0.12604698809E+03 -0.94250324464E+02 -0.31038273270E+02  0.20342497277E+03  0.12508948105E+03 0.  0.
        -24    2    1    2    0    0  0.31141469124E+01 -0.73563159177E+01  0.30420489678E+03  0.31501931868E+03  0.81441627084E+02 0.  0.
        -13    1    3    3    0    0  0.14187431469E+02  0.25637338610E+02 -0.45838195855E+02  0.54403093128E+02  0.00000000000E+00 0.  1.
         14    1    3    3    0    0  0.10874540971E+03  0.75969301772E+02 -0.71995221920E+03  0.73207110097E+03  0.00000000000E+00 0. -1.
         11    1    5    5    0    0 -0.21868708377E+02 -0.12012384686E+02  0.27430159987E+02  0.37080338036E+02  0.00000000000E+00 0. -1.
        -12    1    5    5    0    0  0.24982855290E+02  0.46560687684E+01  0.27677473680E+03  0.27793898065E+03  0.00000000000E+00 0.  1.
          5    1    4    4  501    0 -0.13875558350E+03 -0.82334484281E+02 -0.57614677437E+02  0.17137386822E+03  0.41800000000E+01 0. -1.
         -5    1    4    4    0  501  0.12708595403E+02 -0.11915840183E+02  0.26576404166E+02  0.32051104549E+02  0.41800000000E+01 0. -1.
</event>
<event>
11    1  0.1002087E-008  0.1509717E+03  0.7561462E-02  0.1095890E+00
         22   -1    0    0    0    0  0.00000000000E+00  0.00000000000E+00  0.10776413673E+04  0.10776413673E+04  0.00000000000E+00 0.  1.
         22   -1    0    0    0    0 -0.00000000000E+00 -0.00000000000E+00 -0.87407779510E+02  0.87407779510E+02  0.00000000000E+00 0. -1.
         24    2    1    2    0    0  0.92429494503E+02  0.25672251508E+02 -0.15659349281E+01  0.11659835770E+03  0.66260462672E+02 0.  0.
         25    2    1    2    0    0 -0.37914860402E+02 -0.39610845231E+02  0.15756492128E+03  0.20852053026E+03  0.12509017316E+03 0.  0.
        -24    2    1    2    0    0 -0.54514634101E+02  0.13938593723E+02  0.83423460143E+03  0.83993025884E+03  0.79808143548E+02 0.  0.
        -11    1    3    3    0    0  0.46600297302E+02 -0.16679940966E+02  0.15569050828E+02  0.51886447970E+02  0.00000000000E+00 0.  1.
         12    1    3    3    0    0  0.45829197201E+02  0.42352192474E+02 -0.17134985757E+02  0.64711909725E+02  0.00000000000E+00 0. -1.
         13    1    5    5    0    0  0.76623358174E+01 -0.21891579442E+02  0.13038992121E+03  0.13243671770E+03  0.00000000000E+00 0. -1.
        -14    1    5    5    0    0 -0.62176969918E+02  0.35830173165E+02  0.70384468021E+03  0.70749354115E+03  0.00000000000E+00 0.  1.
          5    1    4    4  501    0 -0.45474091281E+02 -0.23137388083E+02  0.17541985508E+03  0.18273705060E+03  0.41800000000E+01 0. -1.
         -5    1    4    4    0  501  0.75592308787E+01 -0.16473457148E+02 -0.17854933806E+02  0.25783479655E+02  0.41800000000E+01 0. -1.
</event>
<event>
11    1  0.1002087E-008  0.1561867E+03  0.7561462E-02  0.1090720E+00
         22   -1    0    0    0    0  0.00000000000E+00  0.00000000000E+00  0.13246078344E+03  0.13246078344E+03  0.00000000000E+00 0.  1.
         22   -1    0    0    0    0 -0.00000000000E+00 -0.00000000000E+00 -0.30931564517E+04  0.30931564517E+04  0.00000000000E+00 0. -1.
        -24    2    1    2    0    0  0.30370742655E+02  0.48132664418E+02 -0.27205310358E+04  0.27223127470E+04  0.80364424349E+02 0.  0.
         25    2    1    2    0    0 -0.11220643435E+03 -0.83280279550E+02 -0.31064078014E+03  0.36286438531E+03  0.12508788499E+03 0.  0.
         24    2    1    2    0    0  0.81835691692E+02  0.35147615132E+02  0.70476147623E+02  0.14044010281E+03  0.82608109836E+02 0.  0.
        -11    1    5    5    0    0  0.92515665072E+02  0.47766384826E+02  0.54809099531E+02  0.11766398427E+03  0.00000000000E+00 0.  1.
         12    1    5    5    0    0 -0.10679973380E+02 -0.12618769694E+02  0.15667048092E+02  0.22776118544E+02  0.00000000000E+00 0. -1.
         13    1    3    3    0    0  0.13737407804E+02  0.59118176855E+02 -0.25326666742E+04  0.25333938024E+04  0.00000000000E+00 0. -1.
        -14    1    3    3    0    0  0.16633334851E+02 -0.10985512438E+02 -0.18786436158E+03  0.18891894469E+03  0.00000000000E+00 0.  1.
          5    1    4    4  501    0 -0.13922552450E+03 -0.70042898173E+02 -0.27418358544E+03  0.31541062947E+03  0.41800000000E+01 0.  1.
         -5    1    4    4    0  501  0.27019090153E+02 -0.13237381377E+02 -0.36457194693E+02  0.47453755840E+02  0.41800000000E+01 0.  1.
</event>
<event>
11    1  0.1002087E-008  0.1294549E+03  0.7561462E-02  0.1119940E+00
         22   -1    0    0    0    0  0.00000000000E+00  0.00000000000E+00  0.67862946565E+03  0.67862946565E+03  0.00000000000E+00 0.  1.
         22   -1    0    0    0    0 -0.00000000000E+00 -0.00000000000E+00 -0.61208791615E+03  0.61208791615E+03  0.00000000000E+00 0. -1.
        -24    2    1    2    0    0  0.12234152319E+02  0.36497300949E+02 -0.38106883306E+03  0.39272885268E+03  0.86837599767E+02 0.  0.
         25    2    1    2    0    0 -0.35397650993E+02 -0.14630457050E+01 -0.20301712839E+03  0.24107622562E+03  0.12508660178E+03 0.  0.
         24    2    1    2    0    0  0.23163498674E+02 -0.35034255244E+02  0.65062751094E+03  0.65691230350E+03  0.80334735887E+02 0.  0.
        -13    1    5    5    0    0  0.40386837723E+02  0.75870903355E+00  0.17376345124E+03  0.17839677488E+03  0.00000000000E+00 0.  1.
         14    1    5    5    0    0 -0.17223339049E+02 -0.35792964277E+02  0.47686405970E+03  0.47851552862E+03  0.00000000000E+00 0. -1.
         11    1    3    3    0    0 -0.22584315094E+02  0.25379546424E+02 -0.31819129352E+03  0.31999979990E+03  0.00000000000E+00 0. -1.
        -12    1    3    3    0    0  0.34818467413E+02  0.11117754524E+02 -0.62877539543E+02  0.72729052776E+02  0.00000000000E+00 0.  1.
          5    1    4    4  501    0 -0.83403035316E+01 -0.13077000218E+02 -0.20992988589E+03  0.21054357740E+03  0.41800000000E+01 0. -1.
         -5    1    4    4    0  501 -0.27057347461E+02  0.11613954513E+02  0.69127575003E+01  0.30532648220E+02  0.41800000000E+01 0. -1.
</event>
<event>
11    1  0.1002087E-008  0.1488135E+03  0.7561462E-02  0.1098097E+00
         22   -1    0    0    0    0  0.00000000000E+00  0.00000000000E+00  0.36647476907E+03  0.36647476907E+03  0.00000000000E+00 0. -1.
         22   -1    0    0    0    0 -0.00000000000E+00 -0.00000000000E+00 -0.14900395511E+03  0.14900395511E+03  0.00000000000E+00 0.  1.
        -24    2    1    2    0    0 -0.59170007822E+02  0.49260216890E+02 -0.52722157122E+02  0.12607677647E+03  0.84782480025E+02 0.  0.
         25    2    1    2    0    0  0.41159999148E+02 -0.93161747614E+02  0.87128358028E+02  0.18333531528E+03  0.12508888962E+03 0.  0.
         24    2    1    2    0    0  0.18010008674E+02  0.43901530724E+02  0.18306461306E+03  0.20606663243E+03  0.81848027673E+02 0.  0.
        -11    1    5    5    0    0 -0.83858602382E+01 -0.92040613642E+01 -0.11855160636E+01  0.12507711456E+02  0.00000000000E+00 0.  1.
         12    1    5    5    0    0  0.26395868912E+02  0.53105592088E+02  0.18425012912E+03  0.19355892097E+03  0.00000000000E+00 0. -1.
         13    1    3    3    0    0 -0.61244887920E+02  0.26716622045E+02  0.20085159055E+01  0.66848697265E+02  0.00000000000E+00 0. -1.
        -14    1    3    3    0    0  0.20748800984E+01  0.22543594845E+02 -0.54730673028E+02  0.59228079203E+02  0.00000000000E+00 0.  1.
          5    1    4    4  501    0 -0.16983181598E+02 -0.93638116590E+02  0.25731222474E+02  0.98671645095E+02  0.41800000000E+01 0.  1.
         -5    1    4    4    0  501  0.58143180746E+02  0.47636897550E+00  0.61397135554E+02  0.84663670183E+02  0.41800000000E+01 0.  1.
</event>
<event>
11    1  0.1002087E-008  0.1909389E+03  0.7561462E-02  0.1061123E+00
         22   -1    0    0    0    0  0.00000000000E+00  0.00000000000E+00  0.37945774236E+04  0.37945774236E+04  0.00000000000E+00 0. -1.
         22   -1    0    0    0    0 -0.00000000000E+00 -0.00000000000E+00 -0.15045402267E+03  0.15045402267E+03  0.00000000000E+00 0. -1.
        -24    2    1    2    0    0 -0.10804449141E+02  0.10931614258E+02 -0.12409036153E+03  0.14820649928E+03  0.79564516548E+02 0.  0.
         25    2    1    2    0    0  0.21214175615E+01  0.13486078372E+03  0.68862670862E+03  0.71277372735E+03  0.12509081177E+03 0.  0.
         24    2    1    2    0    0  0.86830315799E+01 -0.14579239797E+03  0.30795870538E+04  0.30840512196E+04  0.78642767217E+02 0.  0.
        -13    1    5    5    0    0  0.15417919048E+01 -0.72873015316E+01  0.20321322425E+02  0.21643429280E+02  0.00000000000E+00 0.  1.
         14    1    5    5    0    0  0.71412396751E+01 -0.13850509644E+03  0.30592657314E+04  0.30624077903E+04  0.00000000000E+00 0. -1.
         13    1    3    3    0    0 -0.18091971893E+02  0.94377214650E+01 -0.13415110517E+03  0.13569417471E+03  0.00000000000E+00 0. -1.
        -14    1    3    3    0    0  0.72875227511E+01  0.14938927932E+01  0.10060743639E+02  0.12512324568E+02  0.00000000000E+00 0.  1.
          5    1    4    4  501    0 -0.35949389279E+01 -0.18602745795E+02  0.25266805642E+02  0.31857018133E+02  0.41800000000E+01 0. -1.
         -5    1    4    4    0  501  0.57163564893E+01  0.15346352951E+03  0.66335990297E+03  0.68091670922E+03  0.41800000000E+01 0. -1.
</event>
<event>
11    1  0.1002087E-008  0.1509259E+03  0.7561462E-02  0.1095936E+00
         22   -1    0    0    0    0  0.00000000000E+00  0.00000000000E+00  0.42328144294E+03  0.42328144294E+03  0.00000000000E+00 0.  1.
         22   -1    0    0    0    0 -0.00000000000E+00 -0.00000000000E+00 -0.26534300097E+03  0.26534300097E+03  0.00000000000E+00 0. -1.
         24    2    1    2    0    0  0.27607497127E+02 -0.79010389359E+02 -0.19821367217E+03  0.22943515578E+03  0.79668157704E+02 0.  0.
         25    2    1    2    0    0  0.19055606420E+02  0.10260984531E+03  0.11514087519E+03  0.19949132987E+03  0.12508985996E+03 0.  0.
        -24    2    1    2    0    0 -0.46663103546E+02 -0.23599455949E+02  0.24101123895E+03  0.25969795826E+03  0.81377101624E+02 0.  0.
        -13    1    3    3    0    0  0.42158180035E+02 -0.18746772551E+02 -0.46325555117E+02  0.65382036385E+02  0.00000000000E+00 0.  1.
         14    1    3    3    0    0 -0.14550682909E+02 -0.60263616808E+02 -0.15188811705E+03  0.16405311940E+03  0.00000000000E+00 0. -1.
         11    1    5    5    0    0  0.11068146452E+02  0.18918398710E+02  0.32468195525E+02  0.39173886663E+02  0.00000000000E+00 0. -1.
        -12    1    5    5    0    0 -0.57731249998E+02 -0.42517854659E+02  0.20854304343E+03  0.22052407159E+03  0.00000000000E+00 0.  1.
          5    1    4    4  501    0  0.41680485236E+02  0.10114815212E+03  0.13158510333E+03  0.17117337219E+03  0.41800000000E+01 0. -1.
         -5    1    4    4    0  501 -0.22624878816E+02  0.14616931833E+01 -0.16444228137E+02  0.28317957685E+02  0.41800000000E+01 0. -1.
</event>
<event>
11    1  0.1002087E-008  0.1454646E+03  0.7561462E-02  0.1101605E+00
         22   -1    0    0    0    0  0.00000000000E+00  0.00000000000E+00  0.21483626892E+03  0.21483626892E+03  0.00000000000E+00 0.  1.
         22   -1    0    0    0    0 -0.00000000000E+00 -0.00000000000E+00 -0.43788917717E+03  0.43788917717E+03  0.00000000000E+00 0.  1.
        -24    2    1    2    0    0  0.35621983765E+02 -0.53574958007E+02 -0.19707452800E+03  0.22241105010E+03  0.80554973578E+02 0.  0.
         25    2    1    2    0    0 -0.90693064847E+02  0.53106229198E+02 -0.18309386381E+03  0.24538997379E+03  0.12508945872E+03 0.  0.
         24    2    1    2    0    0  0.55071081081E+02  0.46872880978E+00  0.15711548356E+03  0.18492442219E+03  0.80490515395E+02 0.  0.
        -11    1    5    5    0    0  0.41047657847E+02 -0.37688821573E+02  0.10454091075E+03  0.11846585798E+03  0.00000000000E+00 0.  1.
         12    1    5    5    0    0  0.14023423235E+02  0.38157550383E+02  0.52574572813E+02  0.66458564210E+02  0.00000000000E+00 0. -1.
         13    1    3    3    0    0 -0.21397618566E+02 -0.27736620871E-01 -0.69943601313E+02  0.73143463237E+02  0.00000000000E+00 0. -1.
        -14    1    3    3    0    0  0.57019602332E+02 -0.53547221387E+02 -0.12713092669E+03  0.14926758687E+03  0.00000000000E+00 0.  1.
          5    1    4    4  501    0 -0.80568051876E+01  0.52530482683E+02 -0.14463230974E+03  0.15414389751E+03  0.41800000000E+01 0. -1.
         -5    1    4    4    0  501 -0.82636259659E+02  0.57574651445E+00 -0.38461554073E+02  0.91246076278E+02  0.41800000000E+01 0. -1.
</event>
<event>
11    1  0.1002087E-008  0.1525861E+03  0.7561462E-02  0.1094265E+00
         22   -1    0    0    0    0  0.00000000000E+00  0.00000000000E+00  0.79028697129E+03  0.79028697129E+03  0.00000000000E+00 0. -1.
         22   -1    0    0    0    0 -0.00000000000E+00 -0.00000000000E+00 -0.16275687899E+03  0.16275687899E+03  0.00000000000E+00 0.  1.
         24    2    1    2    0    0  0.77323137982E+02 -0.36782384798E+02 -0.96230364127E+02  0.15189931059E+03  0.80506559221E+02 0.  0.
         25    2    1    2    0    0 -0.55850878756E+02  0.11290627427E+03  0.20792763231E+03  0.27340121590E+03  0.12508867715E+03 0.  0.
        -24    2    1    2    0    0 -0.21472259226E+02 -0.76123889472E+02  0.51583282412E+03  0.52774332380E+03  0.78572316422E+02 0.  0.
        -11    1    3    3    0    0  0.79213368428E+02 -0.20642401510E+02 -0.35840232987E+02  0.89361002559E+02  0.00000000000E+00 0.  1.
         12    1    3    3    0    0 -0.18902304465E+01 -0.16139983288E+02 -0.60390131140E+02  0.62538308026E+02  0.00000000000E+00 0. -1.
         13    1    5    5    0    0 -0.17794987133E+02 -0.90970928114E+02  0.47855039201E+03  0.48744522669E+03  0.00000000000E+00 0. -1.
        -14    1    5    5    0    0 -0.36772720922E+01  0.14847038641E+02  0.37282432105E+02  0.40298097103E+02  0.00000000000E+00 0.  1.
          5    1    4    4  501    0 -0.15601129667E+02  0.11894779506E+03  0.94355491961E+02  0.15268400197E+03  0.41800000000E+01 0. -1.
         -5    1    4    4    0  501 -0.40249749089E+02 -0.60415207862E+01  0.11357214035E+03  0.12071721393E+03  0.41800000000E+01 0. -1.
</event>
<event>
11    1  0.1002087E-008  0.1486869E+03  0.7561462E-02  0.1098228E+00
         22   -1    0    0    0    0  0.00000000000E+00  0.00000000000E+00  0.16877268579E+04  0.16877268579E+04  0.00000000000E+00 0. -1.
         22   -1    0    0    0    0 -0.00000000000E+00 -0.00000000000E+00 -0.29566063986E+02  0.29566063986E+02  0.00000000000E+00 0.  1.
        -24    2    1    2    0    0  0.32201586231E+02 -0.33251778683E+02  0.21021351677E+03  0.23007890400E+03  0.81264730932E+02 0.  0.
         25    2    1    2    0    0 -0.10731385528E+03  0.19726428895E+02  0.39592717013E+03  0.42931197412E+03  0.12508018048E+03 0.  0.
         24    2    1    2    0    0  0.75112269051E+02  0.13525349787E+02  0.10520201070E+04  0.10579020438E+04  0.81151959780E+02 0.  0.
        -11    1    5    5    0    0  0.22526839811E+02  0.17164566803E+02  0.88066344881E+02  0.92508172429E+02  0.00000000000E+00 0.  1.
         12    1    5    5    0    0  0.52585429240E+02 -0.36392170157E+01  0.96395376216E+03  0.96539387135E+03  0.00000000000E+00 0. -1.
         13    1    3    3    0    0 -0.23735945112E+02 -0.28581366866E+02  0.91874033840E+02  0.99101602996E+02  0.00000000000E+00 0. -1.
        -14    1    3    3    0    0  0.55937531342E+02 -0.46704118162E+01  0.11833948293E+03  0.13097730101E+03  0.00000000000E+00 0.  1.
          5    1    4    4  501    0 -0.65358138765E+02 -0.48878619584E+02  0.24464660346E+03  0.25793456290E+03  0.41800000000E+01 0.  1.
         -5    1    4    4    0  501 -0.41955716517E+02  0.68605048479E+02  0.15128056667E+03  0.17137741122E+03  0.41800000000E+01 0.  1.
</event>
<event>
11    1  0.1002087E-008  0.1370612E+03  0.7561462E-02  0.1110885E+00
         22   -1    0    0    0    0  0.00000000000E+00  0.00000000000E+00  0.19439521458E+04  0.19439521458E+04  0.00000000000E+00 0. -1.
         22   -1    0    0    0    0 -0.00000000000E+00 -0.00000000000E+00 -0.75226653783E+02  0.75226653783E+02  0.00000000000E+00 0.  1.
        -24    2    1    2    0    0  0.17913546175E+02  0.47892553568E+02 -0.20626102281E+02  0.98019798002E+02  0.81042290695E+02 0.  0.
         25    2    1    2    0    0  0.33857920630E+02 -0.17843731573E+02  0.28452363267E+03  0.31315696672E+03  0.12509528652E+03 0.  0.
         24    2    1    2    0    0 -0.51771466805E+02 -0.30048821995E+02  0.16048279617E+04  0.16080020349E+04  0.81329829862E+02 0.  0.
        -11    1    5    5    0    0  0.15756849964E+02  0.11879013713E+02  0.21526599044E+03  0.21616853594E+03  0.00000000000E+00 0.  1.
         12    1    5    5    0    0 -0.67528316770E+02 -0.41927835708E+02  0.13895619712E+04  0.13918334990E+04  0.00000000000E+00 0. -1.
         11    1    3    3    0    0  0.12297955366E+02  0.16291705798E+02  0.31067149062E+02  0.37172935516E+02  0.00000000000E+00 0. -1.
        -12    1    3    3    0    0  0.56155908097E+01  0.31600847770E+02 -0.51693251344E+02  0.60846862486E+02  0.00000000000E+00 0.  1.
          5    1    4    4  501    0  0.13011060482E+01  0.29015110446E+02  0.23692117864E+03  0.23873141143E+03  0.41800000000E+01 0. -1.
         -5    1    4    4    0  501  0.32556814582E+02 -0.46858842019E+02  0.47602454025E+02  0.74425555291E+02  0.41800000000E+01 0. -1.
</event>
<event>
11    1  0.1002087E-008  0.1843317E+03  0.7561462E-02  0.1066192E+00
         22   -1    0    0    0    0  0.00000000000E+00  0.00000000000E+00  0.29540490710E+03  0.29540490710E+03  0.00000000000E+00 0. -1.
         22   -1    0    0    0    0 -0.00000000000E+00 -0.00000000000E+00 -0.69765995234E+03  0.69765995234E+03  0.00000000000E+00 0. -1.
         24    2    1    2    0    0  0.12777055143E+03 -0.17934602786E+02 -0.54227738340E+03  0.56313937303E+03  0.80088882635E+02 0.  0.
         25    2    1    2    0    0 -0.20251718610E+03  0.47696954164E+02 -0.81617102382E+01  0.24289244961E+03  0.12506765553E+03 0.  0.
        -24    2    1    2    0    0  0.74746634671E+02 -0.29762351378E+02  0.14818404839E+03  0.18703303680E+03  0.80931994310E+02 0.  0.
        -11    1    3    3    0    0  0.16699928286E+02 -0.18968058604E+02 -0.23587558278E+03  0.23722555808E+03  0.00000000000E+00 0.  1.
         12    1    3    3    0    0  0.11107062315E+03  0.10334558180E+01 -0.30640180062E+03  0.32591381495E+03  0.00000000000E+00 0. -1.
         13    1    5    5    0    0  0.48799477838E+02 -0.47498892428E+01  0.14230762274E+03  0.15051714179E+03  0.00000000000E+00 0. -1.
        -14    1    5    5    0    0  0.25947156833E+02 -0.25012462135E+02  0.58764256579E+01  0.36515895009E+02  0.00000000000E+00 0.  1.
          5    1    4    4  501    0 -0.20122615566E+03  0.52440130084E+02  0.24657012488E+02  0.20944539535E+03  0.41800000000E+01 0.  1.
         -5    1    4    4    0  501 -0.12910304386E+01 -0.47431759201E+01 -0.32818722726E+02  0.33447054262E+02  0.41800000000E+01 0.  1.
</event>
<event>
11    1  0.1002087E-008  0.1877326E+03  0.7561462E-02  0.1063554E+00
         22   -1    0    0    0    0  0.00000000000E+00  0.00000000000E+00  0.79768349613E+02  0.79768349613E+02  0.00000000000E+00 0.  1.
         22   -1    0    0    0    0 -0.00000000000E+00 -0.00000000000E+00 -0.14256095570E+04  0.14256095570E+04  0.00000000000E+00 0.  1.
         24    2    1    2    0    0  0.18219732725E+02  0.19774260906E+02 -0.28321207189E+03  0.29599672867E+03  0.81743535897E+02 0.  0.
         25    2    1    2    0    0 -0.15477133310E+03 -0.40609151220E+02 -0.10261758933E+04  0.10460821298E+04  0.12509032534E+03 0.  0.
        -24    2    1    2    0    0  0.13655160037E+03  0.20834890314E+02 -0.36453242126E+02  0.16329904812E+03  0.79103148091E+02 0.  0.
        -13    1    3    3    0    0  0.32706875516E+01  0.26929234519E+02 -0.27695726515E+03  0.27828260418E+03  0.00000000000E+00 0.  1.
         14    1    3    3    0    0  0.14949045174E+02 -0.71549736131E+01 -0.62548067425E+01  0.17714124489E+02  0.00000000000E+00 0. -1.
         11    1    5    5    0    0  0.22821596672E+02  0.46588966180E+01 -0.42285770270E+02  0.48276463827E+02  0.00000000000E+00 0. -1.
        -12    1    5    5    0    0  0.11373000370E+03  0.16175993696E+02  0.58325281432E+01  0.11502258430E+03  0.00000000000E+00 0.  1.
          5    1    4    4  501    0 -0.39951078778E+01 -0.82036476218E+01 -0.18527181184E+01  0.10206159203E+02  0.41800000000E+01 0.  1.
         -5    1    4    4    0  501 -0.15077622522E+03 -0.32405503598E+02 -0.10243231752E+04  0.10358759706E+04  0.41800000000E+01 0.  1.
</event>
<event>
11    1  0.1002087E-008  0.1476533E+03  0.7561462E-02  0.1099301E+00
         22   -1    0    0    0    0  0.00000000000E+00  0.00000000000E+00  0.31504003254E+04  0.31504003254E+04  0.00000000000E+00 0. -1.
         22   -1    0    0    0    0 -0.00000000000E+00 -0.00000000000E+00 -0.41206345754E+02  0.41206345754E+02  0.00000000000E+00 0.  1.
         24    2    1    2    0    0  0.52475139780E+02 -0.65044358003E+02  0.89754064702E+02  0.15145376135E+03  0.88870922655E+02 0.  0.
         25    2    1    2    0    0  0.25909408038E+02  0.80747120975E+02  0.61838663957E+03  0.63658568738E+03  0.12509159209E+03 0.  0.
        -24    2    1    2    0    0 -0.78384547818E+02 -0.15702762971E+02  0.24010532754E+04  0.24035672224E+04  0.75417818971E+02 0.  0.
        -13    1    3    3    0    0  0.75214059891E+02 -0.41370361610E+02  0.79667427727E+02  0.11711345211E+03  0.00000000000E+00 0.  1.
         14    1    3    3    0    0 -0.22738920111E+02 -0.23673996394E+02  0.10086636975E+02  0.34340309238E+02  0.00000000000E+00 0. -1.
         11    1    5    5    0    0 -0.59069969809E+02 -0.36858470416E+02  0.11015570000E+04  0.11037552412E+04  0.00000000000E+00 0. -1.
        -12    1    5    5    0    0 -0.19314578009E+02  0.21155707445E+02  0.12994962754E+04  0.12998119812E+04  0.00000000000E+00 0.  1.
          5    1    4    4  501    0  0.67560427967E+02  0.51835239524E+02  0.50716325271E+03  0.51427943842E+03  0.41800000000E+01 0. -1.
         -5    1    4    4    0  501 -0.41651019930E+02  0.28911881451E+02  0.11122338686E+03  0.12230624896E+03  0.41800000000E+01 0. -1.
</event>
<event>
11    1  0.1002087E-008  0.1331978E+03  0.7561462E-02  0.1115401E+00
         22   -1    0    0    0    0  0.00000000000E+00  0.00000000000E+00  0.64587378384E+03  0.64587378384E+03  0.00000000000E+00 0.  1.
         22   -1    0    0    0    0 -0.00000000000E+00 -0.00000000000E+00 -0.15262340506E+04  0.15262340506E+04  0.00000000000E+00 0. -1.
        -24    2    1    2    0    0  0.34490865790E+02 -0.29873918875E+02 -0.14956749545E+04  0.14985933548E+04  0.81586781389E+02 0.  0.
         25    2    1    2    0    0 -0.64887988554E+02  0.24036681284E+02  0.18560062299E+03  0.23427179600E+03  0.12508984787E+03 0.  0.
         24    2    1    2    0    0  0.30397122763E+02  0.58372375910E+01  0.42971406472E+03  0.43924268359E+03  0.85568097195E+02 0.  0.
        -13    1    5    5    0    0  0.12677672517E+02 -0.39749162041E+02  0.17841107188E+03  0.18322453393E+03  0.00000000000E+00 0.  1.
         14    1    5    5    0    0  0.17719450246E+02  0.45586399632E+02  0.25130299284E+03  0.25601814966E+03  0.00000000000E+00 0. -1.
         13    1    3    3    0    0  0.60163725173E+02 -0.26970340729E+02 -0.11916410669E+04  0.11934636590E+04  0.00000000000E+00 0. -1.
        -14    1    3    3    0    0 -0.25672859383E+02 -0.29035781459E+01 -0.30403388758E+03  0.30512969583E+03  0.00000000000E+00 0.  1.
          5    1    4    4  501    0  0.24565642188E+02 -0.27512978354E+02  0.31224769300E+02  0.48506632246E+02  0.41800000000E+01 0. -1.
         -5    1    4    4    0  501 -0.89453630741E+02  0.51549659638E+02  0.15437585369E+03  0.18576516376E+03  0.41800000000E+01 0. -1.
</event>
<event>
11    1  0.1002087E-008  0.1323071E+03  0.7561462E-02  0.1116466E+00
         22   -1    0    0    0    0  0.00000000000E+00  0.00000000000E+00  0.27128618411E+03  0.27128618411E+03  0.00000000000E+00 0.  1.
         22   -1    0    0    0    0 -0.00000000000E+00 -0.00000000000E+00 -0.10689199222E+04  0.10689199222E+04  0.00000000000E+00 0. -1.
        -24    2    1    2    0    0 -0.39878532987E+02  0.26640012137E+02 -0.86687170120E+03  0.87205765382E+03  0.81963513919E+02 0.  0.
         25    2    1    2    0    0 -0.95742305640E+00 -0.96503178980E+01 -0.17029103520E+03  0.21151576794E+03  0.12508332472E+03 0.  0.
         24    2    1    2    0    0  0.40835956043E+02 -0.16989694239E+02  0.23952899831E+03  0.25663268453E+03  0.80808221876E+02 0.  0.
        -11    1    5    5    0    0  0.46952629509E+02 -0.39295185578E+02  0.21206700153E+03  0.22072850782E+03  0.00000000000E+00 0.  1.
         12    1    5    5    0    0 -0.61166734659E+01  0.22305491339E+02  0.27461996782E+02  0.35904176713E+02  0.00000000000E+00 0. -1.
         13    1    3    3    0    0  0.69585646394E+00 -0.27176860250E+02 -0.21536956545E+03  0.21707859331E+03  0.00000000000E+00 0. -1.
        -14    1    3    3    0    0 -0.40574389451E+02  0.53816872387E+02 -0.65150213575E+03  0.65497906052E+03  0.00000000000E+00 0.  1.
          5    1    4    4  501    0 -0.60621466126E+02  0.63030861726E+01 -0.10547117737E+03  0.12188655671E+03  0.41800000000E+01 0. -1.
         -5    1    4    4    0  501  0.59664043069E+02 -0.15953404071E+02 -0.64819857827E+02  0.89629211229E+02  0.41800000000E+01 0. -1.
</event>
<event>
11    1  0.1002087E-008  0.1400648E+03  0.7561462E-02  0.1107486E+00
         22   -1    0    0    0    0  0.00000000000E+00  0.00000000000E+00  0.10134285938E+04  0.10134285938E+04  0.00000000000E+00 0. -1.
         22   -1    0    0    0    0 -0.00000000000E+00 -0.00000000000E+00 -0.36249252379E+03  0.36249252379E+03  0.00000000000E+00 0. -1.
        -24    2    1    2    0    0  0.13970060374E+02 -0.66178440729E+02 -0.28911155460E+03  0.30792940169E+03  0.81610519035E+02 0.  0.
         25    2    1    2    0    0 -0.34920545545E+02  0.20879939546E+02  0.86453412344E+01  0.13182539881E+03  0.12509107669E+03 0.  0.
         24    2    1    2    0    0  0.20950485170E+02  0.45298501183E+02  0.93140228336E+03  0.93616631708E+03  0.80039257507E+02 0.  0.
        -11    1    5    5    0    0 -0.27349833973E+02 -0.65239254787E+00  0.30619686076E+03  0.30741658474E+03  0.00000000000E+00 0.  1.
         12    1    5    5    0    0  0.48300319143E+02  0.45950893731E+02  0.62520542260E+03  0.62874973233E+03  0.00000000000E+00 0. -1.
         13    1    3    3    0    0  0.39365560849E+02 -0.69403759209E+02 -0.23216092708E+03  0.24548976605E+03  0.00000000000E+00 0. -1.
        -14    1    3    3    0    0 -0.25395500474E+02  0.32253184804E+01 -0.56950627522E+02  0.62439635639E+02  0.00000000000E+00 0.  1.
          5    1    4    4  501    0 -0.41659295508E+02 -0.15548278358E+02  0.55953604985E+02  0.71592766206E+02  0.41800000000E+01 0.  1.
         -5    1    4    4    0  501  0.67387499632E+01  0.36428217905E+02 -0.47308263751E+02  0.60232632600E+02  0.41800000000E+01 0.  1.
</event>
<event>
11    1  0.1002087E-008  0.1336331E+03  0.7561462E-02  0.1114884E+00
         22   -1    0    0    0    0  0.00000000000E+00  0.00000000000E+00  0.14243993690E+03  0.14243993690E+03  0.00000000000E+00 0. -1.
         22   -1    0    0    0    0 -0.00000000000E+00 -0.00000000000E+00 -0.89105612566E+03  0.89105612566E+03  0.00000000000E+00 0. -1.
        -24    2    1    2    0    0  0.12575889144E+02 -0.46524116508E+02 -0.77502250219E+03  0.78084710059E+03  0.82095488206E+02 0.  0.
         25    2    1    2    0    0  0.28608283409E+02  0.34983688623E+02 -0.44916129412E+02  0.14039287319E+03  0.12510158996E+03 0.  0.
         24    2    1    2    0    0 -0.41184172554E+02  0.11540427884E+02  0.71322442845E+02  0.11225608878E+03  0.75400404975E+02 0.  0.
        -11    1    5    5    0    0 -0.13231669114E+02 -0.31769622711E+02  0.21573891454E+02  0.40617961386E+02  0.00000000000E+00 0.  1.
         12    1    5    5    0    0 -0.27952503440E+02  0.43310050595E+02  0.49748551391E+02  0.71638127395E+02  0.00000000000E+00 0. -1.
         11    1    3    3    0    0 -0.17451644941E+02  0.14910140762E+01 -0.48672769080E+03  0.48704273737E+03  0.00000000000E+00 0. -1.
        -12    1    3    3    0    0  0.30027534085E+02 -0.48015130584E+02 -0.28829481139E+03  0.29380436321E+03  0.00000000000E+00 0.  1.
          5    1    4    4  501    0  0.38955977509E+02  0.74223499609E+02 -0.62132233148E+01  0.84159209964E+02  0.41800000000E+01 0. -1.
         -5    1    4    4    0  501 -0.10347694099E+02 -0.39239810986E+02 -0.38702906097E+02  0.56233663225E+02  0.41800000000E+01 0. -1.
</event>
<event>
11    1  0.1002087E-008  0.1530860E+03  0.7561462E-02  0.1093767E+00
         22   -1    0    0    0    0  0.00000000000E+00  0.00000000000E+00  0.14332122972E+03  0.14332122972E+03  0.00000000000E+00 0.  1.
         22   -1    0    0    0    0 -0.00000000000E+00 -0.00000000000E+00 -0.79880119515E+03  0.79880119515E+03  0.00000000000E+00 0.  1.
         24    2    1    2    0    0  0.37858746332E+02  0.34223296211E+02 -0.36397983664E+03  0.37208315723E+03  0.57965815206E+02 0.  0.
         25    2    1    2    0    0  0.51760689196E+02 -0.17497839158E+02 -0.39025554846E+03  0.41343611487E+03  0.12507871384E+03 0.  0.
        -24    2    1    2    0    0 -0.89619435529E+02 -0.16725457052E+02  0.98755419670E+02  0.15660315277E+03  0.80377424719E+02 0.  0.
        -11    1    3    3    0    0  0.52330596108E+02  0.29784388904E+02 -0.31875366082E+03  0.32439096380E+03  0.00000000000E+00 0.  1.
         12    1    3    3    0    0 -0.14471849776E+02  0.44389073066E+01 -0.45226175829E+02  0.47692193429E+02  0.00000000000E+00 0. -1.
         13    1    5    5    0    0 -0.66543460948E+02  0.17816810926E+02  0.27603081147E+02  0.74211865866E+02  0.00000000000E+00 0. -1.
        -14    1    5    5    0    0 -0.23075974581E+02 -0.34542267979E+02  0.71152338523E+02  0.82391286901E+02  0.00000000000E+00 0.  1.
          5    1    4    4  501    0  0.48081882717E+02 -0.52032027353E+02 -0.36077729450E+03  0.36769134875E+03  0.41800000000E+01 0. -1.
         -5    1    4    4    0  501  0.36788064794E+01  0.34534188194E+02 -0.29478253954E+02  0.45744766122E+02  0.41800000000E+01 0. -1.
</event>
<event>
11    1  0.1002087E-008  0.1880225E+03  0.7561462E-02  0.1063332E+00
         22   -1    0    0    0    0  0.00000000000E+00  0.00000000000E+00  0.14871708904E+03  0.14871708904E+03  0.00000000000E+00 0. -1.
         22   -1    0    0    0    0 -0.00000000000E+00 -0.00000000000E+00 -0.13460261638E+04  0.13460261638E+04  0.00000000000E+00 0.  1.
         24    2    1    2    0    0 -0.15440306731E+02  0.10605012957E+02 -0.89680063765E+03  0.90057544806E+03  0.80211499104E+02 0.  0.
         25    2    1    2    0    0  0.34499218578E+02  0.12947127649E+03 -0.37346330691E+03  0.41601801610E+03  0.12507254131E+03 0.  0.
        -24    2    1    2    0    0 -0.19058911848E+02 -0.14007628944E+03  0.72954869771E+02  0.17814978871E+03  0.80189308560E+02 0.  0.
        -11    1    3    3    0    0 -0.29610631847E+01 -0.34892440883E+02 -0.35341944161E+03  0.35515004158E+03  0.00000000000E+00 0.  1.
         12    1    3    3    0    0 -0.12479243546E+02  0.45497453840E+02 -0.54338119604E+03  0.54542540648E+03  0.00000000000E+00 0. -1.
         13    1    5    5    0    0 -0.79706160073E+01 -0.12103203374E+03  0.89376781171E+02  0.15066682754E+03  0.00000000000E+00 0. -1.
        -14    1    5    5    0    0 -0.11088295841E+02 -0.19044255708E+02 -0.16421911401E+02  0.27482961161E+02  0.00000000000E+00 0.  1.
          5    1    4    4  501    0 -0.39968253318E+02  0.40802638206E+02 -0.19504118543E+03  0.20327531324E+03  0.41800000000E+01 0.  1.
         -5    1    4    4    0  501  0.74467471897E+02  0.88668638282E+02 -0.17842212148E+03  0.21274270286E+03  0.41800000000E+01 0.  1.
</event>
<event>
11    1  0.1002087E-008  0.1444342E+03  0.7561462E-02  0.1102705E+00
         22   -1    0    0    0    0  0.00000000000E+00  0.00000000000E+00  0.33330276455E+03  0.33330276455E+03  0.00000000000E+00 0.  1.
         22   -1    0    0    0    0 -0.00000000000E+00 -0.00000000000E+00 -0.10259163404E+04  0.10259163404E+04  0.00000000000E+00 0. -1.
        -24    2    1    2    0    0  0.57783417621E+02 -0.40703884794E+02 -0.60764619098E+03  0.61687036094E+03  0.79368880576E+02 0.  0.
         25    2    1    2    0    0 -0.93518344451E+02 -0.96036154409E+01 -0.39148357918E+03  0.42159864174E+03  0.12509241292E+03 0.  0.
         24    2    1    2    0    0  0.35734926830E+02  0.50307500235E+02  0.30651619429E+03  0.32075010228E+03  0.71558515765E+02 0.  0.
        -13    1    5    5    0    0  0.47351734636E+02  0.18896146086E+02  0.24924181211E+03  0.25440269656E+03  0.00000000000E+00 0.  1.
         14    1    5    5    0    0 -0.11616807806E+02  0.31411354149E+02  0.57274382175E+02  0.66347405726E+02  0.00000000000E+00 0. -1.
         13    1    3    3    0    0  0.12675037057E+02 -0.44200195626E+02 -0.46387213630E+03  0.46614554883E+03  0.00000000000E+00 0. -1.
        -14    1    3    3    0    0  0.45108380564E+02  0.34963108316E+01 -0.14377405468E+03  0.15072481211E+03  0.00000000000E+00 0.  1.
          5    1    4    4  501    0 -0.58971800779E+02 -0.31353174956E+02 -0.67581695029E+02  0.95107585238E+02  0.41800000000E+01 0. -1.
         -5    1    4    4    0  501 -0.34546543672E+02  0.21749559515E+02 -0.32390188415E+03  0.32649105650E+03  0.41800000000E+01 0. -1.
</event>
<event>
11    1  0.1002087E-008  0.1358797E+03  0.7561462E-02  0.1112249E+00
         22   -1    0    0    0    0  0.00000000000E+00  0.00000000000E+00  0.58853004204E+03  0.58853004204E+03  0.00000000000E+00 0. -1.
         22   -1    0    0    0    0 -0.00000000000E+00 -0.00000000000E+00 -0.41569876592E+03  0.41569876592E+03  0.00000000000E+00 0. -1.
        -24    2    1    2    0    0 -0.54277320341E+02 -0.71730224952E+01 -0.38106778978E+03  0.39562226009E+03  0.91141826370E+02 0.  0.
         25    2    1    2    0    0  0.81546706534E+01  0.17930176454E+02  0.16151978227E+03  0.20524227134E+03  0.12509100686E+03 0.  0.
         24    2    1    2    0    0  0.46122649688E+02 -0.10757153959E+02  0.39237928362E+03  0.40336427653E+03  0.80611551232E+02 0.  0.
        -11    1    5    5    0    0  0.16531687841E+02  0.23742592075E+02  0.48344029818E+02  0.56339618390E+02  0.00000000000E+00 0.  1.
         12    1    5    5    0    0  0.29590961847E+02 -0.34499746034E+02  0.34403525380E+03  0.34702465814E+03  0.00000000000E+00 0. -1.
         13    1    3    3    0    0  0.20294535353E+02 -0.18156207076E+02 -0.15348089828E+03  0.15587784370E+03  0.00000000000E+00 0. -1.
        -14    1    3    3    0    0 -0.74571855695E+02  0.10983184581E+02 -0.22758689150E+03  0.23974441639E+03  0.00000000000E+00 0.  1.
          5    1    4    4  501    0 -0.61249581421E+01  0.70128625489E+02  0.10823184545E+03  0.12917872888E+03  0.41800000000E+01 0.  1.
         -5    1    4    4    0  501  0.14279628796E+02 -0.52198449035E+02  0.53287936822E+02  0.76063542456E+02  0.41800000000E+01 0.  1.
</event>
<event>
11    1  0.1002087E-008  0.1905279E+03  0.7561462E-02  0.1061432E+00
         22   -1    0    0    0    0  0.00000000000E+00  0.00000000000E+00  0.23122719513E+04  0.23122719513E+04  0.00000000000E+00 0.  1.
         22   -1    0    0    0    0 -0.00000000000E+00 -0.00000000000E+00 -0.23812887278E+03  0.23812887278E+03  0.00000000000E+00 0. -1.
         24    2    1    2    0    0  0.84827071487E+02  0.21631108226E+02 -0.20230892527E+03  0.23465432079E+03  0.80437628764E+02 0.  0.
         25    2    1    2    0    0 -0.17726046677E+03  0.74810738944E+02  0.83675824922E+03  0.86765740168E+03  0.12508828605E+03 0.  0.
        -24    2    1    2    0    0  0.92433395284E+02 -0.96441847170E+02  0.14396937546E+04  0.14480891016E+04  0.79993604688E+02 0.  0.
        -13    1    3    3    0    0  0.70685625645E+02  0.26533514442E+02 -0.74836060559E+02  0.10630579016E+03  0.00000000000E+00 0.  1.
         14    1    3    3    0    0  0.14141445842E+02 -0.49024062162E+01 -0.12747286471E+03  0.12834853063E+03  0.00000000000E+00 0. -1.
         13    1    5    5    0    0 -0.16028165262E+01 -0.48821949297E+02  0.36895028932E+03  0.37216994471E+03  0.00000000000E+00 0. -1.
        -14    1    5    5    0    0  0.94036211810E+02 -0.47619897873E+02  0.10707434652E+04  0.10759191569E+04  0.00000000000E+00 0.  1.
          5    1    4    4  501    0 -0.18094463627E+02 -0.12910772776E+02  0.30198987874E+03  0.30283569296E+03  0.41800000000E+01 0. -1.
         -5    1    4    4    0  501 -0.15916600314E+03  0.87721511720E+02  0.53476837048E+03  0.56482170872E+03  0.41800000000E+01 0. -1.
</event>
<event>
11    1  0.1002087E-008  0.1317858E+03  0.7561462E-02  0.1117094E+00
         22   -1    0    0    0    0  0.00000000000E+00  0.00000000000E+00  0.23811861599E+04  0.23811861599E+04  0.00000000000E+00 0. -1.
         22   -1    0    0    0    0 -0.00000000000E+00 -0.00000000000E+00 -0.60890335321E+02  0.60890335321E+02  0.00000000000E+00 0. -1.
         24    2    1    2    0    0 -0.24979727558E+02  0.24534426816E+02  0.19780137659E+02  0.10737318340E+03  0.99558132669E+02 0.  0.
         25    2    1    2    0    0  0.30932017581E+02 -0.75851868115E+02  0.33548806344E+03  0.36730111258E+03  0.12509025135E+03 0.  0.
        -24    2    1    2    0    0 -0.59522900230E+01  0.51317441299E+02  0.19650276234E+04  0.19674021992E+04  0.81663596472E+02 0.  0.
        -13    1    3    3    0    0 -0.62327753162E+00 -0.15006634599E+02  0.49839341493E+02  0.52053314182E+02  0.00000000000E+00 0.  1.
         14    1    3    3    0    0 -0.24356450027E+02  0.39541061415E+02 -0.30059203833E+02  0.55319869223E+02  0.00000000000E+00 0. -1.
         11    1    5    5    0    0 -0.22150377028E+02  0.66990950675E+02  0.12241016930E+04  0.12261335089E+04  0.00000000000E+00 0. -1.
        -12    1    5    5    0    0  0.16198087005E+02 -0.15673509376E+02  0.74092593040E+03  0.74126869033E+03  0.00000000000E+00 0.  1.
          5    1    4    4  501    0  0.50550695063E+02 -0.54726734191E+02  0.77169785758E+02  0.10734540717E+03  0.41800000000E+01 0. -1.
         -5    1    4    4    0  501 -0.19618677482E+02 -0.21125133924E+02  0.25831827768E+03  0.25995570541E+03  0.41800000000E+01 0. -1.
</event>
<event>
11    1  0.1002087E-008  0.1479127E+03  0.7561462E-02  0.1099031E+00
         22   -1    0    0    0    0  0.00000000000E+00  0.00000000000E+00  0.17403297183E+03  0.17403297183E+03  0.00000000000E+00 0. -1.
         22   -1    0    0    0    0 -0.00000000000E+00 -0.00000000000E+00 -0.10036470986E+04  0.10036470986E+04  0.00000000000E+00 0. -1.
         24    2    1    2    0    0 -0.10726213263E+02 -0.85086177558E+02 -0.40819071868E+03  0.42926557269E+03  0.10146211027E+03 0.  0.
         25    2    1    2    0    0 -0.53293590778E+02  0.66951163089E+02 -0.55717604696E+03  0.57742015052E+03  0.12508484268E+03 0.  0.
        -24    2    1    2    0    0  0.64019804041E+02  0.18135014469E+02  0.13575263886E+03  0.17099434722E+03  0.79892889332E+02 0.  0.
        -11    1    3    3    0    0 -0.28981186147E+01 -0.87010072724E+02 -0.17051960347E+03  0.19145779434E+03  0.00000000000E+00 0.  1.
         12    1    3    3    0    0 -0.78280946479E+01  0.19238951661E+01 -0.23767111521E+03  0.23780777835E+03  0.00000000000E+00 0. -1.
         13    1    5    5    0    0  0.57050563691E+01  0.31905452722E+01  0.10154434632E+03  0.10175451596E+03  0.00000000000E+00 0. -1.
        -14    1    5    5    0    0  0.58314747672E+02  0.14944469197E+02  0.34208292535E+02  0.69239831266E+02  0.00000000000E+00 0.  1.
          5    1    4    4  501    0  0.14051518839E+02  0.71567428368E+02 -0.18054370141E+03  0.19476355538E+03  0.41800000000E+01 0. -1.
         -5    1    4    4    0  501 -0.67345109618E+02 -0.46162652792E+01 -0.37663234555E+03  0.38265659514E+03  0.41800000000E+01 0. -1.
</event>
<event>
11    1  0.1002087E-008  0.2580674E+03  0.7561462E-02  0.1019687E+00
         22   -1    0    0    0    0  0.00000000000E+00  0.00000000000E+00  0.90816192325E+03  0.90816192325E+03  0.00000000000E+00 0. -1.
         22   -1    0    0    0    0 -0.00000000000E+00 -0.00000000000E+00 -0.28565368349E+03  0.28565368349E+03  0.00000000000E+00 0.  1.
        -24    2    1    2    0    0 -0.89332735427E+01  0.24830666681E+03 -0.12386038370E+03  0.28898068181E+03  0.80202466617E+02 0.  0.
         25    2    1    2    0    0  0.17921814113E+03 -0.30463440475E+02  0.28096021702E+03  0.35725811969E+03  0.12509019633E+03 0.  0.
         24    2    1    2    0    0 -0.17028486759E+03 -0.21784322634E+03  0.46540840644E+03  0.54757680524E+03  0.82357546495E+02 0.  0.
        -11    1    5    5    0    0 -0.21309509211E+02 -0.62185669152E+01  0.11326320805E+02  0.24920900872E+02  0.00000000000E+00 0.  1.
         12    1    5    5    0    0 -0.14897535838E+03 -0.21162465942E+03  0.45408208563E+03  0.52265590437E+03  0.00000000000E+00 0. -1.
         11    1    3    3    0    0  0.19737580660E+02  0.64393246501E+02 -0.37447547690E+01  0.67454321385E+02  0.00000000000E+00 0. -1.
        -12    1    3    3    0    0 -0.28670854203E+02  0.18391342031E+03 -0.12011562893E+03  0.22152636043E+03  0.00000000000E+00 0.  1.
          5    1    4    4  501    0 -0.57260751455E+00 -0.30791806605E+02  0.11177708339E+02  0.33028424078E+02  0.41800000000E+01 0.  1.
         -5    1    4    4    0  501  0.17979074865E+03  0.32836613039E+00  0.26978250868E+03  0.32422969561E+03  0.41800000000E+01 0.  1.
</event>
<event>
11    1  0.1002087E-008  0.1363593E+03  0.7561462E-02  0.1111693E+00
         22   -1    0    0    0    0  0.00000000000E+00  0.00000000000E+00  0.24809790861E+03  0.24809790861E+03  0.00000000000E+00 0. -1.
         22   -1    0    0    0    0 -0.00000000000E+00 -0.00000000000E+00 -0.25903801175E+04  0.25903801175E+04  0.00000000000E+00 0. -1.
         24    2    1    2    0    0  0.30398907519E+02  0.12865273565E+02 -0.18226549614E+04  0.18247632900E+04  0.81242522933E+02 0.  0.
         25    2    1    2    0    0 -0.83907258682E+02 -0.19233758713E+02 -0.74953023413E+03  0.76475712650E+03  0.12509006806E+03 0.  0.
        -24    2    1    2    0    0  0.53508351163E+02  0.63684851485E+01  0.22990298661E+03  0.24895760961E+03  0.78872091913E+02 0.  0.
        -11    1    3    3    0    0 -0.34323191352E+01  0.29185330678E+02 -0.25974830447E+03  0.26140532897E+03  0.00000000000E+00 0.  1.
         12    1    3    3    0    0  0.33831226654E+02 -0.16320057113E+02 -0.15629066569E+04  0.15633579610E+04  0.00000000000E+00 0. -1.
         13    1    5    5    0    0  0.58899857112E+02  0.38606533835E+01  0.23426256418E+03  0.24158445064E+03  0.00000000000E+00 0. -1.
        -14    1    5    5    0    0 -0.53915059481E+01  0.25078317651E+01 -0.43595775753E+01  0.73731589692E+01  0.00000000000E+00 0.  1.
          5    1    4    4  501    0 -0.73749095665E+02  0.68356959460E+01 -0.18221440880E+03  0.19673642018E+03  0.41800000000E+01 0.  1.
         -5    1    4    4    0  501 -0.10158163018E+02 -0.26069454659E+02 -0.56731582533E+03  0.56802070632E+03  0.41800000000E+01 0.  1.
</event>
<event>
11    1  0.1002087E-008  0.2435103E+03  0.7561462E-02  0.1027414E+00
         22   -1    0    0    0    0  0.00000000000E+00  0.00000000000E+00  0.12210558013E+04  0.12210558013E+04  0.00000000000E+00 0.  1.
         22   -1    0    0    0    0 -0.00000000000E+00 -0.00000000000E+00 -0.73452905412E+03  0.73452905412E+03  0.00000000000E+00 0. -1.
        -24    2    1    2    0    0  0.10142031518E+03 -0.17972980313E+03 -0.65978292904E+03  0.69585467849E+03  0.79443927767E+02 0.  0.
         25    2    1    2    0    0 -0.22620089724E+03  0.20419757512E+03  0.52250233146E+03  0.61767260198E+03  0.12508901335E+03 0.  0.
         24    2    1    2    0    0  0.12478058206E+03 -0.24467771990E+02  0.62380734479E+03  0.64205757497E+03  0.83267404420E+02 0.  0.
        -11    1    5    5    0    0  0.13488148775E+03 -0.22140328808E+02  0.60785263861E+03  0.62303133160E+03  0.00000000000E+00 0.  1.
         12    1    5    5    0    0 -0.10100905683E+02 -0.23274431815E+01  0.15954706182E+02  0.19026243369E+02  0.00000000000E+00 0. -1.
         11    1    3    3    0    0  0.81196424552E+02 -0.13923077772E+03 -0.59751082624E+03  0.61886772116E+03  0.00000000000E+00 0. -1.
        -12    1    3    3    0    0  0.20223890625E+02 -0.40499025409E+02 -0.62272102803E+02  0.76986957328E+02  0.00000000000E+00 0.  1.
          5    1    4    4  501    0 -0.21780810367E+03  0.15990221006E+03  0.49697616769E+03  0.56569591695E+03  0.41800000000E+01 0. -1.
         -5    1    4    4    0  501 -0.83927935677E+01  0.44295365059E+02  0.25526163767E+02  0.51976685026E+02  0.41800000000E+01 0. -1.
</event>
<event>
11    1  0.1002087E-008  0.1508404E+03  0.7561462E-02  0.1096023E+00
         22   -1    0    0    0    0  0.00000000000E+00  0.00000000000E+00  0.28050495906E+03  0.28050495906E+03  0.00000000000E+00 0.  1.
         22   -1    0    0    0    0 -0.00000000000E+00 -0.00000000000E+00 -0.73521850691E+03  0.73521850691E+03  0.00000000000E+00 0.  1.
         24    2    1    2    0    0  0.25727420964E+02 -0.70593153941E+02 -0.65786105514E+03  0.66729194235E+03  0.82777260670E+02 0.  0.
         25    2    1    2    0    0  0.52081239422E+02 -0.17949603600E+01  0.47920421783E+02  0.14373393802E+03  0.12508957083E+03 0.  0.
        -24    2    1    2    0    0 -0.77808660386E+02  0.72388114301E+02  0.15522708551E+03  0.20469758560E+03  0.80693412083E+02 0.  0.
        -11    1    3    3    0    0  0.39326120569E+02 -0.39667821661E+02 -0.57644583921E+03  0.57914582393E+03  0.00000000000E+00 0.  1.
         12    1    3    3    0    0 -0.13598699604E+02 -0.30925332280E+02 -0.81415215927E+02  0.88146118418E+02  0.00000000000E+00 0. -1.
         13    1    5    5    0    0 -0.24729150921E+02 -0.16590401191E+02  0.37047629699E+02  0.47532085829E+02  0.00000000000E+00 0. -1.
        -14    1    5    5    0    0 -0.53079509465E+02  0.88978515492E+02  0.11817945581E+03  0.15716549977E+03  0.00000000000E+00 0.  1.
          5    1    4    4  501    0  0.45654255195E+02  0.22425609061E+02  0.84786634684E+02  0.98961936017E+02  0.41800000000E+01 0. -1.
         -5    1    4    4    0  501  0.64269842268E+01 -0.24220569421E+02 -0.36866212901E+02  0.44772001999E+02  0.41800000000E+01 0. -1.
</event>
<event>
11    1  0.1002087E-008  0.1794280E+03  0.7561462E-02  0.1070106E+00
         22   -1    0    0    0    0  0.00000000000E+00  0.00000000000E+00  0.11637570340E+03  0.11637570340E+03  0.00000000000E+00 0.  1.
         22   -1    0    0    0    0 -0.00000000000E+00 -0.00000000000E+00 -0.18231936613E+04  0.18231936613E+04  0.00000000000E+00 0.  1.
        -24    2    1    2    0    0  0.12657944876E+03 -0.95815547150E+01 -0.14676136740E+04  0.14750726300E+04  0.76388510649E+02 0.  0.
         25    2    1    2    0    0 -0.14133259269E+03 -0.10710744774E+01 -0.30420573234E+03  0.35799797050E+03  0.12508145481E+03 0.  0.
         24    2    1    2    0    0  0.14753143931E+02  0.10652629192E+02  0.65001448430E+02  0.10649876423E+03  0.82375146254E+02 0.  0.
        -11    1    5    5    0    0  0.46799195276E+01 -0.64437073609E+01  0.80764714819E+02  0.81156405607E+02  0.00000000000E+00 0.  1.
         12    1    5    5    0    0  0.10073224403E+02  0.17096336553E+02 -0.15763266389E+02  0.25342358625E+02  0.00000000000E+00 0. -1.
         11    1    3    3    0    0 -0.13700995143E+01  0.65409518132E+01 -0.11822538963E+02  0.13580635141E+02  0.00000000000E+00 0. -1.
        -12    1    3    3    0    0  0.12794954828E+03 -0.16122506528E+02 -0.14557911350E+04  0.14614919948E+04  0.00000000000E+00 0.  1.
          5    1    4    4  501    0 -0.54963406243E+02 -0.32188117543E+02 -0.23344098684E+03  0.24201078008E+03  0.41800000000E+01 0. -1.
         -5    1    4    4    0  501 -0.86369186451E+02  0.31117043065E+02 -0.70764745498E+02  0.11598719043E+03  0.41800000000E+01 0. -1.
</event>
<event>
11    1  0.1002087E-008  0.1630658E+03  0.7561462E-02  0.1084229E+00
         22   -1    0    0    0    0  0.00000000000E+00  0.00000000000E+00  0.17389035411E+04  0.17389035411E+04  0.00000000000E+00 0.  1.
         22   -1    0    0    0    0 -0.00000000000E+00 -0.00000000000E+00 -0.94783377900E+03  0.94783377900E+03  0.00000000000E+00 0. -1.
        -24    2    1    2    0    0  0.29182738473E+02 -0.10088693441E+03 -0.93150471024E+03  0.94081242315E+03  0.79982401753E+02 0.  0.
         25    2    1    2    0    0 -0.53121525871E+02  0.43693567545E+02  0.52676524051E+03  0.54576577754E+03  0.12509053110E+03 0.  0.
         24    2    1    2    0    0  0.23938787398E+02  0.57193366863E+02  0.11958092319E+04  0.12001591195E+04  0.81105155208E+02 0.  0.
        -11    1    5    5    0    0  0.18698717389E+02  0.53858578574E+02  0.11908420274E+04  0.11922059901E+04  0.00000000000E+00 0.  1.
         12    1    5    5    0    0  0.52400700090E+01  0.33347882893E+01  0.49672044588E+01  0.79531293696E+01  0.00000000000E+00 0. -1.
         11    1    3    3    0    0  0.45817138507E+02 -0.23774384280E+02 -0.43998957994E+03  0.44300706765E+03  0.00000000000E+00 0. -1.
        -12    1    3    3    0    0 -0.16634400034E+02 -0.77112550128E+02 -0.49151513031E+03  0.49780535551E+03  0.00000000000E+00 0.  1.
          5    1    4    4  501    0  0.94187486403E+01  0.44884459689E+02  0.41558423367E+03  0.41812803687E+03  0.41800000000E+01 0. -1.
         -5    1    4    4    0  501 -0.62540274511E+02 -0.11908921441E+01  0.11118100685E+03  0.12763774067E+03  0.41800000000E+01 0. -1.
</event>
<event>
11    1  0.1761959E-008  0.1869087E+03  0.7561462E-02  0.1064188E+00
         22   -1    0    0    0    0  0.00000000000E+00  0.00000000000E+00  0.43066190240E+03  0.43066190240E+03  0.00000000000E+00 0. -1.
         22   -1    0    0    0    0 -0.00000000000E+00 -0.00000000000E+00 -0.97851854016E+03  0.97851854016E+03  0.00000000000E+00 0. -1.
         24    2    1    2    0    0 -0.66686122722E+00  0.23003071144E+02 -0.47360875904E+03  0.48108968391E+03  0.81316919117E+02 0.  0.
         25    2    1    2    0    0 -0.56313985282E+02 -0.14894085879E+03 -0.46435115228E+03  0.50658134611E+03  0.12509205907E+03 0.  0.
        -24    2    1    2    0    0  0.56980846509E+02  0.12593778764E+03  0.39010327357E+03  0.42150941254E+03  0.79890409851E+02 0.  0.
        -11    1    3    3    0    0 -0.25537742148E+02 -0.33656260586E+00 -0.50333224740E+02  0.56442209924E+02  0.00000000000E+00 0.  1.
         12    1    3    3    0    0  0.24870880921E+02  0.23339633750E+02 -0.42327553430E+03  0.42464747398E+03  0.00000000000E+00 0. -1.
         11    1    5    5    0    0  0.37682787716E+01  0.86436150124E+02  0.27936476202E+03  0.29245525851E+03  0.00000000000E+00 0. -1.
        -12    1    5    5    0    0  0.53212567737E+02  0.39501637519E+02  0.11073851155E+03  0.12905415403E+03  0.00000000000E+00 0.  1.
          5    1    4    4  501    0 -0.20514780045E+02 -0.69005279731E+02 -0.37319220367E+03  0.38009535397E+03  0.41800000000E+01 0. -1.
         -5    1    4    4    0  501 -0.35799205236E+02 -0.79935579056E+02 -0.91158948617E+02  0.12648599214E+03  0.41800000000E+01 0. -1.
</event>
<event>
11    1  0.1002087E-008  0.1778083E+03  0.7561462E-02  0.1071430E+00
         22   -1    0    0    0    0  0.00000000000E+00  0.00000000000E+00  0.14384423093E+04  0.14384423093E+04  0.00000000000E+00 0.  1.
         22   -1    0    0    0    0 -0.00000000000E+00 -0.00000000000E+00 -0.48426984930E+03  0.48426984930E+03  0.00000000000E+00 0. -1.
        -24    2    1    2    0    0 -0.40007202361E+02  0.36897100367E+02 -0.45249103794E+03  0.46276511223E+03  0.80258566067E+02 0.  0.
         25    2    1    2    0    0  0.14395845269E+02  0.95739489101E+02  0.27325367526E+03  0.31573217765E+03  0.12508375924E+03 0.  0.
         24    2    1    2    0    0  0.25611357092E+02 -0.13263658947E+03  0.11334098227E+04  0.11442148687E+04  0.79758593249E+02 0.  0.
        -13    1    5    5    0    0  0.40598076793E+02 -0.13513973896E+03  0.99070515260E+03  0.10007035786E+04  0.00000000000E+00 0.  1.
         14    1    5    5    0    0 -0.14986719701E+02  0.25031494929E+01  0.14270467006E+03  0.14351129009E+03  0.00000000000E+00 0. -1.
         11    1    3    3    0    0 -0.33647998640E+02 -0.94703738363E+01 -0.79449398649E+02  0.86799094113E+02  0.00000000000E+00 0. -1.
        -12    1    3    3    0    0 -0.63592037209E+01  0.46367474203E+02 -0.37304163929E+03  0.37596601811E+03  0.00000000000E+00 0.  1.
          5    1    4    4  501    0 -0.22095253098E+02  0.63340061000E+02  0.25460012146E+03  0.26332272554E+03  0.41800000000E+01 0.  1.
         -5    1    4    4    0  501  0.36491098367E+02  0.32399428101E+02  0.18653553797E+02  0.52409452111E+02  0.41800000000E+01 0.  1.
</event>
<event>
11    1  0.1002087E-008  0.1364037E+03  0.7561462E-02  0.1111642E+00
         22   -1    0    0    0    0  0.00000000000E+00  0.00000000000E+00  0.20337875984E+03  0.20337875984E+03  0.00000000000E+00 0. -1.
         22   -1    0    0    0    0 -0.00000000000E+00 -0.00000000000E+00 -0.53133468729E+03  0.53133468729E+03  0.00000000000E+00 0. -1.
         24    2    1    2    0    0  0.56213701344E+02  0.13210045734E+01 -0.45848681361E+03  0.46751627842E+03  0.72108162253E+02 0.  0.
         25    2    1    2    0    0 -0.22346189977E+02 -0.12293810509E+02  0.26643533294E+02  0.13040822934E+03  0.12508372568E+03 0.  0.
        -24    2    1    2    0    0 -0.33867511367E+02  0.10972805936E+02  0.10388735286E+03  0.13678893936E+03  0.81555018554E+02 0.  0.
        -11    1    3    3    0    0 -0.16030096846E+00  0.25561543787E+02 -0.77172758940E+02  0.81296081945E+02  0.00000000000E+00 0.  1.
         12    1    3    3    0    0  0.56374002313E+02 -0.24240539213E+02 -0.38131405467E+03  0.38622019648E+03  0.00000000000E+00 0. -1.
         13    1    5    5    0    0 -0.37359022858E+02 -0.20265810398E+02  0.95077196356E+02  0.10414448102E+03  0.00000000000E+00 0. -1.
        -14    1    5    5    0    0  0.34915114913E+01  0.31238616333E+02  0.88101565061E+01  0.32644458344E+02  0.00000000000E+00 0.  1.
          5    1    4    4  501    0 -0.36056226855E+02 -0.37456174012E+02  0.64369968731E+02  0.82849150515E+02  0.41800000000E+01 0.  1.
         -5    1    4    4    0  501  0.13710036878E+02  0.25162363503E+02 -0.37726435437E+02  0.47559078828E+02  0.41800000000E+01 0.  1.
</event>
<event>
11    1  0.1002087E-008  0.1344682E+03  0.7561462E-02  0.1113898E+00
         22   -1    0    0    0    0  0.00000000000E+00  0.00000000000E+00  0.38138970143E+03  0.38138970143E+03  0.00000000000E+00 0. -1.
         22   -1    0    0    0    0 -0.00000000000E+00 -0.00000000000E+00 -0.16643000128E+03  0.16643000128E+03  0.00000000000E+00 0. -1.
         24    2    1    2    0    0 -0.37543740541E+02 -0.34028514627E+02 -0.86706085840E+02  0.12845049286E+03  0.80088148511E+02 0.  0.
         25    2    1    2    0    0  0.14216311161E+02  0.47538368823E+02  0.34359375053E+02  0.13889197691E+03  0.12509362327E+03 0.  0.
        -24    2    1    2    0    0  0.23327429380E+02 -0.13509854196E+02  0.26730641094E+03  0.28047723294E+03  0.80548592453E+02 0.  0.
        -13    1    3    3    0    0 -0.49489593261E+02  0.46852058726E+01 -0.27798988961E+02  0.56955726511E+02  0.00000000000E+00 0.  1.
         14    1    3    3    0    0  0.11945852719E+02 -0.38713720500E+02 -0.58907096879E+02  0.71494766346E+02  0.00000000000E+00 0. -1.
         13    1    5    5    0    0  0.16327167637E+01  0.23820829832E+01  0.24639286975E+03  0.24640979353E+03  0.00000000000E+00 0. -1.
        -14    1    5    5    0    0  0.21694712616E+02 -0.15891937179E+02  0.20913541186E+02  0.34067439407E+02  0.00000000000E+00 0.  1.
          5    1    4    4  501    0  0.69891020551E+02  0.26480494612E+02  0.17271056188E+02  0.76822738368E+02  0.41800000000E+01 0.  1.
         -5    1    4    4    0  501 -0.55674709389E+02  0.21057874211E+02  0.17088318865E+02  0.62069238545E+02  0.41800000000E+01 0.  1.
</event>
<event>
11    1  0.1002087E-008  0.1612226E+03  0.7561462E-02  0.1085933E+00
         22   -1    0    0    0    0  0.00000000000E+00  0.00000000000E+00  0.48717307730E+03  0.48717307730E+03  0.00000000000E+00 0. -1.
         22   -1    0    0    0    0 -0.00000000000E+00 -0.00000000000E+00 -0.27588175626E+03  0.27588175626E+03  0.00000000000E+00 0.  1.
        -24    2    1    2    0    0 -0.38130756224E+01  0.48124158986E+02 -0.19144046132E+03  0.21328400796E+03  0.80685460880E+02 0.  0.
         25    2    1    2    0    0  0.52546439768E+00 -0.14221723967E+03  0.82855274266E+02  0.20673439993E+03  0.12509235096E+03 0.  0.
         24    2    1    2    0    0  0.32876112247E+01  0.94093080685E+02  0.31987650810E+03  0.34303642567E+03  0.80552421964E+02 0.  0.
        -13    1    5    5    0    0  0.36360373013E+02  0.42086232212E+02  0.97192638241E+02  0.11198096533E+03  0.00000000000E+00 0.  1.
         14    1    5    5    0    0 -0.33072761788E+02  0.52006848472E+02  0.22268386986E+03  0.23105546034E+03  0.00000000000E+00 0. -1.
         11    1    3    3    0    0  0.12483657512E+02  0.57710223735E+02 -0.75673605962E+02  0.95983364536E+02  0.00000000000E+00 0. -1.
        -12    1    3    3    0    0 -0.16296733134E+02 -0.95860647487E+01 -0.11576685536E+03  0.11730064343E+03  0.00000000000E+00 0.  1.
          5    1    4    4  501    0  0.23395203377E+00 -0.79954083950E+02 -0.23484094079E+02  0.83436714632E+02  0.41800000000E+01 0. -1.
         -5    1    4    4    0  501  0.29151236391E+00 -0.62263155720E+02  0.10633936835E+03  0.12329768530E+03  0.41800000000E+01 0. -1.
</event>
<event>
11    1  0.1002087E-008  0.1953111E+03  0.7561462E-02  0.1057890E+00
         22   -1    0    0    0    0  0.00000000000E+00  0.00000000000E+00  0.40318072655E+03  0.40318072655E+03  0.00000000000E+00 0. -1.
         22   -1    0    0    0    0 -0.00000000000E+00 -0.00000000000E+00 -0.26236315295E+04  0.26236315295E+04  0.00000000000E+00 0. -1.
         24    2    1    2    0    0 -0.14085355753E+03  0.38207879735E+02 -0.23443996477E+04  0.23507994926E+04  0.93535981184E+02 0.  0.
         25    2    1    2    0    0  0.22124624250E+03 -0.87029428997E+02 -0.19637283165E+03  0.33276593577E+03  0.12508740013E+03 0.  0.
        -24    2    1    2    0    0 -0.80392684972E+02  0.48821549262E+02  0.32032167635E+03  0.34324682766E+03  0.79786470594E+02 0.  0.
        -11    1    3    3    0    0  0.99880504121E+01 -0.10564082789E+02 -0.23699194123E+03  0.23743744692E+03  0.00000000000E+00 0.  1.
         12    1    3    3    0    0 -0.15084160794E+03  0.48771962524E+02 -0.21074077064E+04  0.21133620457E+04  0.00000000000E+00 0. -1.
         13    1    5    5    0    0  0.61458232645E+01 -0.87346834289E+01  0.89142013584E+02  0.89779532323E+02  0.00000000000E+00 0. -1.
        -14    1    5    5    0    0 -0.86538508237E+02  0.57556232691E+02  0.23117966277E+03  0.25346729534E+03  0.00000000000E+00 0.  1.
          5    1    4    4  501    0  0.16277583433E+03 -0.97517304496E+01 -0.16190103294E+03  0.22982707708E+03  0.41800000000E+01 0. -1.
         -5    1    4    4    0  501  0.58470408163E+02 -0.77277698547E+02 -0.34471798706E+02  0.10293885870E+03  0.41800000000E+01 0. -1.
</event>
<event>
11    1  0.1002087E-008  0.1410076E+03  0.7561462E-02  0.1106438E+00
         22   -1    0    0    0    0  0.00000000000E+00  0.00000000000E+00  0.78441997146E+03  0.78441997146E+03  0.00000000000E+00 0.  1.
         22   -1    0    0    0    0 -0.00000000000E+00 -0.00000000000E+00 -0.76160981274E+03  0.76160981274E+03  0.00000000000E+00 0.  1.
        -24    2    1    2    0    0  0.65215160819E+01 -0.70202361798E+01 -0.54379213694E+03  0.54980887473E+03  0.80548722139E+02 0.  0.
         25    2    1    2    0    0 -0.44867428854E+02  0.59440258588E+02 -0.18614678875E+03  0.23630720072E+03  0.12507691889E+03 0.  0.
         24    2    1    2    0    0  0.38345912772E+02 -0.52420022409E+02  0.75274908442E+03  0.75991370875E+03  0.81359651459E+02 0.  0.
        -13    1    5    5    0    0 -0.20053248489E+01  0.20572600051E+02  0.15697269496E+03  0.15832776182E+03  0.00000000000E+00 0.  1.
         14    1    5    5    0    0  0.40351237621E+02 -0.72992622460E+02  0.59577638946E+03  0.60158594693E+03  0.00000000000E+00 0. -1.
         13    1    3    3    0    0 -0.24709972814E+02  0.20981781600E+02 -0.13355208758E+03  0.13742990217E+03  0.00000000000E+00 0. -1.
        -14    1    3    3    0    0  0.31231488896E+02 -0.28002017780E+02 -0.41024004937E+03  0.41237897255E+03  0.00000000000E+00 0.  1.
          5    1    4    4  501    0 -0.28083131980E+02 -0.22181990493E+02 -0.13203181304E+03  0.13685969113E+03  0.41800000000E+01 0. -1.
         -5    1    4    4    0  501 -0.16784296874E+02  0.81622249081E+02 -0.54114975717E+02  0.99447509589E+02  0.41800000000E+01 0. -1.
</event>
<event>
11    1  0.1002087E-008  0.2649722E+03  0.7561462E-02  0.1016212E+00
         22   -1    0    0    0    0  0.00000000000E+00  0.00000000000E+00  0.21780208152E+04  0.21780208152E+04  0.00000000000E+00 0. -1.
         22   -1    0    0    0    0 -0.00000000000E+00 -0.00000000000E+00 -0.47971586916E+03  0.47971586916E+03  0.00000000000E+00 0.  1.
         24    2    1    2    0    0 -0.16440204659E+03  0.17012608989E+03 -0.41926987630E+03  0.48844182594E+03  0.82566753396E+02 0.  0.
         25    2    1    2    0    0  0.86217532592E+02 -0.17371984693E+03  0.53392688840E+03  0.58166824490E+03  0.12509187351E+03 0.  0.
        -24    2    1    2    0    0  0.78184513999E+02  0.35937570425E+01  0.15836479339E+04  0.15876266135E+04  0.80571409445E+02 0.  0.
        -11    1    3    3    0    0 -0.17132711071E+03  0.15167180514E+03 -0.40031458706E+03  0.46109552584E+03  0.00000000000E+00 0.  1.
         12    1    3    3    0    0  0.69250641209E+01  0.18454284747E+02 -0.18955289245E+02  0.27346300096E+02  0.00000000000E+00 0. -1.
         11    1    5    5    0    0 -0.83509376574E+01  0.33239161896E+01  0.62909654157E+03  0.62916074671E+03  0.00000000000E+00 0. -1.
        -12    1    5    5    0    0  0.86535451656E+02  0.26984085286E+00  0.95455139237E+03  0.95846586684E+03  0.00000000000E+00 0.  1.
          5    1    4    4  501    0 -0.94882570563E+01 -0.68445639550E+02  0.29964238459E+03  0.30753514212E+03  0.41800000000E+01 0.  1.
         -5    1    4    4    0  501  0.95705789648E+02 -0.10527420738E+03  0.23428450381E+03  0.27413310278E+03  0.41800000000E+01 0.  1.
</event>
<event>
11    1  0.1002087E-008  0.1609194E+03  0.7561462E-02  0.1086216E+00
         22   -1    0    0    0    0  0.00000000000E+00  0.00000000000E+00  0.23072906498E+03  0.23072906498E+03  0.00000000000E+00 0. -1.
         22   -1    0    0    0    0 -0.00000000000E+00 -0.00000000000E+00 -0.14119845854E+04  0.14119845854E+04  0.00000000000E+00 0. -1.
        -24    2    1    2    0    0 -0.86703516437E+02  0.49998219715E+02 -0.13010574191E+04  0.13073491144E+04  0.79962348935E+02 0.  0.
         25    2    1    2    0    0  0.10583115919E+03 -0.87365351137E+02  0.22551586294E+01  0.18570259037E+03  0.12508967781E+03 0.  0.
         24    2    1    2    0    0 -0.19127642751E+02  0.37367131422E+02  0.11754674005E+03  0.14966194566E+03  0.82579008559E+02 0.  0.
        -11    1    5    5    0    0 -0.18065406322E+02  0.52175208614E+02  0.34079569275E+02  0.64884731189E+02  0.00000000000E+00 0.  1.
         12    1    5    5    0    0 -0.10622364290E+01 -0.14808077191E+02  0.83467170778E+02  0.84777214475E+02  0.00000000000E+00 0. -1.
         13    1    3    3    0    0 -0.39979719847E+02  0.59673104646E+02 -0.99557406125E+03  0.99816179493E+03  0.00000000000E+00 0. -1.
        -14    1    3    3    0    0 -0.46723796590E+02 -0.96748849313E+01 -0.30548335788E+03  0.30918731944E+03  0.00000000000E+00 0.  1.
          5    1    4    4  501    0  0.26906311518E+02 -0.95909115534E+02  0.25441452593E+02  0.10289435335E+03  0.41800000000E+01 0. -1.
         -5    1    4    4    0  501  0.78924847669E+02  0.85437643968E+01 -0.23186293963E+02  0.82808237015E+02  0.41800000000E+01 0. -1.
</event>
<event>
11    1  0.1002087E-008  0.1380352E+03  0.7561462E-02  0.1109772E+00
         22   -1    0    0    0    0  0.00000000000E+00  0.00000000000E+00  0.43499053053E+02  0.43499053053E+02  0.00000000000E+00 0. -1.
         22   -1    0    0    0    0 -0.00000000000E+00 -0.00000000000E+00 -0.15461882466E+04  0.15461882466E+04  0.00000000000E+00 0.  1.
        -24    2    1    2    0    0 -0.49492331858E+02  0.12900916170E+02 -0.11313851091E+04  0.11354675681E+04  0.81476429124E+02 0.  0.
         25    2    1    2    0    0  0.58393713100E+02  0.44658891925E+02 -0.29165505313E+03  0.32575188898E+03  0.12508949118E+03 0.  0.
         24    2    1    2    0    0 -0.89013812424E+01 -0.57559808095E+02 -0.79649031286E+02  0.12846784256E+03  0.82265741907E+02 0.  0.
        -13    1    5    5    0    0 -0.12077262744E+02 -0.23635410718E+02 -0.89213505875E+02  0.93078152892E+02  0.00000000000E+00 0.  1.
         14    1    5    5    0    0  0.31758815012E+01 -0.33924397376E+02  0.95644745897E+01  0.35389689669E+02  0.00000000000E+00 0. -1.
         11    1    3    3    0    0  0.35107851201E+01 -0.24308198441E+02 -0.15466661098E+03  0.15660451678E+03  0.00000000000E+00 0. -1.
        -12    1    3    3    0    0 -0.53003116978E+02  0.37209114611E+02 -0.97671849811E+03  0.97886305129E+03  0.00000000000E+00 0.  1.
          5    1    4    4  501    0  0.32500475884E+02 -0.42184318037E+02 -0.90524587911E+02  0.10510932897E+03  0.41800000000E+01 0.  1.
         -5    1    4    4    0  501  0.25893237216E+02  0.86843209962E+02 -0.20113046522E+03  0.22064256001E+03  0.41800000000E+01 0.  1.
</event>
<event>
11    1  0.1002087E-008  0.1458033E+03  0.7561462E-02  0.1101246E+00
         22   -1    0    0    0    0  0.00000000000E+00  0.00000000000E+00  0.18645057382E+03  0.18645057382E+03  0.00000000000E+00 0.  1.
         22   -1    0    0    0    0 -0.00000000000E+00 -0.00000000000E+00 -0.20135306892E+04  0.20135306892E+04  0.00000000000E+00 0.  1.
        -24    2    1    2    0    0 -0.32428409276E+02 -0.64734345470E+02 -0.10527244589E+04  0.10580419012E+04  0.77341717483E+02 0.  0.
         25    2    1    2    0    0  0.52495522778E+02  0.62865080384E+02 -0.94264036455E+03  0.95442466488E+03  0.12509111001E+03 0.  0.
         24    2    1    2    0    0 -0.20067113502E+02  0.18692650856E+01  0.16828470806E+03  0.18751469689E+03  0.80223658535E+02 0.  0.
        -11    1    5    5    0    0 -0.40339289253E+02 -0.41227296267E+01  0.15958373506E+03  0.16465486222E+03  0.00000000000E+00 0.  1.
         12    1    5    5    0    0  0.20272175750E+02  0.59919947123E+01  0.87009730009E+01  0.22859834677E+02  0.00000000000E+00 0. -1.
         11    1    3    3    0    0 -0.88675119616E+01  0.17799003547E+02 -0.22649905760E+03  0.22737031554E+03  0.00000000000E+00 0. -1.
        -12    1    3    3    0    0 -0.23560897314E+02 -0.82533349017E+02 -0.82622540125E+03  0.83067158568E+03  0.00000000000E+00 0.  1.
          5    1    4    4  501    0  0.11854269853E+02  0.54555428738E+02 -0.86040421438E+03  0.86222369663E+03  0.41800000000E+01 0.  1.
         -5    1    4    4    0  501  0.40641252926E+02  0.83096516468E+01 -0.82236150175E+02  0.92200968246E+02  0.41800000000E+01 0.  1.
</event>
<event>
11    1  0.1002087E-008  0.1755546E+03  0.7561462E-02  0.1073296E+00
         22   -1    0    0    0    0  0.00000000000E+00  0.00000000000E+00  0.55286775707E+03  0.55286775707E+03  0.00000000000E+00 0.  1.
         22   -1    0    0    0    0 -0.00000000000E+00 -0.00000000000E+00 -0.11640376063E+04  0.11640376063E+04  0.00000000000E+00 0.  1.
        -24    2    1    2    0    0 -0.64808826770E+02 -0.10654213296E+03 -0.10595893504E+04  0.10700319124E+04  0.81775864295E+02 0.  0.
         25    2    1    2    0    0  0.71519024932E+02  0.76372401605E+02 -0.25162579717E+02  0.16501666289E+03  0.12509847705E+03 0.  0.
         24    2    1    2    0    0 -0.67101981626E+01  0.30169731357E+02  0.47358208086E+03  0.48185678810E+03  0.83371083002E+02 0.  0.
        -13    1    5    5    0    0 -0.42099344640E+01  0.26755432952E+01  0.43148908281E+03  0.43151791465E+03  0.00000000000E+00 0.  1.
         14    1    5    5    0    0 -0.25002636986E+01  0.27494188062E+02  0.42092998048E+02  0.50338873452E+02  0.00000000000E+00 0. -1.
         13    1    3    3    0    0 -0.65041535629E+01 -0.50062845435E+02 -0.18765122354E+03  0.19432337534E+03  0.00000000000E+00 0. -1.
        -14    1    3    3    0    0 -0.58304673207E+02 -0.56479287527E+02 -0.87193812686E+03  0.87570853708E+03  0.00000000000E+00 0.  1.
          5    1    4    4  501    0  0.50736317341E+02  0.71578285589E+02  0.39860750878E+02  0.96457123769E+02  0.41800000000E+01 0. -1.
         -5    1    4    4    0  501  0.20782707592E+02  0.47941160159E+01 -0.65023330595E+02  0.68559539124E+02  0.41800000000E+01 0. -1.
</event>
<event>
11    1  0.1002087E-008  0.1865190E+03  0.7561462E-02  0.1064488E+00
         22   -1    0    0    0    0  0.00000000000E+00  0.00000000000E+00  0.26122732946E+04  0.26122732946E+04  0.00000000000E+00 0. -1.
         22   -1    0    0    0    0 -0.00000000000E+00 -0.00000000000E+00 -0.11166964241E+04  0.11166964241E+04  0.00000000000E+00 0.  1.
        -24    2    1    2    0    0  0.79361118463E+02 -0.11369211133E+03 -0.10945364387E+04  0.11063018676E+04  0.81668374526E+02 0.  0.
         25    2    1    2    0    0 -0.57217937845E+02  0.99701944482E+02  0.45818953308E+03  0.48867098870E+03  0.12508923548E+03 0.  0.
         24    2    1    2    0    0 -0.22143180619E+02  0.13990166852E+02  0.21319237761E+04  0.21339968624E+04  0.90319303695E+02 0.  0.
        -11    1    5    5    0    0 -0.27620290386E+00  0.10272962001E+02  0.26014431756E+02  0.27970711394E+02  0.00000000000E+00 0.  1.
         12    1    5    5    0    0 -0.21866977715E+02  0.37172048512E+01  0.21059093443E+04  0.21060261510E+04  0.00000000000E+00 0. -1.
         13    1    3    3    0    0  0.39900163570E+01 -0.11656044834E+02 -0.15337438714E+02  0.19672840111E+02  0.00000000000E+00 0. -1.
        -14    1    3    3    0    0  0.75371102106E+02 -0.10203606650E+03 -0.10791990000E+04  0.10866290275E+04  0.00000000000E+00 0.  1.
          5    1    4    4  501    0  0.15399752544E+02 -0.19253379029E+02  0.34365557960E+02  0.42500693598E+02  0.41800000000E+01 0.  1.
         -5    1    4    4    0  501 -0.72617690389E+02  0.11895532351E+03  0.42382397512E+03  0.44617029511E+03  0.41800000000E+01 0.  1.
</event>
<event>
11    1  0.1002087E-008  0.1709111E+03  0.7561462E-02  0.1077241E+00
         22   -1    0    0    0    0  0.00000000000E+00  0.00000000000E+00  0.17393876446E+04  0.17393876446E+04  0.00000000000E+00 0.  1.
         22   -1    0    0    0    0 -0.00000000000E+00 -0.00000000000E+00 -0.53235249181E+03  0.53235249181E+03  0.00000000000E+00 0.  1.
         24    2    1    2    0    0  0.35979779182E+02  0.18503304437E+02 -0.50750590997E+03  0.51559876545E+03  0.81504119525E+02 0.  0.
         25    2    1    2    0    0  0.21610959386E+02 -0.11981979242E+03  0.42541571430E+03  0.45983761489E+03  0.12509310882E+03 0.  0.
        -24    2    1    2    0    0 -0.57590738568E+02  0.10131648799E+03  0.12891253485E+04  0.12963037561E+04  0.70551683553E+02 0.  0.
        -11    1    3    3    0    0  0.54438958261E+02  0.31310509485E+02 -0.43983366661E+03  0.44429449970E+03  0.00000000000E+00 0.  1.
         12    1    3    3    0    0 -0.18459179078E+02 -0.12807205048E+02 -0.67672243353E+02  0.71304265748E+02  0.00000000000E+00 0. -1.
         13    1    5    5    0    0  0.30423277844E+01  0.13516336746E+02  0.34923270880E+02  0.37571025623E+02  0.00000000000E+00 0. -1.
        -14    1    5    5    0    0 -0.60633066352E+02  0.87800151240E+02  0.12542020776E+04  0.12587327305E+04  0.00000000000E+00 0.  1.
          5    1    4    4  501    0 -0.35463428551E+02 -0.91794042837E+02  0.16885513092E+03  0.19548229767E+03  0.41800000000E+01 0. -1.
         -5    1    4    4    0  501  0.57074387937E+02 -0.28025749587E+02  0.25656058338E+03  0.26435531722E+03  0.41800000000E+01 0. -1.
</event>
<event>
11    1  0.1002087E-008  0.1396866E+03  0.7561462E-02  0.1107909E+00
         22   -1    0    0    0    0  0.00000000000E+00  0.00000000000E+00  0.82681318277E+02  0.82681318277E+02  0.00000000000E+00 0. -1.
         22   -1    0    0    0    0 -0.00000000000E+00 -0.00000000000E+00 -0.24987760271E+04  0.24987760271E+04  0.00000000000E+00 0.  1.
         24    2    1    2    0    0 -0.44957596573E+02  0.36537822447E+02 -0.19236520218E+04  0.19260954605E+04  0.77784471792E+02 0.  0.
         25    2    1    2    0    0  0.90908529725E+02 -0.54714238476E+02 -0.53012753105E+03  0.55492336954E+03  0.12508692267E+03 0.  0.
        -24    2    1    2    0    0 -0.45950933153E+02  0.18176416030E+02  0.37684844019E+02  0.10043851533E+03  0.78904230153E+02 0.  0.
        -13    1    3    3    0    0 -0.63789259064E+02  0.39471868811E+02 -0.13086555236E+04  0.13108037143E+04  0.00000000000E+00 0.  1.
         14    1    3    3    0    0  0.18831662491E+02 -0.29340463643E+01 -0.61499649827E+03  0.61529174627E+03  0.00000000000E+00 0. -1.
         11    1    5    5    0    0 -0.12742481702E+02  0.40305833040E+02  0.42858965462E+02  0.60198188822E+02  0.00000000000E+00 0. -1.
        -12    1    5    5    0    0 -0.33208451450E+02 -0.22129417010E+02 -0.51741214426E+01  0.40240326510E+02  0.00000000000E+00 0.  1.
          5    1    4    4  501    0  0.12258308434E+03 -0.44507219229E+02 -0.42375485749E+03  0.44338826865E+03  0.41800000000E+01 0. -1.
         -5    1    4    4    0  501 -0.31674554613E+02 -0.10207019247E+02 -0.10637267355E+03  0.11153510089E+03  0.41800000000E+01 0. -1.
</event>
<event>
11    1  0.1002087E-008  0.2230938E+03  0.7561462E-02  0.1039297E+00
         22   -1    0    0    0    0  0.00000000000E+00  0.00000000000E+00  0.14932567036E+04  0.14932567036E+04  0.00000000000E+00 0.  1.
         22   -1    0    0    0    0 -0.00000000000E+00 -0.00000000000E+00 -0.45719592966E+03  0.45719592966E+03  0.00000000000E+00 0.  1.
        -24    2    1    2    0    0  0.92270906538E+02 -0.14179320510E+02 -0.35196721604E+03  0.37286422419E+03  0.80198723093E+02 0.  0.
         25    2    1    2    0    0 -0.22410343872E+02 -0.16083482195E+03  0.33465492830E+02  0.20769549866E+03  0.12508963782E+03 0.  0.
         24    2    1    2    0    0 -0.69860562666E+02  0.17501414246E+03  0.13545624972E+04  0.13698929104E+04  0.79098540032E+02 0.  0.
        -11    1    5    5    0    0 -0.17276104878E+02  0.11391467954E+03  0.59405944921E+03  0.60512944666E+03  0.00000000000E+00 0.  1.
         12    1    5    5    0    0 -0.52584457788E+02  0.61099462917E+02  0.76050304795E+03  0.76476346376E+03  0.00000000000E+00 0. -1.
         11    1    3    3    0    0  0.63624789605E+02 -0.25070100204E+02 -0.32476382280E+03  0.33188577007E+03  0.00000000000E+00 0. -1.
        -12    1    3    3    0    0  0.28646116933E+02  0.10890779694E+02 -0.27203393243E+02  0.40978454114E+02  0.00000000000E+00 0.  1.
          5    1    4    4  501    0 -0.24683623453E+02 -0.94916552200E+02 -0.42531945021E+02  0.10698070805E+03  0.41800000000E+01 0. -1.
         -5    1    4    4    0  501  0.22732795808E+01 -0.65918269749E+02  0.75997437851E+02  0.10071479061E+03  0.41800000000E+01 0. -1.
</event>
<event>
11    1  0.1002087E-008  0.1990531E+03  0.7561462E-02  0.1055195E+00
         22   -1    0    0    0    0  0.00000000000E+00  0.00000000000E+00  0.12959539779E+04  0.12959539779E+04  0.00000000000E+00 0. -1.
         22   -1    0    0    0    0 -0.00000000000E+00 -0.00000000000E+00 -0.31532736475E+03  0.31532736475E+03  0.00000000000E+00 0. -1.
        -24    2    1    2    0    0  0.14739651656E+03 -0.31345526474E+02 -0.21164798428E+03  0.27198398189E+03  0.80449624189E+02 0.  0.
         25    2    1    2    0    0 -0.18715409270E+03 -0.25350928220E+02  0.10999568029E+03  0.25182773719E+03  0.12509530590E+03 0.  0.
         24    2    1    2    0    0  0.39757576140E+02  0.56696454695E+02  0.10822789172E+04  0.10874696236E+04  0.80419990347E+02 0.  0.
        -11    1    5    5    0    0 -0.17125888787E+02  0.41286128548E+02  0.35412651289E+03  0.35693616742E+03  0.00000000000E+00 0.  1.
         12    1    5    5    0    0  0.56883464927E+02  0.15410326146E+02  0.72815240429E+03  0.73053345619E+03  0.00000000000E+00 0. -1.
         13    1    3    3    0    0  0.35972098467E+02 -0.41003809858E+02 -0.10025158772E+03  0.11413012368E+03  0.00000000000E+00 0. -1.
        -14    1    3    3    0    0  0.11142441810E+03  0.96582833842E+01 -0.11139639656E+03  0.15785385821E+03  0.00000000000E+00 0.  1.
          5    1    4    4  501    0 -0.28517508153E+02  0.31368098350E+02  0.64454075875E+02  0.77259343527E+02  0.41800000000E+01 0. -1.
         -5    1    4    4    0  501 -0.15863658455E+03 -0.56719026571E+02  0.45541604412E+02  0.17456839366E+03  0.41800000000E+01 0. -1.
</event>
<event>
11    1  0.1002087E-008  0.2464823E+03  0.7561462E-02  0.1025790E+00
         22   -1    0    0    0    0  0.00000000000E+00  0.00000000000E+00  0.13602051346E+04  0.13602051346E+04  0.00000000000E+00 0. -1.
         22   -1    0    0    0    0 -0.00000000000E+00 -0.00000000000E+00 -0.42053825832E+03  0.42053825832E+03  0.00000000000E+00 0. -1.
         24    2    1    2    0    0 -0.15832855137E+02 -0.76648917223E+02 -0.29129266731E+03  0.31006792292E+03  0.71867676899E+02 0.  0.
         25    2    1    2    0    0  0.12449336001E+03  0.25140946658E+03  0.10705490783E+03  0.32528894475E+03  0.12508728039E+03 0.  0.
        -24    2    1    2    0    0 -0.10866050487E+03 -0.17476054936E+03  0.11239046357E+04  0.11453865252E+04  0.80001918769E+02 0.  0.
        -11    1    3    3    0    0  0.19938566224E+02  0.86152375803E+00 -0.40615186005E+02  0.45253530033E+02  0.00000000000E+00 0.  1.
         12    1    3    3    0    0 -0.35771421361E+02 -0.77510440981E+02 -0.25067748131E+03  0.26481439289E+03  0.00000000000E+00 0. -1.
         11    1    5    5    0    0 -0.60935049279E+02 -0.13702188683E+03  0.62270322929E+03  0.64050557333E+03  0.00000000000E+00 0. -1.
        -12    1    5    5    0    0 -0.47725455592E+02 -0.37738662531E+02  0.50120140646E+03  0.50488095191E+03  0.00000000000E+00 0.  1.
          5    1    4    4  501    0  0.92399024757E+02  0.10138579751E+03 -0.15969696336E+01  0.13724679386E+03  0.41800000000E+01 0.  1.
         -5    1    4    4    0  501  0.32094335250E+02  0.15002366908E+03  0.10865187746E+03  0.18804215090E+03  0.41800000000E+01 0.  1.
</event>
<event>
11    1  0.1002087E-008  0.1308752E+03  0.7561462E-02  0.1118198E+00
         22   -1    0    0    0    0  0.00000000000E+00  0.00000000000E+00  0.12402302348E+04  0.12402302348E+04  0.00000000000E+00 0.  1.
         22   -1    0    0    0    0 -0.00000000000E+00 -0.00000000000E+00 -0.77344944072E+02  0.77344944072E+02  0.00000000000E+00 0.  1.
         24    2    1    2    0    0 -0.32753346769E+02  0.21388732216E+02 -0.37848197463E+02  0.97171272773E+02  0.80495407389E+02 0.  0.
         25    2    1    2    0    0  0.99635913951E+01 -0.30828694569E+02  0.59241399621E+03  0.60634319563E+03  0.12509215170E+03 0.  0.
        -24    2    1    2    0    0  0.22789755374E+02  0.94399623524E+01  0.60831949194E+03  0.61406071043E+03  0.80059140530E+02 0.  0.
        -13    1    3    3    0    0  0.24360342177E+02 -0.75051301843E+01 -0.10621065390E+02  0.27614494022E+02  0.00000000000E+00 0.  1.
         14    1    3    3    0    0 -0.57113688946E+02  0.28893862401E+02 -0.27227132072E+02  0.69556778751E+02  0.00000000000E+00 0. -1.
         13    1    5    5    0    0  0.28244630608E+02 -0.17562067887E+01  0.68736979326E+02  0.74334485586E+02  0.00000000000E+00 0. -1.
        -14    1    5    5    0    0 -0.54548752342E+01  0.11196169141E+02  0.53958251261E+03  0.53972622484E+03  0.00000000000E+00 0.  1.
          5    1    4    4  501    0 -0.39982560907E+02 -0.59250657842E+02  0.32844498365E+03  0.33615892866E+03  0.41800000000E+01 0.  1.
         -5    1    4    4    0  501  0.49946152302E+02  0.28421963273E+02  0.26396901256E+03  0.27018426697E+03  0.41800000000E+01 0.  1.
</event>
<event>
11    1  0.1002087E-008  0.1578023E+03  0.7561462E-02  0.1089163E+00
         22   -1    0    0    0    0  0.00000000000E+00  0.00000000000E+00  0.14012762708E+03  0.14012762708E+03  0.00000000000E+00 0. -1.
         22   -1    0    0    0    0 -0.00000000000E+00 -0.00000000000E+00 -0.67359541814E+03  0.67359541814E+03  0.00000000000E+00 0. -1.
        -24    2    1    2    0    0  0.12971636269E+02 -0.12401342780E+02 -0.52255270463E+03  0.52905248184E+03  0.80704044365E+02 0.  0.
         25    2    1    2    0    0  0.60312210305E+02  0.75397108324E+02 -0.14815901230E+02  0.15871153555E+03  0.12509018320E+03 0.  0.
         24    2    1    2    0    0 -0.73283846574E+02 -0.62995765543E+02  0.39008147999E+01  0.12595902782E+03  0.80693690517E+02 0.  0.
        -11    1    5    5    0    0 -0.39901217332E+02  0.10950236810E+02 -0.12422700361E+02  0.43201137890E+02  0.00000000000E+00 0.  1.
         12    1    5    5    0    0 -0.33382629242E+02 -0.73946002353E+02  0.16323515160E+02  0.82757889934E+02  0.00000000000E+00 0. -1.
         13    1    3    3    0    0  0.32213042280E+02  0.24504123774E+02 -0.22637189127E+03  0.22996166057E+03  0.00000000000E+00 0. -1.
        -14    1    3    3    0    0 -0.19241406010E+02 -0.36905466554E+02 -0.29618081336E+03  0.29909082127E+03  0.00000000000E+00 0.  1.
          5    1    4    4  501    0  0.23419873986E+02  0.10676828889E+03 -0.11549080940E+02  0.10999459841E+03  0.41800000000E+01 0.  1.
         -5    1    4    4    0  501  0.36892336319E+02 -0.31371180565E+02 -0.32668202904E+01  0.48716937136E+02  0.41800000000E+01 0.  1.
</event>
<event>
11    1  0.1002087E-008  0.1332568E+03  0.7561462E-02  0.1115331E+00
         22   -1    0    0    0    0  0.00000000000E+00  0.00000000000E+00  0.26285771341E+04  0.26285771341E+04  0.00000000000E+00 0. -1.
         22   -1    0    0    0    0 -0.00000000000E+00 -0.00000000000E+00 -0.10390065487E+03  0.10390065487E+03  0.00000000000E+00 0.  1.
        -24    2    1    2    0    0  0.59885405014E+01  0.45744000734E+02 -0.63489306869E+02  0.11043111094E+03  0.77690166408E+02 0.  0.
         25    2    1    2    0    0  0.14481359326E+02 -0.19944869405E+01  0.23146080545E+03  0.26350693450E+03  0.12509241513E+03 0.  0.
         24    2    1    2    0    0 -0.20469899828E+02 -0.43749513794E+02  0.23567049806E+04  0.23585397435E+04  0.79487856140E+02 0.  0.
        -11    1    5    5    0    0  0.10540451393E+01  0.99733458431E+01  0.44729556054E+02  0.45840067880E+02  0.00000000000E+00 0.  1.
         12    1    5    5    0    0 -0.21523944967E+02 -0.53722859637E+02  0.23119754246E+04  0.23126996757E+04  0.00000000000E+00 0. -1.
         11    1    3    3    0    0 -0.26617095735E+02  0.30930781776E+02 -0.40110756257E+01  0.41003314187E+02  0.00000000000E+00 0. -1.
        -12    1    3    3    0    0  0.32605636236E+02  0.14813218958E+02 -0.59478231243E+02  0.69427796754E+02  0.00000000000E+00 0.  1.
          5    1    4    4  501    0  0.24963981605E+02 -0.60309698011E+02  0.13887331309E+03  0.15350481928E+03  0.41800000000E+01 0. -1.
         -5    1    4    4    0  501 -0.10482622279E+02  0.58315211070E+02  0.92587492354E+02  0.11000211522E+03  0.41800000000E+01 0. -1.
</event>
<event>
11    1  0.1002087E-008  0.1757814E+03  0.7561462E-02  0.1073107E+00
         22   -1    0    0    0    0  0.00000000000E+00  0.00000000000E+00  0.73959965780E+03  0.73959965780E+03  0.00000000000E+00 0.  1.
         22   -1    0    0    0    0 -0.00000000000E+00 -0.00000000000E+00 -0.12996656761E+04  0.12996656761E+04  0.00000000000E+00 0. -1.
         24    2    1    2    0    0 -0.52835345617E+02  0.93611510614E+02 -0.11344731266E+04  0.11422278953E+04  0.78106345275E+02 0.  0.
         25    2    1    2    0    0  0.12318153226E+03 -0.18838174227E+03 -0.44739505620E+02  0.26136623305E+03  0.12509721702E+03 0.  0.
        -24    2    1    2    0    0 -0.70346186641E+02  0.94770231658E+02  0.61914661393E+03  0.63567120553E+03  0.82494661710E+02 0.  0.
        -13    1    3    3    0    0 -0.22528208959E+02  0.30599217804E+02 -0.13313012791E+03  0.13844660807E+03  0.00000000000E+00 0.  1.
         14    1    3    3    0    0 -0.30307136657E+02  0.63012292810E+02 -0.10013429987E+04  0.10037812872E+04  0.00000000000E+00 0. -1.
         11    1    5    5    0    0 -0.29472162108E+01  0.27563911453E+02  0.39467946572E+02  0.48230427166E+02  0.00000000000E+00 0. -1.
        -12    1    5    5    0    0 -0.67398970431E+02  0.67206320205E+02  0.57967866736E+03  0.58744077836E+03  0.00000000000E+00 0.  1.
          5    1    4    4  501    0  0.85763625060E+02 -0.80067290212E+02  0.34042526085E+02  0.12223966757E+03  0.41800000000E+01 0. -1.
         -5    1    4    4    0  501  0.37417907199E+02 -0.10831445206E+03 -0.78782031704E+02  0.13912656549E+03  0.41800000000E+01 0. -1.
</event>
<event>
11    1  0.1002087E-008  0.1521779E+03  0.7561462E-02  0.1094674E+00
         22   -1    0    0    0    0  0.00000000000E+00  0.00000000000E+00  0.14009994209E+04  0.14009994209E+04  0.00000000000E+00 0.  1.
         22   -1    0    0    0    0 -0.00000000000E+00 -0.00000000000E+00 -0.70047522672E+02  0.70047522672E+02  0.00000000000E+00 0.  1.
        -24    2    1    2    0    0  0.46680613033E+01  0.46623611738E+01 -0.17369388998E+02  0.81990373414E+02  0.79857355643E+02 0.  0.
         25    2    1    2    0    0 -0.13348642911E+02 -0.90022044107E+02  0.33639970023E+03  0.37026232391E+03  0.12508907028E+03 0.  0.
         24    2    1    2    0    0  0.86805816078E+01  0.85359682934E+02  0.10119215870E+04  0.10187942463E+04  0.81208312247E+02 0.  0.
        -13    1    5    5    0    0  0.21691041319E+02  0.88572203073E+02  0.97916896973E+03  0.98340602384E+03  0.00000000000E+00 0.  1.
         14    1    5    5    0    0 -0.13010459712E+02 -0.32125201394E+01  0.32752617304E+02  0.35388222445E+02  0.00000000000E+00 0. -1.
         11    1    3    3    0    0 -0.21476636212E+02  0.70821105644E+01  0.24010405366E+02  0.32983355785E+02  0.00000000000E+00 0. -1.
        -12    1    3    3    0    0  0.26144697515E+02 -0.24197493906E+01 -0.41379794363E+02  0.49007017628E+02  0.00000000000E+00 0.  1.
          5    1    4    4  501    0  0.27560185164E+02 -0.16573064800E+02  0.24042790741E+03  0.24260519645E+03  0.41800000000E+01 0.  1.
         -5    1    4    4    0  501 -0.40908828075E+02 -0.73448979307E+02  0.95971792816E+02  0.12765712746E+03  0.41800000000E+01 0.  1.
</event>
<event>
11    1  0.1002087E-008  0.1517923E+03  0.7561462E-02  0.1095061E+00
         22   -1    0    0    0    0  0.00000000000E+00  0.00000000000E+00  0.16177559394E+04  0.16177559394E+04  0.00000000000E+00 0.  1.
         22   -1    0    0    0    0 -0.00000000000E+00 -0.00000000000E+00 -0.14468879991E+04  0.14468879991E+04  0.00000000000E+00 0. -1.
         24    2    1    2    0    0  0.90709078590E+02 -0.81793744112E+01 -0.13044290569E+04  0.13100275787E+04  0.79637009444E+02 0.  0.
         25    2    1    2    0    0 -0.30678095779E+02  0.12468448202E+02 -0.10776751231E+03  0.16836147843E+03  0.12504056522E+03 0.  0.
        -24    2    1    2    0    0 -0.60030982811E+02 -0.42890737908E+01  0.15830645095E+04  0.15862548814E+04  0.80555523888E+02 0.  0.
        -11    1    3    3    0    0  0.70541423199E+02  0.11014883292E+02 -0.49526636800E+03  0.50038604628E+03  0.00000000000E+00 0.  1.
         12    1    3    3    0    0  0.20167655391E+02 -0.19194257703E+02 -0.80916268893E+03  0.80964153242E+03  0.00000000000E+00 0. -1.
         13    1    5    5    0    0 -0.45858906649E+02  0.24496706043E+02  0.49610309153E+03  0.49882001298E+03  0.00000000000E+00 0. -1.
        -14    1    5    5    0    0 -0.14172076162E+02 -0.28785779833E+02  0.10869614180E+04  0.10874348684E+04  0.00000000000E+00 0.  1.
          5    1    4    4  501    0  0.35473509010E+02 -0.21770823948E+02 -0.61231148646E+01  0.42276513012E+02  0.41800000000E+01 0.  1.
         -5    1    4    4    0  501 -0.66151604789E+02  0.34239272150E+02 -0.10164439744E+03  0.12608496542E+03  0.41800000000E+01 0.  1.
</event>
<event>
11    1  0.1002087E-008  0.2095754E+03  0.7561462E-02  0.1047952E+00
         22   -1    0    0    0    0  0.00000000000E+00  0.00000000000E+00  0.31348882487E+03  0.31348882487E+03  0.00000000000E+00 0.  1.
         22   -1    0    0    0    0 -0.00000000000E+00 -0.00000000000E+00 -0.68382990096E+03  0.68382990096E+03  0.00000000000E+00 0.  1.
         24    2    1    2    0    0  0.16455200042E+03  0.15671611629E+02 -0.53276034751E+03  0.56334054863E+03  0.78714837232E+02 0.  0.
         25    2    1    2    0    0 -0.19317059418E+03  0.45846856918E+02 -0.67967500985E+01  0.23475851253E+03  0.12509416712E+03 0.  0.
        -24    2    1    2    0    0  0.28618593763E+02 -0.61518468547E+02  0.16921602152E+03  0.19921966467E+03  0.80317289356E+02 0.  0.
        -13    1    3    3    0    0  0.15228421826E+03 -0.11926964636E+02 -0.45241459022E+03  0.47750570369E+03  0.00000000000E+00 0.  1.
         14    1    3    3    0    0  0.12267782160E+02  0.27598576265E+02 -0.80345757298E+02  0.85834844945E+02  0.00000000000E+00 0. -1.
         11    1    5    5    0    0  0.47197748250E+02 -0.19370764242E+02  0.50083544771E+02  0.71492764697E+02  0.00000000000E+00 0. -1.
        -12    1    5    5    0    0 -0.18579154486E+02 -0.42147704305E+02  0.11913247675E+03  0.12772689997E+03  0.00000000000E+00 0.  1.
          5    1    4    4  501    0 -0.18614956762E+02  0.56169539651E+02 -0.78967305213E+01  0.59844503113E+02  0.41800000000E+01 0. -1.
         -5    1    4    4    0  501 -0.17455563742E+03 -0.10322682733E+02  0.10999804227E+01  0.17491400942E+03  0.41800000000E+01 0. -1.
</event>
<event>
11    1  0.1002087E-008  0.3677005E+03  0.7561462E-02  0.9750181E-01
         22   -1    0    0    0    0  0.00000000000E+00  0.00000000000E+00  0.19103223461E+04  0.19103223461E+04  0.00000000000E+00 0.  1.
         22   -1    0    0    0    0 -0.00000000000E+00 -0.00000000000E+00 -0.35941722127E+03  0.35941722127E+03  0.00000000000E+00 0.  1.
        -24    2    1    2    0    0 -0.23035705294E+03  0.25315429049E+03 -0.22058600729E+03  0.41568283291E+03  0.83561739636E+02 0.  0.
         25    2    1    2    0    0  0.29579952272E+03 -0.25349389434E+03  0.11098886062E+04  0.11829020633E+04  0.12509221018E+03 0.  0.
         24    2    1    2    0    0 -0.65442469776E+02  0.33960384739E+00  0.66160252595E+03  0.67115467120E+03  0.91912230714E+02 0.  0.
        -13    1    5    5    0    0  0.66906540088E+01  0.28609089134E+02  0.99792338769E+02  0.10402766800E+03  0.00000000000E+00 0.  1.
         14    1    5    5    0    0 -0.72133123785E+02 -0.28269485286E+02  0.56181018718E+03  0.56712700320E+03  0.00000000000E+00 0. -1.
         13    1    3    3    0    0 -0.31706209939E+02  0.68654043144E+02 -0.19384234967E+02  0.78066701954E+02  0.00000000000E+00 0. -1.
        -14    1    3    3    0    0 -0.19865084300E+03  0.18450024735E+03 -0.20120177232E+03  0.33761613096E+03  0.00000000000E+00 0.  1.
          5    1    4    4  501    0  0.13809167655E+03 -0.40537036080E+02  0.40579302240E+03  0.43057869415E+03  0.41800000000E+01 0. -1.
         -5    1    4    4    0  501  0.15770784617E+03 -0.21295685826E+03  0.70409558377E+03  0.75232336911E+03  0.41800000000E+01 0. -1.
</event>
<event>
11    1  0.1002087E-008  0.1504794E+03  0.7561462E-02  0.1096390E+00
         22   -1    0    0    0    0  0.00000000000E+00  0.00000000000E+00  0.24224995813E+04  0.24224995813E+04  0.00000000000E+00 0.  1.
         22   -1    0    0    0    0 -0.00000000000E+00 -0.00000000000E+00 -0.14021999064E+03  0.14021999064E+03  0.00000000000E+00 0.  1.
        -24    2    1    2    0    0 -0.61830764552E+02 -0.58861470885E+02 -0.10355264264E+03  0.16033500403E+03  0.87729399399E+02 0.  0.
         25    2    1    2    0    0  0.64459643212E+02 -0.18072396782E+02  0.79578949034E+03  0.80833811041E+03  0.12509168912E+03 0.  0.
         24    2    1    2    0    0 -0.26288786598E+01  0.76933867666E+02  0.15900427430E+04  0.15940464575E+04  0.82598142766E+02 0.  0.
        -11    1    5    5    0    0 -0.15365517902E+02  0.59464327142E+02  0.15065067424E+04  0.15077581604E+04  0.00000000000E+00 0.  1.
         12    1    5    5    0    0  0.12736639243E+02  0.17469540524E+02  0.83536000568E+02  0.86288297098E+02  0.00000000000E+00 0. -1.
         11    1    3    3    0    0  0.12637051048E+02 -0.44085485027E+02 -0.46997461748E+02  0.65665717540E+02  0.00000000000E+00 0. -1.
        -12    1    3    3    0    0 -0.74467815601E+02 -0.14775985858E+02 -0.56555180895E+02  0.94669286490E+02  0.00000000000E+00 0.  1.
          5    1    4    4  501    0  0.34644887345E+01 -0.59117710639E+02  0.22039155618E+03  0.22824727124E+03  0.41800000000E+01 0.  1.
         -5    1    4    4    0  501  0.60995154478E+02  0.41045313857E+02  0.57539793416E+03  0.58009083917E+03  0.41800000000E+01 0.  1.
</event>
<event>
11    1  0.1002087E-008  0.1315546E+03  0.7561462E-02  0.1117373E+00
         22   -1    0    0    0    0  0.00000000000E+00  0.00000000000E+00  0.19782120558E+04  0.19782120558E+04  0.00000000000E+00 0.  1.
         22   -1    0    0    0    0 -0.00000000000E+00 -0.00000000000E+00 -0.28206604374E+03  0.28206604374E+03  0.00000000000E+00 0. -1.
         24    2    1    2    0    0  0.45477650987E+01  0.11872456314E+02 -0.25742158789E+03  0.26926343430E+03  0.77944119451E+02 0.  0.
         25    2    1    2    0    0 -0.43637992046E+02 -0.67574112110E+00  0.23168747322E+03  0.26689149267E+03  0.12508897888E+03 0.  0.
        -24    2    1    2    0    0  0.39090226948E+02 -0.11196715193E+02  0.17218801267E+04  0.17241231725E+04  0.77949542059E+02 0.  0.
        -13    1    3    3    0    0 -0.15709559361E+02 -0.26763396010E+02 -0.65973169637E+02  0.72907672664E+02  0.00000000000E+00 0.  1.
         14    1    3    3    0    0  0.20257324460E+02  0.38635852325E+02 -0.19144841825E+03  0.19635576164E+03  0.00000000000E+00 0. -1.
         13    1    5    5    0    0 -0.21800074795E+01 -0.89234529709E+01  0.23374256803E+02  0.25114464491E+02  0.00000000000E+00 0. -1.
        -14    1    5    5    0    0  0.41270234427E+02 -0.22732622221E+01  0.16985058699E+04  0.16990087080E+04  0.00000000000E+00 0.  1.
          5    1    4    4  501    0  0.10978296667E+02 -0.45214596506E+01  0.20579953368E+03  0.20618410962E+03  0.41800000000E+01 0. -1.
         -5    1    4    4    0  501 -0.54616288714E+02  0.38457185295E+01  0.25887939538E+02  0.60707383055E+02  0.41800000000E+01 0. -1.
</event>
<event>
11    1  0.1002087E-008  0.1621789E+03  0.7561462E-02  0.1085046E+00
         22   -1    0    0    0    0  0.00000000000E+00  0.00000000000E+00  0.13160668795E+04  0.13160668795E+04  0.00000000000E+00 0. -1.
         22   -1    0    0    0    0 -0.00000000000E+00 -0.00000000000E+00 -0.15049146921E+03  0.15049146921E+03  0.00000000000E+00 0.  1.
         24    2    1    2    0    0  0.18035528063E+02 -0.86750774506E+02 -0.71654831642E+02  0.13830171794E+03  0.78370741589E+02 0.  0.
         25    2    1    2    0    0  0.32094524083E+02 -0.11867727898E+02  0.59611459436E+02  0.14273048132E+03  0.12509021849E+03 0.  0.
        -24    2    1    2    0    0 -0.50130052146E+02  0.98618502404E+02  0.11776187825E+04  0.11855261495E+04  0.80297092005E+02 0.  0.
        -13    1    3    3    0    0  0.20179643856E+02 -0.91152963694E+01 -0.54412841385E+02  0.58745756967E+02  0.00000000000E+00 0.  1.
         14    1    3    3    0    0 -0.21441157928E+01 -0.77635478136E+02 -0.17241990257E+02  0.79555960971E+02  0.00000000000E+00 0. -1.
         13    1    5    5    0    0  0.17553664492E+01  0.73232025365E+02  0.82078620300E+03  0.82404854340E+03  0.00000000000E+00 0. -1.
        -14    1    5    5    0    0 -0.51885418596E+02  0.25386477038E+02  0.35683257952E+03  0.36147760606E+03  0.00000000000E+00 0.  1.
          5    1    4    4  501    0  0.19304052804E+02 -0.34398989453E+02 -0.29757780696E+02  0.49587648079E+02  0.41800000000E+01 0. -1.
         -5    1    4    4    0  501  0.12790471280E+02  0.22531261555E+02  0.89369240132E+02  0.93142833244E+02  0.41800000000E+01 0. -1.
</event>
<event>
11    1  0.1002087E-008  0.1603351E+03  0.7561462E-02  0.1086763E+00
         22   -1    0    0    0    0  0.00000000000E+00  0.00000000000E+00  0.57262742451E+03  0.57262742451E+03  0.00000000000E+00 0. -1.
         22   -1    0    0    0    0 -0.00000000000E+00 -0.00000000000E+00 -0.39516727517E+03  0.39516727517E+03  0.00000000000E+00 0.  1.
         24    2    1    2    0    0  0.54516717069E+02 -0.25891700967E+02 -0.30409573934E+03  0.32032294532E+03  0.80561268599E+02 0.  0.
         25    2    1    2    0    0 -0.13015242862E+03  0.81251972464E+02  0.59025202174E+02  0.20657285590E+03  0.12508729991E+03 0.  0.
        -24    2    1    2    0    0  0.75635711556E+02 -0.55360271497E+02  0.42253068650E+03  0.44089889846E+03  0.84107889648E+02 0.  0.
        -11    1    3    3    0    0  0.45601169809E+02 -0.22087695611E+02 -0.30623338220E+03  0.31039687073E+03  0.00000000000E+00 0.  1.
         12    1    3    3    0    0  0.89155472601E+01 -0.38040053557E+01  0.21376428678E+01  0.99260745879E+01  0.00000000000E+00 0. -1.
         13    1    5    5    0    0  0.71896331561E+02 -0.11135188764E+02  0.33440702397E+03  0.34222964892E+03  0.00000000000E+00 0. -1.
        -14    1    5    5    0    0  0.37393799951E+01 -0.44225082733E+02  0.88123662530E+02  0.98669249532E+02  0.00000000000E+00 0.  1.
          5    1    4    4  501    0 -0.19249496566E+02  0.19395976942E+02 -0.37798953253E+02  0.46829267628E+02  0.41800000000E+01 0. -1.
         -5    1    4    4    0  501 -0.11090293206E+03  0.61855995522E+02  0.96824155427E+02  0.15974358828E+03  0.41800000000E+01 0. -1.
</event>
<event>
11    1  0.1002087E-008  0.1429534E+03  0.7561462E-02  0.1104305E+00
         22   -1    0    0    0    0  0.00000000000E+00  0.00000000000E+00  0.72337628075E+03  0.72337628075E+03  0.00000000000E+00 0. -1.
         22   -1    0    0    0    0 -0.00000000000E+00 -0.00000000000E+00 -0.47986924509E+03  0.47986924509E+03  0.00000000000E+00 0.  1.
         24    2    1    2    0    0  0.30885983166E-01  0.10091120800E+01 -0.42374601537E+03  0.43080683378E+03  0.77671250951E+02 0.  0.
         25    2    1    2    0    0 -0.66963739869E+02  0.16534622652E+02  0.58771819569E+02  0.15447446500E+03  0.12510274721E+03 0.  0.
        -24    2    1    2    0    0  0.66932853886E+02 -0.17543734732E+02  0.60848123146E+03  0.61796422706E+03  0.82719933079E+02 0.  0.
        -11    1    3    3    0    0  0.13540891367E+02  0.34480116169E+02 -0.28686178951E+03  0.28924370422E+03  0.00000000000E+00 0.  1.
         12    1    3    3    0    0 -0.13510005384E+02 -0.33471004089E+02 -0.13688422586E+03  0.14156312956E+03  0.00000000000E+00 0. -1.
         11    1    5    5    0    0 -0.11689316903E+02  0.15195186697E+02  0.18592687050E+03  0.18691264003E+03  0.00000000000E+00 0. -1.
        -12    1    5    5    0    0  0.78622170789E+02 -0.32738921429E+02  0.42255436096E+03  0.43105158703E+03  0.00000000000E+00 0.  1.
          5    1    4    4  501    0 -0.26068521376E+02 -0.21881901699E+02  0.85547005245E+02  0.92163701831E+02  0.41800000000E+01 0. -1.
         -5    1    4    4    0  501 -0.40895218493E+02  0.38416524351E+02 -0.26775185677E+02  0.62310763170E+02  0.41800000000E+01 0. -1.
</event>
<event>
11    1  0.1002087E-008  0.1893887E+03  0.7561462E-02  0.1062292E+00
         22   -1    0    0    0    0  0.00000000000E+00  0.00000000000E+00  0.39813642094E+03  0.39813642094E+03  0.00000000000E+00 0.  1.
         22   -1    0    0    0    0 -0.00000000000E+00 -0.00000000000E+00 -0.39574814940E+03  0.39574814940E+03  0.00000000000E+00 0.  1.
         24    2    1    2    0    0 -0.69372352575E+01  0.23971143002E+02 -0.27614882302E+03  0.28997627730E+03  0.84884203568E+02 0.  0.
         25    2    1    2    0    0  0.26224234689E+02 -0.15976707513E+03  0.26929149162E+02  0.20636520005E+03  0.12509271737E+03 0.  0.
        -24    2    1    2    0    0 -0.19286999432E+02  0.13579593212E+03  0.25160794539E+03  0.29754309298E+03  0.80080025411E+02 0.  0.
        -11    1    3    3    0    0 -0.42925727082E+02  0.62253760029E+01 -0.19076393298E+03  0.19563295090E+03  0.00000000000E+00 0.  1.
         12    1    3    3    0    0  0.35988491825E+02  0.17745767000E+02 -0.85384890033E+02  0.94343326400E+02  0.00000000000E+00 0. -1.
         13    1    5    5    0    0 -0.32837614364E+02  0.26252523627E+02  0.11161080751E+03  0.11926640880E+03  0.00000000000E+00 0. -1.
        -14    1    5    5    0    0  0.13550614933E+02  0.10954340850E+03  0.13999713788E+03  0.17827668419E+03  0.00000000000E+00 0.  1.
          5    1    4    4  501    0 -0.99508931296E+01 -0.67695710014E+02  0.70372719565E+02  0.98242157384E+02  0.41800000000E+01 0. -1.
         -5    1    4    4    0  501  0.36175127819E+02 -0.92071365112E+02 -0.43443570403E+02  0.10812304267E+03  0.41800000000E+01 0. -1.
</event>
<event>
11    1  0.1002087E-008  0.1519176E+03  0.7561462E-02  0.1094935E+00
         22   -1    0    0    0    0  0.00000000000E+00  0.00000000000E+00  0.37605243570E+03  0.37605243570E+03  0.00000000000E+00 0.  1.
         22   -1    0    0    0    0 -0.00000000000E+00 -0.00000000000E+00 -0.66455911925E+03  0.66455911925E+03  0.00000000000E+00 0.  1.
        -24    2    1    2    0    0  0.65119890170E+02  0.56549858721E+02 -0.59670018311E+03  0.60762673537E+03  0.75635007691E+02 0.  0.
         25    2    1    2    0    0 -0.48137183734E+02 -0.74646326629E+02  0.43760325905E+02  0.15953527623E+03  0.12508907107E+03 0.  0.
         24    2    1    2    0    0 -0.16982706435E+02  0.18096467908E+02  0.26443317367E+03  0.27344954335E+03  0.65068079386E+02 0.  0.
        -13    1    5    5    0    0 -0.31436302329E+02  0.15488336649E+02  0.25134697297E+03  0.25377830974E+03  0.00000000000E+00 0.  1.
         14    1    5    5    0    0  0.14453595893E+02  0.26081312591E+01  0.13086200699E+02  0.19671233608E+02  0.00000000000E+00 0. -1.
         13    1    3    3    0    0  0.57063722619E+02  0.39995470559E+02 -0.22668813254E+03  0.23715694284E+03  0.00000000000E+00 0. -1.
        -14    1    3    3    0    0  0.80561675508E+01  0.16554388162E+02 -0.37001205058E+03  0.37046979253E+03  0.00000000000E+00 0.  1.
          5    1    4    4  501    0 -0.25652382059E+02 -0.10218926631E+03  0.32776486393E+01  0.10549363126E+03  0.41800000000E+01 0. -1.
         -5    1    4    4    0  501 -0.22484801675E+02  0.27542939684E+02  0.40482677265E+02  0.54041644973E+02  0.41800000000E+01 0. -1.
</event>
<event>
11    1  0.1002087E-008  0.1479402E+03  0.7561462E-02  0.1099002E+00
         22   -1    0    0    0    0  0.00000000000E+00  0.00000000000E+00  0.19520111587E+04  0.19520111587E+04  0.00000000000E+00 0.  1.
         22   -1    0    0    0    0 -0.00000000000E+00 -0.00000000000E+00 -0.10222554431E+04  0.10222554431E+04  0.00000000000E+00 0.  1.
         24    2    1    2    0    0 -0.44351641997E+02 -0.58478603648E+01 -0.92752310956E+03  0.93214440594E+03  0.81196115284E+02 0.  0.
         25    2    1    2    0    0 -0.21723897273E+02 -0.38711440273E+02 -0.42244724954E+02  0.13929580074E+03  0.12509276557E+03 0.  0.
        -24    2    1    2    0    0  0.66075539271E+02  0.44559300637E+02  0.18995235501E+04  0.19028263951E+04  0.78784924718E+02 0.  0.
        -13    1    3    3    0    0  0.58699649846E+01  0.17182924186E+02 -0.57768103614E+03  0.57796633889E+03  0.00000000000E+00 0.  1.
         14    1    3    3    0    0 -0.50221606982E+02 -0.23030784551E+02 -0.34984207342E+03  0.35417806705E+03  0.00000000000E+00 0. -1.
         11    1    5    5    0    0  0.17258526866E+02 -0.19473582389E+02  0.76847408503E+03  0.76891449233E+03  0.00000000000E+00 0. -1.
        -12    1    5    5    0    0  0.48817012405E+02  0.64032883027E+02  0.11310494651E+04  0.11339119028E+04  0.00000000000E+00 0.  1.
          5    1    4    4  501    0 -0.82145815565E+01 -0.75743432881E+02 -0.58807533719E+02  0.96334549342E+02  0.41800000000E+01 0.  1.
         -5    1    4    4    0  501 -0.13509315717E+02  0.37031992608E+02  0.16562808765E+02  0.42961251400E+02  0.41800000000E+01 0.  1.
</event>
<event>
11    1  0.1243422E-008  0.1739862E+03  0.7561462E-02  0.1074614E+00
         22   -1    0    0    0    0  0.00000000000E+00  0.00000000000E+00  0.26313945413E+03  0.26313945413E+03  0.00000000000E+00 0. -1.
         22   -1    0    0    0    0 -0.00000000000E+00 -0.00000000000E+00 -0.22223531271E+04  0.22223531271E+04  0.00000000000E+00 0.  1.
        -24    2    1    2    0    0 -0.27571844446E+02 -0.16755405978E+02 -0.14991615331E+04  0.15020962127E+04  0.88129335760E+02 0.  0.
         25    2    1    2    0    0 -0.71773631537E+01 -0.99846674808E+02 -0.69032005260E+03  0.70866683448E+03  0.12508410875E+03 0.  0.
         24    2    1    2    0    0  0.34749207600E+02  0.11660208079E+03  0.23026791266E+03  0.27472953405E+03  0.87461149127E+02 0.  0.
        -13    1    5    5    0    0 -0.26752233513E+02  0.39661598617E+02  0.10490691189E+03  0.11530041008E+03  0.00000000000E+00 0.  1.
         14    1    5    5    0    0  0.61501441114E+02  0.76940482170E+02  0.12536100077E+03  0.15942912397E+03  0.00000000000E+00 0. -1.
         11    1    3    3    0    0 -0.42386601406E+02  0.18119473530E+02 -0.47438694194E+03  0.47662134864E+03  0.00000000000E+00 0. -1.
        -12    1    3    3    0    0  0.14814756960E+02 -0.34874879508E+02 -0.10247745911E+04  0.10254748641E+04  0.00000000000E+00 0.  1.
          5    1    4    4  501    0 -0.29105707926E+02 -0.20856417850E+02 -0.42776060241E+02  0.55941005794E+02  0.41800000000E+01 0. -1.
         -5    1    4    4    0  501  0.21928344773E+02 -0.78990256958E+02 -0.64754399235E+03  0.65272582869E+03  0.41800000000E+01 0. -1.
</event>
<event>
11    1  0.1002087E-008  0.2170251E+03  0.7561462E-02  0.1043097E+00
         22   -1    0    0    0    0  0.00000000000E+00  0.00000000000E+00  0.24255112151E+03  0.24255112151E+03  0.00000000000E+00 0. -1.
         22   -1    0    0    0    0 -0.00000000000E+00 -0.00000000000E+00 -0.25630087525E+04  0.25630087525E+04  0.00000000000E+00 0. -1.
        -24    2    1    2    0    0  0.13903442406E+03 -0.10346376874E+03 -0.22171554520E+04  0.22253645981E+04  0.80212055316E+02 0.  0.
         25    2    1    2    0    0 -0.19742352204E+03  0.11740334212E+03 -0.27649779981E+03  0.38060268155E+03  0.12509107126E+03 0.  0.
         24    2    1    2    0    0  0.58389097980E+02 -0.13939573383E+02  0.17319562078E+03  0.19959259434E+03  0.78973933603E+02 0.  0.
        -13    1    5    5    0    0 -0.12528921399E+02  0.15552364513E+02  0.20230183186E+02  0.28427279594E+02  0.00000000000E+00 0.  1.
         14    1    5    5    0    0  0.70918019379E+02 -0.29491937896E+02  0.15296543760E+03  0.17116531475E+03  0.00000000000E+00 0. -1.
         11    1    3    3    0    0  0.65252148196E+02 -0.67840193414E+02 -0.16039748013E+04  0.16067343582E+04  0.00000000000E+00 0. -1.
        -12    1    3    3    0    0  0.73782275866E+02 -0.35623575326E+02 -0.61318065065E+03  0.61863023987E+03  0.00000000000E+00 0.  1.
          5    1    4    4  501    0 -0.18094403408E+03  0.14291121050E+03 -0.24952005343E+03  0.33976769566E+03  0.41800000000E+01 0.  1.
         -5    1    4    4    0  501 -0.16479487964E+02 -0.25507868377E+02 -0.26977746382E+02  0.40834985889E+02  0.41800000000E+01 0.  1.
</event>
<event>
11    1  0.1002087E-008  0.1378339E+03  0.7561462E-02  0.1110002E+00
         22   -1    0    0    0    0  0.00000000000E+00  0.00000000000E+00  0.41269408734E+03  0.41269408734E+03  0.00000000000E+00 0.  1.
         22   -1    0    0    0    0 -0.00000000000E+00 -0.00000000000E+00 -0.35590896162E+03  0.35590896162E+03  0.00000000000E+00 0. -1.
        -24    2    1    2    0    0 -0.79992726822E+01 -0.27636996927E+02 -0.27772491213E+03  0.29039525813E+03  0.79815331607E+02 0.  0.
         25    2    1    2    0    0  0.32614995448E+01  0.82504534729E+02  0.22936352868E+02  0.15162852667E+03  0.12508996038E+03 0.  0.
         24    2    1    2    0    0  0.47377731373E+01 -0.54867537803E+02  0.31157368498E+03  0.32657926416E+03  0.80888574035E+02 0.  0.
        -13    1    5    5    0    0  0.27349845986E+02 -0.91655495127E+01  0.21900224219E+03  0.22089364739E+03  0.00000000000E+00 0.  1.
         14    1    5    5    0    0 -0.22612072848E+02 -0.45701988290E+02  0.92571442797E+02  0.10568561678E+03  0.00000000000E+00 0. -1.
         13    1    3    3    0    0  0.98926761265E+00  0.16110747304E+01 -0.24708911659E+03  0.24709634912E+03  0.00000000000E+00 0. -1.
        -14    1    3    3    0    0 -0.89885402948E+01 -0.29248071657E+02 -0.30635795544E+02  0.43298909004E+02  0.00000000000E+00 0.  1.
          5    1    4    4  501    0 -0.10550419431E+02  0.10852723063E+03  0.41287467235E+02  0.11666875541E+03  0.41800000000E+01 0. -1.
         -5    1    4    4    0  501  0.13811918976E+02 -0.26022695903E+02 -0.18351114367E+02  0.34959771258E+02  0.41800000000E+01 0. -1.
</event>
<event>
11    1  0.1002087E-008  0.2050606E+03  0.7561462E-02  0.1051002E+00
         22   -1    0    0    0    0  0.00000000000E+00  0.00000000000E+00  0.99569318051E+03  0.99569318051E+03  0.00000000000E+00 0.  1.
         22   -1    0    0    0    0 -0.00000000000E+00 -0.00000000000E+00 -0.55585966131E+03  0.55585966131E+03  0.00000000000E+00 0. -1.
         24    2    1    2    0    0 -0.14873704114E+02  0.14618412102E+02 -0.41499277059E+03  0.42352141678E+03  0.81954046803E+02 0.  0.
         25    2    1    2    0    0  0.57476254202E+02 -0.17019357612E+03 -0.33750375810E+02  0.22148426579E+03  0.12508724545E+03 0.  0.
        -24    2    1    2    0    0 -0.42602550088E+02  0.15557516402E+03  0.88857666560E+03  0.90654715924E+03  0.78997799682E+02 0.  0.
        -13    1    3    3    0    0  0.21883022722E+02  0.27755174586E+02 -0.98864055060E+02  0.10499198914E+03  0.00000000000E+00 0.  1.
         14    1    3    3    0    0 -0.36756726836E+02 -0.13136762484E+02 -0.31612871553E+03  0.31852942765E+03  0.00000000000E+00 0. -1.
         13    1    5    5    0    0  0.96012261740E+01  0.34764069215E+02  0.86073505213E+02  0.93324018088E+02  0.00000000000E+00 0. -1.
        -14    1    5    5    0    0 -0.52203776262E+02  0.12081109480E+03  0.80250316039E+03  0.81322314116E+03  0.00000000000E+00 0.  1.
          5    1    4    4  501    0  0.12290369634E+02 -0.15026525578E+03  0.15492325824E+02  0.15161855045E+03  0.41800000000E+01 0. -1.
         -5    1    4    4    0  501  0.45185884568E+02 -0.19928320341E+02 -0.49242701634E+02  0.69865715340E+02  0.41800000000E+01 0. -1.
</event>
<event>
11    1  0.1002087E-008  0.1317210E+03  0.7561462E-02  0.1117172E+00
         22   -1    0    0    0    0  0.00000000000E+00  0.00000000000E+00  0.27338202822E+04  0.27338202822E+04  0.00000000000E+00 0. -1.
         22   -1    0    0    0    0 -0.00000000000E+00 -0.00000000000E+00 -0.52940016575E+02  0.52940016575E+02  0.00000000000E+00 0. -1.
         24    2    1    2    0    0  0.35915451371E+02  0.19321071699E+02 -0.22966540181E+01  0.90995936810E+02  0.81312744619E+02 0.  0.
         25    2    1    2    0    0 -0.37553104854E+02 -0.36886266025E+02  0.85075350984E+03  0.86151006342E+03  0.12508885866E+03 0.  0.
        -24    2    1    2    0    0  0.16376534839E+01  0.17565194326E+02  0.18324234098E+04  0.18342542985E+04  0.80012880094E+02 0.  0.
        -13    1    3    3    0    0  0.22002325018E+02 -0.10568258957E+02  0.34068839220E+02  0.41910335352E+02  0.00000000000E+00 0.  1.
         14    1    3    3    0    0  0.13913126353E+02  0.29889330656E+02 -0.36365493238E+02  0.49085601458E+02  0.00000000000E+00 0. -1.
         11    1    5    5    0    0 -0.23170898813E+02  0.37017798204E+02  0.14010369947E+04  0.14017174710E+04  0.00000000000E+00 0. -1.
        -12    1    5    5    0    0  0.24808552297E+02 -0.19452603878E+02  0.43138641508E+03  0.43253682754E+03  0.00000000000E+00 0.  1.
          5    1    4    4  501    0 -0.76493394939E+02  0.35865289113E+01  0.57252339295E+03  0.57763709242E+03  0.41800000000E+01 0.  1.
         -5    1    4    4    0  501  0.38940290084E+02 -0.40472794936E+02  0.27823011689E+03  0.28387297100E+03  0.41800000000E+01 0.  1.
</event>
<event>
11    1  0.1002087E-008  0.3038811E+03  0.7561462E-02  0.9985619E-01
         22   -1    0    0    0    0  0.00000000000E+00  0.00000000000E+00  0.15554184992E+04  0.15554184992E+04  0.00000000000E+00 0.  1.
         22   -1    0    0    0    0 -0.00000000000E+00 -0.00000000000E+00 -0.23625331818E+03  0.23625331818E+03  0.00000000000E+00 0.  1.
         24    2    1    2    0    0  0.59640640963E+02 -0.19444493124E+03 -0.95303139268E+02  0.24157631709E+03  0.88941504834E+02 0.  0.
         25    2    1    2    0    0  0.16358914448E+03  0.30813021854E+03  0.81165835248E+03  0.89226851068E+03  0.12509266263E+03 0.  0.
        -24    2    1    2    0    0 -0.22322978544E+03 -0.11368528729E+03  0.60280996782E+03  0.65782698961E+03  0.81244133956E+02 0.  0.
        -13    1    3    3    0    0  0.25533726497E+02 -0.62813578687E+02  0.11366677663E+02  0.68751132481E+02  0.00000000000E+00 0.  1.
         14    1    3    3    0    0  0.34106914466E+02 -0.13163135256E+03 -0.10666981693E+03  0.17282518461E+03  0.00000000000E+00 0. -1.
         13    1    5    5    0    0 -0.14057791089E+03 -0.98043729046E+02  0.47349773996E+03  0.50356214272E+03  0.00000000000E+00 0. -1.
        -14    1    5    5    0    0 -0.82651874555E+02 -0.15641558248E+02  0.12931222786E+03  0.15426484689E+03  0.00000000000E+00 0.  1.
          5    1    4    4  501    0  0.25591061116E+02  0.12398475305E+03  0.18094712620E+03  0.22087656344E+03  0.41800000000E+01 0. -1.
         -5    1    4    4    0  501  0.13799808336E+03  0.18414546549E+03  0.63071122627E+03  0.67139194724E+03  0.41800000000E+01 0. -1.
</event>
<event>
11    1  0.1002087E-008  0.1302285E+03  0.7561462E-02  0.1118989E+00
         22   -1    0    0    0    0  0.00000000000E+00  0.00000000000E+00  0.90592507437E+03  0.90592507437E+03  0.00000000000E+00 0.  1.
         22   -1    0    0    0    0 -0.00000000000E+00 -0.00000000000E+00 -0.11779268025E+04  0.11779268025E+04  0.00000000000E+00 0.  1.
         24    2    1    2    0    0 -0.38803292162E+02 -0.19405686961E+02 -0.11267488284E+04  0.11304651560E+04  0.80661455966E+02 0.  0.
         25    2    1    2    0    0  0.12415852547E+02  0.45203243917E+02  0.48813709917E+02  0.14222547918E+03  0.12509125468E+03 0.  0.
        -24    2    1    2    0    0  0.26387439614E+02 -0.25797556956E+02  0.80593339035E+03  0.81116124168E+03  0.84214721994E+02 0.  0.
        -11    1    3    3    0    0 -0.22905946392E+02 -0.94773393638E+01 -0.10772720394E+04  0.10775572139E+04  0.00000000000E+00 0.  1.
         12    1    3    3    0    0 -0.15897345770E+02 -0.99283475970E+01 -0.49476788928E+02  0.52907942043E+02  0.00000000000E+00 0. -1.
         13    1    5    5    0    0  0.27736019322E+02 -0.48638868209E+02  0.33298191227E+03  0.33765660096E+03  0.00000000000E+00 0. -1.
        -14    1    5    5    0    0 -0.13485797079E+01  0.22841311252E+02  0.47295147808E+03  0.47350464072E+03  0.00000000000E+00 0.  1.
          5    1    4    4  501    0 -0.40436273340E+02  0.48054807789E+02 -0.91679807357E+01  0.63607240343E+02  0.41800000000E+01 0.  1.
         -5    1    4    4    0  501  0.52852125887E+02 -0.28515638714E+01  0.57981690653E+02  0.78618238840E+02  0.41800000000E+01 0.  1.
</event>
<event>
11    1  0.1002087E-008  0.1780190E+03  0.7561462E-02  0.1071257E+00
         22   -1    0    0    0    0  0.00000000000E+00  0.00000000000E+00  0.12212992169E+03  0.12212992169E+03  0.00000000000E+00 0.  1.
         22   -1    0    0    0    0 -0.00000000000E+00 -0.00000000000E+00 -0.11563602621E+04  0.11563602621E+04  0.00000000000E+00 0. -1.
        -24    2    1    2    0    0 -0.63695843397E+01  0.14998209640E+02 -0.78238960225E+03  0.78681853591E+03  0.81758185235E+02 0.  0.
         25    2    1    2    0    0  0.10630210517E+03  0.63901077339E+02 -0.28730541835E+03  0.33700969507E+03  0.12509055085E+03 0.  0.
         24    2    1    2    0    0 -0.99932520831E+02 -0.78899286979E+02  0.35464680193E+02  0.15466195279E+03  0.80317930089E+02 0.  0.
        -13    1    5    5    0    0 -0.53058881565E+02  0.34712352411E+01  0.26656357369E+02  0.59479877061E+02  0.00000000000E+00 0.  1.
         14    1    5    5    0    0 -0.46873639267E+02 -0.82370522221E+02  0.88083228240E+01  0.95182075728E+02  0.00000000000E+00 0. -1.
         13    1    3    3    0    0 -0.39428633761E+01  0.48688433141E+02 -0.40981463436E+03  0.41271557304E+03  0.00000000000E+00 0. -1.
        -14    1    3    3    0    0 -0.24267209636E+01 -0.33690223500E+02 -0.37257496789E+03  0.37410296287E+03  0.00000000000E+00 0.  1.
          5    1    4    4  501    0  0.87531925820E+02  0.61853575203E+02 -0.93652894211E+02  0.14239395983E+03  0.41800000000E+01 0.  1.
         -5    1    4    4    0  501  0.18770179351E+02  0.20475021359E+01 -0.19365252414E+03  0.19461573524E+03  0.41800000000E+01 0.  1.
</event>
<event>
11    1  0.1002087E-008  0.1811222E+03  0.7561462E-02  0.1068739E+00
         22   -1    0    0    0    0  0.00000000000E+00  0.00000000000E+00  0.32863765222E+04  0.32863765222E+04  0.00000000000E+00 0. -1.
         22   -1    0    0    0    0 -0.00000000000E+00 -0.00000000000E+00 -0.37868538315E+03  0.37868538315E+03  0.00000000000E+00 0. -1.
        -24    2    1    2    0    0  0.52963845551E+02 -0.49033703902E+02 -0.32699278796E+03  0.34537659415E+03  0.84564977131E+02 0.  0.
         25    2    1    2    0    0  0.72694532401E+02  0.91192759287E+02  0.13971645093E+03  0.22083378250E+03  0.12508500488E+03 0.  0.
         24    2    1    2    0    0 -0.12565837795E+03 -0.42159055385E+02  0.30949674761E+04  0.30988515287E+04  0.80558705808E+02 0.  0.
        -13    1    5    5    0    0 -0.10152650429E+03  0.54581051586E+01  0.20655666930E+04  0.20680675002E+04  0.00000000000E+00 0.  1.
         14    1    5    5    0    0 -0.24131873665E+02 -0.47617160544E+02  0.10294007831E+04  0.10307840286E+04  0.00000000000E+00 0. -1.
         11    1    3    3    0    0  0.64756843982E+02 -0.50253844284E+01 -0.21042707052E+03  0.22022319437E+03  0.00000000000E+00 0. -1.
        -12    1    3    3    0    0 -0.11792998431E+02 -0.44008319473E+02 -0.11656571743E+03  0.12515339978E+03  0.00000000000E+00 0.  1.
          5    1    4    4  501    0  0.30259218329E+02  0.16304985939E+02 -0.19538286898E+02  0.39757891232E+02  0.41800000000E+01 0.  1.
         -5    1    4    4    0  501  0.42435314072E+02  0.74887773349E+02  0.15925473782E+03  0.18107589126E+03  0.41800000000E+01 0.  1.
</event>
<event>
11    1  0.1002087E-008  0.4790806E+03  0.7561462E-02  0.9441521E-01
         22   -1    0    0    0    0  0.00000000000E+00  0.00000000000E+00  0.12099878819E+04  0.12099878819E+04  0.00000000000E+00 0.  1.
         22   -1    0    0    0    0 -0.00000000000E+00 -0.00000000000E+00 -0.47421587398E+02  0.47421587398E+02  0.00000000000E+00 0.  1.
         24    2    1    2    0    0  0.77440383513E+02  0.50003804856E+02  0.27916654441E+03  0.30488351478E+03  0.80762643409E+02 0.  0.
         25    2    1    2    0    0 -0.16890137647E+03 -0.75997801603E+02  0.46243129307E+03  0.51361079112E+03  0.12509997253E+03 0.  0.
        -24    2    1    2    0    0  0.91460992960E+02  0.25993996747E+02  0.42096845701E+03  0.43891516338E+03  0.79945467315E+02 0.  0.
        -13    1    3    3    0    0 -0.59819473338E+01 -0.83982984144E+01  0.85093442860E+02  0.85715862755E+02  0.00000000000E+00 0.  1.
         14    1    3    3    0    0  0.83422330847E+02  0.58402103270E+02  0.19407310155E+03  0.21916765203E+03  0.00000000000E+00 0. -1.
         11    1    5    5    0    0  0.51723202965E+00 -0.13455289824E+02  0.14606275206E+03  0.14668210488E+03  0.00000000000E+00 0. -1.
        -12    1    5    5    0    0  0.90943760931E+02  0.39449286571E+02  0.27490570496E+03  0.29223305850E+03  0.00000000000E+00 0.  1.
          5    1    4    4  501    0 -0.11614444161E+03 -0.74168844793E+02  0.18254431973E+03  0.22875849694E+03  0.41800000000E+01 0.  1.
         -5    1    4    4    0  501 -0.52756934863E+02 -0.18289568098E+01  0.27988697334E+03  0.28485229419E+03  0.41800000000E+01 0.  1.
</event>
<event>
11    1  0.1002087E-008  0.1305674E+03  0.7561462E-02  0.1118574E+00
         22   -1    0    0    0    0  0.00000000000E+00  0.00000000000E+00  0.79341339814E+03  0.79341339814E+03  0.00000000000E+00 0. -1.
         22   -1    0    0    0    0 -0.00000000000E+00 -0.00000000000E+00 -0.55559956163E+03  0.55559956163E+03  0.00000000000E+00 0.  1.
         24    2    1    2    0    0 -0.12524371572E+02 -0.34995280554E+02 -0.50869202522E+03  0.51595123278E+03  0.77823958643E+02 0.  0.
         25    2    1    2    0    0  0.41467302832E+02  0.32719823147E+02  0.72590940489E+02  0.15397244930E+03  0.12509175221E+03 0.  0.
        -24    2    1    2    0    0 -0.28942931260E+02  0.22754574075E+01  0.67391492124E+03  0.67908927769E+03  0.78473275882E+02 0.  0.
        -13    1    3    3    0    0 -0.33372519537E+02 -0.49869685325E+02 -0.32654534564E+03  0.33201291140E+03  0.00000000000E+00 0.  1.
         14    1    3    3    0    0  0.20848147966E+02  0.14874404771E+02 -0.18214667957E+03  0.18393832137E+03  0.00000000000E+00 0. -1.
         13    1    5    5    0    0 -0.51988005877E+02 -0.40890708868E+01  0.30711123960E+03  0.31150728200E+03  0.00000000000E+00 0. -1.
        -14    1    5    5    0    0  0.23045074617E+02  0.63645282943E+01  0.36680368165E+03  0.36758199569E+03  0.00000000000E+00 0.  1.
          5    1    4    4  501    0  0.23598194339E+02 -0.39955494566E+02  0.63070861614E+02  0.78413789010E+02  0.41800000000E+01 0.  1.
         -5    1    4    4    0  501  0.17869108493E+02  0.72675317713E+02  0.95200788748E+01  0.75558660290E+02  0.41800000000E+01 0.  1.
</event>
<event>
11    1  0.1002087E-008  0.1328331E+03  0.7561462E-02  0.1115836E+00
         22   -1    0    0    0    0  0.00000000000E+00  0.00000000000E+00  0.11468081962E+04  0.11468081962E+04  0.00000000000E+00 0.  1.
         22   -1    0    0    0    0 -0.00000000000E+00 -0.00000000000E+00 -0.66203038061E+03  0.66203038061E+03  0.00000000000E+00 0. -1.
        -24    2    1    2    0    0 -0.19009032440E+02 -0.43225792841E+02 -0.43162876753E+03  0.44067522798E+03  0.75242614974E+02 0.  0.
         25    2    1    2    0    0  0.35067418019E+02  0.20399136154E+02 -0.20497137330E+03  0.24352581225E+03  0.12508280775E+03 0.  0.
         24    2    1    2    0    0 -0.16058385579E+02  0.22826656686E+02  0.11213779564E+04  0.11246375366E+04  0.80883493606E+02 0.  0.
        -13    1    5    5    0    0 -0.61249357493E+01 -0.27894574442E+02  0.60648148525E+03  0.60715353418E+03  0.00000000000E+00 0.  1.
         14    1    5    5    0    0 -0.99334498302E+01  0.50721231129E+02  0.51489647119E+03  0.51748400242E+03  0.00000000000E+00 0. -1.
         13    1    3    3    0    0 -0.23074769415E+02 -0.45670203664E+02 -0.43277933213E+03  0.43579371588E+03  0.00000000000E+00 0. -1.
        -14    1    3    3    0    0  0.40657369750E+01  0.24444108229E+01  0.11505645948E+01  0.48815120923E+01  0.00000000000E+00 0.  1.
          5    1    4    4  501    0 -0.13904934695E+01 -0.51001396391E+02 -0.82238209802E+02  0.96869352518E+02  0.41800000000E+01 0. -1.
         -5    1    4    4    0  501  0.36457911489E+02  0.71400532545E+02 -0.12273316350E+03  0.14665645973E+03  0.41800000000E+01 0. -1.
</event>
<event>
11    1  0.1002087E-008  0.1666846E+03  0.7561462E-02  0.1080953E+00
         22   -1    0    0    0    0  0.00000000000E+00  0.00000000000E+00  0.11034252447E+03  0.11034252447E+03  0.00000000000E+00 0. -1.
         22   -1    0    0    0    0 -0.00000000000E+00 -0.00000000000E+00 -0.21143501954E+04  0.21143501954E+04  0.00000000000E+00 0. -1.
        -24    2    1    2    0    0 -0.56483308476E+02 -0.93570139823E+02 -0.19364200333E+04  0.19411666801E+04  0.80372876813E+02 0.  0.
         25    2    1    2    0    0  0.60366092750E+02  0.11745357582E+03 -0.81741124026E+02  0.19941882599E+03  0.12508736616E+03 0.  0.
         24    2    1    2    0    0 -0.38827842745E+01 -0.23883435998E+02  0.14153486385E+02  0.84107213799E+02  0.79298220077E+02 0.  0.
        -13    1    5    5    0    0 -0.30572207082E+02  0.14128960357E+02  0.16697617812E+02  0.37591193213E+02  0.00000000000E+00 0.  1.
         14    1    5    5    0    0  0.26689422807E+02 -0.38012396355E+02 -0.25441314270E+01  0.46516020586E+02  0.00000000000E+00 0. -1.
         13    1    3    3    0    0 -0.70168577450E+02 -0.55981761548E+02 -0.15712970956E+04  0.15738589993E+04  0.00000000000E+00 0. -1.
        -14    1    3    3    0    0  0.13685268974E+02 -0.37588378276E+02 -0.36512293772E+03  0.36730768086E+03  0.00000000000E+00 0.  1.
          5    1    4    4  501    0  0.56208492332E+02  0.90934177923E+02 -0.11460450225E+03  0.15678036759E+03  0.41800000000E+01 0.  1.
         -5    1    4    4    0  501  0.41576004178E+01  0.26519397898E+02  0.32863378227E+02  0.42638458398E+02  0.41800000000E+01 0.  1.
</event>
<event>
11    1  0.1002087E-008  0.2245200E+03  0.7561462E-02  0.1038422E+00
         22   -1    0    0    0    0  0.00000000000E+00  0.00000000000E+00  0.28557068103E+03  0.28557068103E+03  0.00000000000E+00 0.  1.
         22   -1    0    0    0    0 -0.00000000000E+00 -0.00000000000E+00 -0.55375598936E+03  0.55375598936E+03  0.00000000000E+00 0.  1.
        -24    2    1    2    0    0 -0.71167747154E+02  0.20399771285E+03 -0.40895924866E+03  0.46927249783E+03  0.79303814967E+02 0.  0.
         25    2    1    2    0    0  0.50093148295E+02 -0.96610421986E+02 -0.58722213841E+01  0.16590156117E+03  0.12508376343E+03 0.  0.
         24    2    1    2    0    0  0.21074598859E+02 -0.10738729087E+03  0.14664616171E+03  0.20415261138E+03  0.90537412331E+02 0.  0.
        -13    1    5    5    0    0  0.51154592936E+02 -0.97447800313E+02  0.11917847879E+03  0.16222322883E+03  0.00000000000E+00 0.  1.
         14    1    5    5    0    0 -0.30079994077E+02 -0.99394905522E+01  0.27467682921E+02  0.41929382551E+02  0.00000000000E+00 0. -1.
         11    1    3    3    0    0 -0.96596444411E+01  0.70029890157E+02 -0.21050765141E+03  0.22206072491E+03  0.00000000000E+00 0. -1.
        -12    1    3    3    0    0 -0.61508102713E+02  0.13396782269E+03 -0.19845159725E+03  0.24721177292E+03  0.00000000000E+00 0.  1.
          5    1    4    4  501    0 -0.39172441627E+02 -0.10949859889E+02 -0.98174615186E+01  0.42050381274E+02  0.41800000000E+01 0. -1.
         -5    1    4    4    0  501  0.89265589922E+02 -0.85660562097E+02  0.39452401345E+01  0.12385117990E+03  0.41800000000E+01 0. -1.
</event>
<event>
11    1  0.1002087E-008  0.1428556E+03  0.7561462E-02  0.1104411E+00
         22   -1    0    0    0    0  0.00000000000E+00  0.00000000000E+00  0.13635213931E+03  0.13635213931E+03  0.00000000000E+00 0. -1.
         22   -1    0    0    0    0 -0.00000000000E+00 -0.00000000000E+00 -0.21337969537E+04  0.21337969537E+04  0.00000000000E+00 0. -1.
         24    2    1    2    0    0 -0.10517725523E+02  0.30136739949E+02 -0.18723201055E+04  0.18743330182E+04  0.80764102333E+02 0.  0.
         25    2    1    2    0    0 -0.39893272823E+01 -0.94887269117E+02 -0.20888225505E+03  0.26133503664E+03  0.12507876050E+03 0.  0.
        -24    2    1    2    0    0  0.14507052806E+02  0.64750529168E+02  0.83757546164E+02  0.13448103811E+03  0.81650091637E+02 0.  0.
        -11    1    3    3    0    0 -0.15295531381E+02 -0.25091061014E+02 -0.85375292725E+03  0.85425849450E+03  0.00000000000E+00 0.  1.
         12    1    3    3    0    0  0.47778058576E+01  0.55227800963E+02 -0.10185671782E+04  0.10200745237E+04  0.00000000000E+00 0. -1.
         11    1    5    5    0    0 -0.29875388158E+02  0.50343108640E+02  0.47553246519E+02  0.75420677931E+02  0.00000000000E+00 0. -1.
        -12    1    5    5    0    0  0.44382440964E+02  0.14407420528E+02  0.36204299645E+02  0.59060360183E+02  0.00000000000E+00 0.  1.
          5    1    4    4  501    0 -0.33031362915E+02  0.40061682220E+01 -0.64701309950E+01  0.34153408541E+02  0.41800000000E+01 0. -1.
         -5    1    4    4    0  501  0.29042035633E+02 -0.98893437339E+02 -0.20241212405E+03  0.22718162810E+03  0.41800000000E+01 0. -1.
</event>
<event>
11    1  0.1002087E-008  0.1992597E+03  0.7561462E-02  0.1055048E+00
         22   -1    0    0    0    0  0.00000000000E+00  0.00000000000E+00  0.12171373352E+04  0.12171373352E+04  0.00000000000E+00 0.  1.
         22   -1    0    0    0    0 -0.00000000000E+00 -0.00000000000E+00 -0.62497176076E+03  0.62497176076E+03  0.00000000000E+00 0.  1.
         24    2    1    2    0    0  0.10505393308E+03 -0.10819205182E+03 -0.46551681168E+03  0.49508677592E+03  0.75254001848E+02 0.  0.
         25    2    1    2    0    0 -0.37481992784E+02  0.21909929316E+03 -0.22631347517E+02  0.25606440749E+03  0.12508957929E+03 0.  0.
        -24    2    1    2    0    0 -0.67571940298E+02 -0.11090724134E+03  0.10803137337E+04  0.10909579126E+04  0.79025442528E+02 0.  0.
        -11    1    3    3    0    0  0.37045153344E+02 -0.85368480024E+02 -0.31300783113E+03  0.32654865352E+03  0.00000000000E+00 0.  1.
         12    1    3    3    0    0  0.68008779737E+02 -0.22823571797E+02 -0.15250898055E+03  0.16853812240E+03  0.00000000000E+00 0. -1.
         11    1    5    5    0    0  0.80461967932E+01  0.51268196052E+01  0.28263920207E+02  0.29830768471E+02  0.00000000000E+00 0. -1.
        -12    1    5    5    0    0 -0.75618137091E+02 -0.11603406095E+03  0.10520498135E+04  0.10611271441E+04  0.00000000000E+00 0.  1.
          5    1    4    4  501    0 -0.45855200830E+02  0.12390328613E+03  0.44198810772E+02  0.13937622118E+03  0.41800000000E+01 0.  1.
         -5    1    4    4    0  501  0.83732080462E+01  0.95196007033E+02 -0.66830158289E+02  0.11668818631E+03  0.41800000000E+01 0.  1.
</event>
<event>
11    1  0.1002087E-008  0.1682064E+03  0.7561462E-02  0.1079603E+00
         22   -1    0    0    0    0  0.00000000000E+00  0.00000000000E+00  0.96009514377E+03  0.96009514377E+03  0.00000000000E+00 0.  1.
         22   -1    0    0    0    0 -0.00000000000E+00 -0.00000000000E+00 -0.11144831470E+03  0.11144831470E+03  0.00000000000E+00 0. -1.
         24    2    1    2    0    0 -0.10918065243E+03  0.22847801143E+02 -0.29588734291E+02  0.14209477407E+03  0.82903526693E+02 0.  0.
         25    2    1    2    0    0  0.11449627636E+03 -0.27136386156E+02  0.30028413517E+03  0.34592644799E+03  0.12509502321E+03 0.  0.
        -24    2    1    2    0    0 -0.53156239255E+01  0.42885850131E+01  0.57795142819E+03  0.58352223641E+03  0.80147983232E+02 0.  0.
        -11    1    3    3    0    0  0.96825700444E+00 -0.19698695654E+02  0.21060814106E+01  0.19834608920E+02  0.00000000000E+00 0.  1.
         12    1    3    3    0    0 -0.11014890944E+03  0.42546496797E+02 -0.31694815702E+02  0.12226016515E+03  0.00000000000E+00 0. -1.
         11    1    5    5    0    0  0.28209183306E+01 -0.24604781570E+02  0.62946771054E+02  0.67643542504E+02  0.00000000000E+00 0. -1.
        -12    1    5    5    0    0 -0.81365422561E+01  0.28893366583E+02  0.51500465714E+03  0.51587869391E+03  0.00000000000E+00 0.  1.
          5    1    4    4  501    0  0.11915719168E+03 -0.24801619043E+02  0.14021646923E+03  0.18571937777E+03  0.41800000000E+01 0. -1.
         -5    1    4    4    0  501 -0.46609153237E+01 -0.23347671123E+01  0.16006766594E+03  0.16020707022E+03  0.41800000000E+01 0. -1.
</event>
<event>
11    1  0.1002087E-008  0.1442430E+03  0.7561462E-02  0.1102911E+00
         22   -1    0    0    0    0  0.00000000000E+00  0.00000000000E+00  0.16278373195E+04  0.16278373195E+04  0.00000000000E+00 0. -1.
         22   -1    0    0    0    0 -0.00000000000E+00 -0.00000000000E+00 -0.46907081720E+03  0.46907081720E+03  0.00000000000E+00 0.  1.
         24    2    1    2    0    0  0.81315572909E+02  0.15367411883E+02 -0.28740867299E+03  0.31002872062E+03  0.81643631432E+02 0.  0.
         25    2    1    2    0    0 -0.36244456470E+02 -0.40140157468E+02 -0.14143724243E+03  0.19641060939E+03  0.12509093119E+03 0.  0.
        -24    2    1    2    0    0 -0.45071116440E+02  0.24772745585E+02  0.15876124178E+04  0.15904688067E+04  0.80204374271E+02 0.  0.
        -11    1    3    3    0    0  0.76828732065E+02 -0.20957962208E+02 -0.19477759190E+03  0.21042861155E+03  0.00000000000E+00 0.  1.
         12    1    3    3    0    0  0.44868408439E+01  0.36325374090E+02 -0.92631081094E+02  0.99600109077E+02  0.00000000000E+00 0. -1.
         13    1    5    5    0    0 -0.19683080094E+02 -0.74820050491E+01  0.12748959542E+04  0.12750698404E+04  0.00000000000E+00 0. -1.
        -14    1    5    5    0    0 -0.25388036345E+02  0.32254750634E+02  0.31271646358E+03  0.31539896627E+03  0.00000000000E+00 0.  1.
          5    1    4    4  501    0 -0.76871117357E+02 -0.58062660313E+01 -0.11029866333E+03  0.13463338717E+03  0.41800000000E+01 0. -1.
         -5    1    4    4    0  501  0.40626660887E+02 -0.34333891436E+02 -0.31138579107E+02  0.61777222217E+02  0.41800000000E+01 0. -1.
</event>
<event>
11    1  0.1002087E-008  0.1401864E+03  0.7561462E-02  0.1107350E+00
         22   -1    0    0    0    0  0.00000000000E+00  0.00000000000E+00  0.84245876150E+02  0.84245876150E+02  0.00000000000E+00 0. -1.
         22   -1    0    0    0    0 -0.00000000000E+00 -0.00000000000E+00 -0.65017518195E+03  0.65017518195E+03  0.00000000000E+00 0. -1.
         24    2    1    2    0    0  0.75855629624E+02 -0.58000758186E+01 -0.40826004983E+03  0.42302904006E+03  0.80557948256E+02 0.  0.
         25    2    1    2    0    0 -0.26930435118E+02 -0.95941066047E+00 -0.17333111330E+03  0.21544690536E+03  0.12509006909E+03 0.  0.
        -24    2    1    2    0    0 -0.48925194506E+02  0.67594864791E+01  0.15661857326E+02  0.95945112679E+02  0.80751504984E+02 0.  0.
        -11    1    3    3    0    0  0.36338573050E+02 -0.33244955704E+02 -0.10501317648E+03  0.11598916417E+03  0.00000000000E+00 0.  1.
         12    1    3    3    0    0  0.39517056575E+02  0.27444879885E+02 -0.30324687335E+03  0.30703987589E+03  0.00000000000E+00 0. -1.
         13    1    5    5    0    0  0.63847201242E+01 -0.41800149446E+01  0.35396451921E+02  0.36209749856E+02  0.00000000000E+00 0. -1.
        -14    1    5    5    0    0 -0.55309914630E+02  0.10939501424E+02 -0.19734594595E+02  0.59735362823E+02  0.00000000000E+00 0.  1.
          5    1    4    4  501    0 -0.26707457109E+02 -0.50270804475E+00  0.12345563571E+02  0.29722488464E+02  0.41800000000E+01 0. -1.
         -5    1    4    4    0  501 -0.22297800906E+00 -0.45670261572E+00 -0.18567667687E+03  0.18572441689E+03  0.41800000000E+01 0. -1.
</event>
<event>
11    1  0.1002087E-008  0.1390951E+03  0.7561462E-02  0.1108573E+00
         22   -1    0    0    0    0  0.00000000000E+00  0.00000000000E+00  0.22235453999E+02  0.22235453999E+02  0.00000000000E+00 0. -1.
         22   -1    0    0    0    0 -0.00000000000E+00 -0.00000000000E+00 -0.17733826909E+04  0.17733826909E+04  0.00000000000E+00 0. -1.
        -24    2    1    2    0    0  0.46656498665E+02  0.33084714216E+02 -0.97084431279E+03  0.97576787107E+03  0.79453328158E+02 0.  0.
         25    2    1    2    0    0 -0.65114110519E+02 -0.33318280232E+02 -0.64828425002E+03  0.66428202413E+03  0.12509269996E+03 0.  0.
         24    2    1    2    0    0  0.18457611854E+02  0.23356601522E+00 -0.13201867414E+03  0.15556824973E+03  0.80198578645E+02 0.  0.
        -13    1    5    5    0    0 -0.17173803462E+02  0.30800922517E+02 -0.60125595905E+02  0.69704545305E+02  0.00000000000E+00 0.  1.
         14    1    5    5    0    0  0.35631415316E+02 -0.30567356502E+02 -0.71893078230E+02  0.85863704430E+02  0.00000000000E+00 0. -1.
         11    1    3    3    0    0  0.62031766494E+02  0.45768683450E+02 -0.81922528998E+03  0.82284432804E+03  0.00000000000E+00 0. -1.
        -12    1    3    3    0    0 -0.15375267829E+02 -0.12683969234E+02 -0.15161902280E+03  0.15292354303E+03  0.00000000000E+00 0.  1.
          5    1    4    4  501    0  0.29273398112E+02  0.45707392261E+01 -0.29823583836E+03  0.29973306654E+03  0.41800000000E+01 0. -1.
         -5    1    4    4    0  501 -0.94387508632E+02 -0.37889019458E+02 -0.35004841165E+03  0.36454895759E+03  0.41800000000E+01 0. -1.
</event>
<event>
11    1  0.1002087E-008  0.1454328E+03  0.7561462E-02  0.1101639E+00
         22   -1    0    0    0    0  0.00000000000E+00  0.00000000000E+00  0.41601704115E+03  0.41601704115E+03  0.00000000000E+00 0.  1.
         22   -1    0    0    0    0 -0.00000000000E+00 -0.00000000000E+00 -0.70064141777E+03  0.70064141777E+03  0.00000000000E+00 0.  1.
        -24    2    1    2    0    0  0.10411591982E+02 -0.40601841474E+02 -0.61831500261E+03  0.62499863019E+03  0.80950197702E+02 0.  0.
         25    2    1    2    0    0  0.62853906081E+02  0.17470631844E+02  0.30061812116E+01  0.14111312218E+03  0.12509212461E+03 0.  0.
         24    2    1    2    0    0 -0.73265498063E+02  0.23131209630E+02  0.33068444479E+03  0.35054670655E+03  0.87337880568E+02 0.  0.
        -13    1    5    5    0    0 -0.71135418911E+02  0.36923154387E+02  0.32617990081E+03  0.33588226337E+03  0.00000000000E+00 0.  1.
         14    1    5    5    0    0 -0.21300791524E+01 -0.13791944757E+02  0.45045439813E+01  0.14664443183E+02  0.00000000000E+00 0. -1.
         11    1    3    3    0    0 -0.43469002114E+01  0.22356957478E+02 -0.94433406124E+02  0.97141120445E+02  0.00000000000E+00 0. -1.
        -12    1    3    3    0    0  0.14758492194E+02 -0.62958798953E+02 -0.52388159649E+03  0.52785750975E+03  0.00000000000E+00 0.  1.
          5    1    4    4  501    0  0.65755200916E+02 -0.43714667551E+02 -0.48320437735E+01  0.79218303779E+02  0.41800000000E+01 0.  1.
         -5    1    4    4    0  501 -0.29012948349E+01  0.61185299395E+02  0.78382249852E+01  0.61894818399E+02  0.41800000000E+01 0.  1.
</event>
<event>
11    1  0.1002087E-008  0.1283857E+03  0.7561462E-02  0.1121268E+00
         22   -1    0    0    0    0  0.00000000000E+00  0.00000000000E+00  0.55071260787E+03  0.55071260787E+03  0.00000000000E+00 0. -1.
         22   -1    0    0    0    0 -0.00000000000E+00 -0.00000000000E+00 -0.81072732016E+03  0.81072732016E+03  0.00000000000E+00 0. -1.
         24    2    1    2    0    0 -0.36855623332E+01 -0.24682881672E+02 -0.66662357886E+03  0.67559124584E+03  0.10683495469E+03 0.  0.
         25    2    1    2    0    0 -0.11366825205E+02  0.60163050814E+02 -0.99899310302E+02  0.17142794096E+03  0.12513540404E+03 0.  0.
        -24    2    1    2    0    0  0.15052387539E+02 -0.35480169142E+02  0.50650817688E+03  0.51442074123E+03  0.81195744929E+02 0.  0.
        -11    1    3    3    0    0  0.56445247676E+01 -0.13476039950E+02 -0.77167791928E+01  0.16523104844E+02  0.00000000000E+00 0.  1.
         12    1    3    3    0    0 -0.93300871008E+01 -0.11206841722E+02 -0.65890679967E+03  0.65906814099E+03  0.00000000000E+00 0. -1.
         13    1    5    5    0    0 -0.12442976765E+01  0.83021619821E+01  0.37082888979E+03  0.37092390011E+03  0.00000000000E+00 0. -1.
        -14    1    5    5    0    0  0.16296685215E+02 -0.43782331124E+02  0.13567928708E+03  0.14349684112E+03  0.00000000000E+00 0.  1.
          5    1    4    4  501    0 -0.33581865561E+02 -0.14166355933E+02 -0.84645739557E+02  0.92254002407E+02  0.41800000000E+01 0.  1.
         -5    1    4    4    0  501  0.22215040356E+02  0.74329406747E+02 -0.15253570745E+02  0.79173938552E+02  0.41800000000E+01 0.  1.
</event>
<event>
11    1  0.1002087E-008  0.1359222E+03  0.7561462E-02  0.1112199E+00
         22   -1    0    0    0    0  0.00000000000E+00  0.00000000000E+00  0.26784124155E+03  0.26784124155E+03  0.00000000000E+00 0.  1.
         22   -1    0    0    0    0 -0.00000000000E+00 -0.00000000000E+00 -0.23430852004E+03  0.23430852004E+03  0.00000000000E+00 0. -1.
         24    2    1    2    0    0 -0.13788401205E+01 -0.16209146198E+02 -0.15002216828E+03  0.17011644517E+03  0.78538629469E+02 0.  0.
         25    2    1    2    0    0  0.50248715210E+02 -0.69739286263E+01  0.12727439123E+02  0.13558474125E+03  0.12509062832E+03 0.  0.
        -24    2    1    2    0    0 -0.48869875089E+02  0.23183074824E+02  0.17082745067E+03  0.19644857517E+03  0.80525183224E+02 0.  0.
        -11    1    3    3    0    0  0.11347965280E+01 -0.30935789498E+02 -0.15232367950E+02  0.34501244447E+02  0.00000000000E+00 0.  1.
         12    1    3    3    0    0 -0.25136366485E+01  0.14726643300E+02 -0.13478980033E+03  0.13561520072E+03  0.00000000000E+00 0. -1.
         11    1    5    5    0    0  0.21294945393E+02 -0.37987253105E+01  0.33106246281E+02  0.39546536588E+02  0.00000000000E+00 0. -1.
        -12    1    5    5    0    0 -0.70164820482E+02  0.26981800135E+02  0.13772120439E+03  0.15690203858E+03  0.00000000000E+00 0.  1.
          5    1    4    4  501    0  0.89320050039E+02  0.29713015156E+01 -0.84270768204E+01  0.89863162617E+02  0.41800000000E+01 0.  1.
         -5    1    4    4    0  501 -0.39071334830E+02 -0.99452301419E+01  0.21154515944E+02  0.45721578634E+02  0.41800000000E+01 0.  1.
</event>
<event>
11    1  0.1002087E-008  0.2483684E+03  0.7561462E-02  0.1024772E+00
         22   -1    0    0    0    0  0.00000000000E+00  0.00000000000E+00  0.17100277703E+04  0.17100277703E+04  0.00000000000E+00 0.  1.
         22   -1    0    0    0    0 -0.00000000000E+00 -0.00000000000E+00 -0.53368829776E+03  0.53368829776E+03  0.00000000000E+00 0.  1.
        -24    2    1    2    0    0 -0.11040765670E+01 -0.12667845974E+02 -0.31636387253E+03  0.32664329245E+03  0.80299734456E+02 0.  0.
         25    2    1    2    0    0  0.99779583499E+02 -0.17832092175E+03 -0.13384007047E+03  0.27443719213E+03  0.12509313148E+03 0.  0.
         24    2    1    2    0    0 -0.98675506932E+02  0.19098876773E+03  0.16265434155E+04  0.16426355834E+04  0.79966320276E+02 0.  0.
        -13    1    5    5    0    0 -0.10241351394E+03  0.17253629157E+03  0.15756112474E+04  0.15883350095E+04  0.00000000000E+00 0.  1.
         14    1    5    5    0    0  0.37380070069E+01  0.18452476156E+02  0.50932168159E+02  0.54300573902E+02  0.00000000000E+00 0. -1.
         13    1    3    3    0    0 -0.97871822193E+01 -0.69068515947E+01 -0.20455380776E+01  0.12152273893E+02  0.00000000000E+00 0. -1.
        -14    1    3    3    0    0  0.86831056523E+01 -0.57609943790E+01 -0.31431833446E+03  0.31449101856E+03  0.00000000000E+00 0.  1.
          5    1    4    4  501    0  0.67467624078E+02 -0.18796744727E+03 -0.13386148307E+03  0.24045791853E+03  0.41800000000E+01 0. -1.
         -5    1    4    4    0  501  0.32311959421E+02  0.96465255158E+01  0.21412604042E-01  0.33979273604E+02  0.41800000000E+01 0. -1.
</event>
<event>
11    1  0.1002087E-008  0.1364493E+03  0.7561462E-02  0.1111589E+00
         22   -1    0    0    0    0  0.00000000000E+00  0.00000000000E+00  0.59306450478E+02  0.59306450478E+02  0.00000000000E+00 0. -1.
         22   -1    0    0    0    0 -0.00000000000E+00 -0.00000000000E+00 -0.25900823118E+04  0.25900823118E+04  0.00000000000E+00 0. -1.
         24    2    1    2    0    0  0.11613624740E+02 -0.53898787660E+02 -0.20356626413E+04  0.20375546950E+04  0.68313909924E+02 0.  0.
         25    2    1    2    0    0 -0.50893822991E+01  0.48739155290E+02 -0.51322868783E+03  0.53052113146E+03  0.12509027878E+03 0.  0.
        -24    2    1    2    0    0 -0.65242424409E+01  0.51596323701E+01  0.18115467807E+02  0.81312935829E+02  0.78831692952E+02 0.  0.
        -13    1    3    3    0    0  0.70087812589E+01  0.15883396090E+02 -0.32536065420E+03  0.32582351141E+03  0.00000000000E+00 0.  1.
         14    1    3    3    0    0  0.46048434811E+01 -0.69782183750E+02 -0.17103019871E+04  0.17117311836E+04  0.00000000000E+00 0. -1.
         11    1    5    5    0    0 -0.37945667280E+00  0.33528937166E+02  0.34392880975E+02  0.48033362121E+02  0.00000000000E+00 0. -1.
        -12    1    5    5    0    0 -0.61447857681E+01 -0.28369304796E+02 -0.16277413168E+02  0.33279573708E+02  0.00000000000E+00 0.  1.
          5    1    4    4  501    0 -0.45402406051E+02  0.34296651117E+02 -0.10057628573E+03  0.11563174480E+03  0.41800000000E+01 0.  1.
         -5    1    4    4    0  501  0.40313023751E+02  0.14442504174E+02 -0.41265240210E+03  0.41488938667E+03  0.41800000000E+01 0.  1.
</event>
<event>
11    1  0.1002087E-008  0.2152390E+03  0.7561462E-02  0.1044242E+00
         22   -1    0    0    0    0  0.00000000000E+00  0.00000000000E+00  0.25438937608E+03  0.25438937608E+03  0.00000000000E+00 0. -1.
         22   -1    0    0    0    0 -0.00000000000E+00 -0.00000000000E+00 -0.43326805443E+03  0.43326805443E+03  0.00000000000E+00 0.  1.
         24    2    1    2    0    0 -0.66312861530E+01  0.52502285788E+01 -0.23686418885E+03  0.25203325142E+03  0.85700507626E+02 0.  0.
         25    2    1    2    0    0  0.82940239683E+02 -0.16023512105E+03 -0.36779660547E+02  0.22261652532E+03  0.12510394295E+03 0.  0.
        -24    2    1    2    0    0 -0.76308953530E+02  0.15498489247E+03  0.94765171042E+02  0.21300765376E+03  0.80922491540E+02 0.  0.
        -13    1    3    3    0    0  0.68233448844E+01  0.44280283219E+02 -0.12658802448E+03  0.13428264764E+03  0.00000000000E+00 0.  1.
         14    1    3    3    0    0 -0.13454631037E+02 -0.39030054640E+02 -0.11027616437E+03  0.11775060378E+03  0.00000000000E+00 0. -1.
         13    1    5    5    0    0  0.58938880071E+01  0.76206888911E+02  0.30741538128E+02  0.82384889390E+02  0.00000000000E+00 0. -1.
        -14    1    5    5    0    0 -0.82202841537E+02  0.78778003560E+02  0.64023632913E+02  0.13062276438E+03  0.00000000000E+00 0.  1.
          5    1    4    4  501    0 -0.20094755847E+02 -0.84820832835E+01 -0.32161833282E+02  0.39084534914E+02  0.41800000000E+01 0. -1.
         -5    1    4    4    0  501  0.10303499553E+03 -0.15175303777E+03 -0.46178272648E+01  0.18353199041E+03  0.41800000000E+01 0. -1.
</event>
<event>
11    1  0.1002087E-008  0.1861456E+03  0.7561462E-02  0.1064777E+00
         22   -1    0    0    0    0  0.00000000000E+00  0.00000000000E+00  0.41124303846E+04  0.41124303846E+04  0.00000000000E+00 0.  1.
         22   -1    0    0    0    0 -0.00000000000E+00 -0.00000000000E+00 -0.86821698762E+02  0.86821698762E+02  0.00000000000E+00 0. -1.
         24    2    1    2    0    0  0.58008262050E+02 -0.12426102066E+03  0.55932650109E+01  0.15988105236E+03  0.82005527680E+02 0.  0.
         25    2    1    2    0    0 -0.32814802079E+02  0.14665186174E+03  0.10513244713E+04  0.10693521249E+04  0.12508894080E+03 0.  0.
        -24    2    1    2    0    0 -0.25193459971E+02 -0.22390841089E+02  0.29686909495E+04  0.29700189061E+04  0.82160142983E+02 0.  0.
        -11    1    3    3    0    0  0.61232399563E+01 -0.66567607501E+02  0.36729556285E+02  0.76274509116E+02  0.00000000000E+00 0.  1.
         12    1    3    3    0    0  0.51885022094E+02 -0.57693413155E+02 -0.31136291274E+02  0.83606543245E+02  0.00000000000E+00 0. -1.
         13    1    5    5    0    0 -0.20145046587E+02 -0.46414603805E+02  0.10962658777E+04  0.10974329196E+04  0.00000000000E+00 0. -1.
        -14    1    5    5    0    0 -0.50484133849E+01  0.24023762716E+02  0.18724250717E+04  0.18725859865E+04  0.00000000000E+00 0.  1.
          5    1    4    4  501    0  0.38152512967E+02  0.36637629375E+02  0.16289949743E+03  0.17132322900E+03  0.41800000000E+01 0.  1.
         -5    1    4    4    0  501 -0.70967315046E+02  0.11001423237E+03  0.88842497390E+03  0.89802889585E+03  0.41800000000E+01 0.  1.
</event>
<event>
11    1  0.1002087E-008  0.1317501E+03  0.7561462E-02  0.1117137E+00
         22   -1    0    0    0    0  0.00000000000E+00  0.00000000000E+00  0.43770161077E+03  0.43770161077E+03  0.00000000000E+00 0.  1.
         22   -1    0    0    0    0 -0.00000000000E+00 -0.00000000000E+00 -0.29429489173E+04  0.29429489173E+04  0.00000000000E+00 0.  1.
         24    2    1    2    0    0 -0.21638817216E+02 -0.20065177805E+02 -0.23801546616E+04  0.23817293550E+04  0.81410427047E+02 0.  0.
         25    2    1    2    0    0  0.27085169408E+02 -0.21075598667E+02 -0.54976708674E+03  0.56486215362E+03  0.12509042997E+03 0.  0.
        -24    2    1    2    0    0 -0.54463521914E+01  0.41140776473E+02  0.42467444180E+03  0.43405901944E+03  0.79602918266E+02 0.  0.
        -13    1    3    3    0    0 -0.14697798349E+02 -0.37921539117E+02 -0.22282821153E+04  0.22286532376E+04  0.00000000000E+00 0.  1.
         14    1    3    3    0    0 -0.69410188673E+01  0.17856361312E+02 -0.15187254635E+03  0.15307611740E+03  0.00000000000E+00 0. -1.
         13    1    5    5    0    0  0.24655105310E+02 -0.73491543826E+01  0.65378531483E+02  0.70258356562E+02  0.00000000000E+00 0. -1.
        -14    1    5    5    0    0 -0.30101457502E+02  0.48489930855E+02  0.35929591032E+03  0.36380066288E+03  0.00000000000E+00 0.  1.
          5    1    4    4  501    0  0.15973826137E+02  0.38685823009E+02 -0.73267165611E+02  0.84482577968E+02  0.41800000000E+01 0. -1.
         -5    1    4    4    0  501  0.11111343271E+02 -0.59761421677E+02 -0.47649992113E+03  0.48037957565E+03  0.41800000000E+01 0. -1.
</event>
<event>
11    1  0.1002087E-008  0.1609688E+03  0.7561462E-02  0.1086170E+00
         22   -1    0    0    0    0  0.00000000000E+00  0.00000000000E+00  0.22351089062E+04  0.22351089062E+04  0.00000000000E+00 0. -1.
         22   -1    0    0    0    0 -0.00000000000E+00 -0.00000000000E+00 -0.12650707058E+04  0.12650707058E+04  0.00000000000E+00 0.  1.
         24    2    1    2    0    0  0.40280345990E+02 -0.92441638830E+02 -0.12187594356E+04  0.12255944236E+04  0.80865113727E+02 0.  0.
         25    2    1    2    0    0 -0.61094028630E+02  0.11347770091E+03  0.14999473639E+03  0.23399459970E+03  0.12508150465E+03 0.  0.
        -24    2    1    2    0    0  0.20813682640E+02 -0.21036062083E+02  0.20388028996E+04  0.20405905887E+04  0.80105941769E+02 0.  0.
        -13    1    3    3    0    0  0.55882039861E+02 -0.97898756120E+02 -0.10604400755E+04  0.10664146110E+04  0.00000000000E+00 0.  1.
         14    1    3    3    0    0 -0.15601693872E+02  0.54571172904E+01 -0.15831936011E+03  0.15917981269E+03  0.00000000000E+00 0. -1.
         13    1    5    5    0    0  0.16705853537E+01 -0.40993182876E+02  0.17466545668E+04  0.17471363449E+04  0.00000000000E+00 0. -1.
        -14    1    5    5    0    0  0.19143097286E+02  0.19957120794E+02  0.29214833280E+03  0.29345424380E+03  0.00000000000E+00 0.  1.
          5    1    4    4  501    0 -0.69515575196E+02  0.51180891554E+02  0.14748532289E+03  0.17094236374E+03  0.41800000000E+01 0. -1.
         -5    1    4    4    0  501  0.84215465660E+01  0.62296809359E+02  0.25094135021E+01  0.63052235955E+02  0.41800000000E+01 0. -1.
</event>
<event>
11    1  0.1002087E-008  0.1618199E+03  0.7561462E-02  0.1085378E+00
         22   -1    0    0    0    0  0.00000000000E+00  0.00000000000E+00  0.19123472059E+04  0.19123472059E+04  0.00000000000E+00 0. -1.
         22   -1    0    0    0    0 -0.00000000000E+00 -0.00000000000E+00 -0.57273521130E+03  0.57273521130E+03  0.00000000000E+00 0.  1.
         24    2    1    2    0    0 -0.11844584631E+02  0.11645970294E+02 -0.55440581236E+03  0.56112290116E+03  0.84954002961E+02 0.  0.
         25    2    1    2    0    0 -0.15177378420E+02  0.90493664776E+02  0.49737015225E+03  0.52100236345E+03  0.12508772199E+03 0.  0.
        -24    2    1    2    0    0  0.27021963051E+02 -0.10213963507E+03  0.13966476547E+04  0.14029571526E+04  0.80631315884E+02 0.  0.
        -11    1    3    3    0    0 -0.16128538531E+01 -0.19180700192E+02 -0.47419301203E+03  0.47458351554E+03  0.00000000000E+00 0.  1.
         12    1    3    3    0    0 -0.10231730778E+02  0.30826670486E+02 -0.80212800321E+02  0.86539385619E+02  0.00000000000E+00 0. -1.
         11    1    5    5    0    0  0.30226372261E+02 -0.64629061245E+02  0.12318301855E+04  0.12338947098E+04  0.00000000000E+00 0. -1.
        -12    1    5    5    0    0 -0.32044092099E+01 -0.37510573825E+02  0.16481746925E+03  0.16906244277E+03  0.00000000000E+00 0.  1.
          5    1    4    4  501    0  0.41883658907E+02  0.83441611855E+02  0.36199359883E+03  0.37386305176E+03  0.41800000000E+01 0.  1.
         -5    1    4    4    0  501 -0.57061037327E+02  0.70520529217E+01  0.13537655341E+03  0.14713931169E+03  0.41800000000E+01 0.  1.
</event>
<event>
11    1  0.1002087E-008  0.2241660E+03  0.7561462E-02  0.1038639E+00
         22   -1    0    0    0    0  0.00000000000E+00  0.00000000000E+00  0.55463694537E+03  0.55463694537E+03  0.00000000000E+00 0.  1.
         22   -1    0    0    0    0 -0.00000000000E+00 -0.00000000000E+00 -0.54259596698E+03  0.54259596698E+03  0.00000000000E+00 0. -1.
         24    2    1    2    0    0 -0.28914387186E+02  0.15625053985E+03 -0.27436479430E+03  0.33510060005E+03  0.10847164981E+03 0.  0.
         25    2    1    2    0    0  0.67019691418E+02 -0.27093337765E+03 -0.12122832097E+03  0.32899950577E+03  0.12509130597E+03 0.  0.
        -24    2    1    2    0    0 -0.38105304232E+02  0.11468283780E+03  0.40763409367E+03  0.43313280652E+03  0.82669863142E+02 0.  0.
        -11    1    3    3    0    0  0.18188825906E+02  0.53382626031E+02 -0.25839416684E+02  0.62033971374E+02  0.00000000000E+00 0.  1.
         12    1    3    3    0    0 -0.47103213091E+02  0.10286791382E+03 -0.24852537762E+03  0.27306662868E+03  0.00000000000E+00 0. -1.
         13    1    5    5    0    0 -0.16050910817E+01 -0.92644714104E+01  0.86042934389E+02  0.86555146041E+02  0.00000000000E+00 0. -1.
        -14    1    5    5    0    0 -0.36500213150E+02  0.12394730921E+03  0.32159115928E+03  0.34657766048E+03  0.00000000000E+00 0.  1.
          5    1    4    4  501    0  0.24478440575E+02 -0.74159113103E+02  0.22760719365E+02  0.81451156254E+02  0.41800000000E+01 0. -1.
         -5    1    4    4    0  501  0.42541250843E+02 -0.19677426455E+03 -0.14398904033E+03  0.24754834952E+03  0.41800000000E+01 0. -1.
</event>
<event>
11    1  0.1002087E-008  0.1812802E+03  0.7561462E-02  0.1068612E+00
         22   -1    0    0    0    0  0.00000000000E+00  0.00000000000E+00  0.89377706134E+03  0.89377706134E+03  0.00000000000E+00 0.  1.
         22   -1    0    0    0    0 -0.00000000000E+00 -0.00000000000E+00 -0.22505318828E+04  0.22505318828E+04  0.00000000000E+00 0.  1.
        -24    2    1    2    0    0 -0.45165980883E+02  0.12025159010E+03 -0.20607477096E+04  0.20665226478E+04  0.85640646475E+02 0.  0.
         25    2    1    2    0    0  0.51386384517E+02 -0.20455601139E+03 -0.10036991373E+03  0.26496303048E+03  0.12509022995E+03 0.  0.
         24    2    1    2    0    0 -0.62204036342E+01  0.84304421283E+02  0.80436280186E+03  0.81282326592E+03  0.80846865971E+02 0.  0.
        -11    1    5    5    0    0 -0.29716958427E+02  0.59104935931E+02  0.69547791358E+03  0.69861721947E+03  0.00000000000E+00 0.  1.
         12    1    5    5    0    0  0.23496554792E+02  0.25199485352E+02  0.10888488828E+03  0.11420604645E+03  0.00000000000E+00 0. -1.
         13    1    3    3    0    0 -0.12417857639E+02 -0.12249402504E+02 -0.28863207325E+03  0.28915864981E+03  0.00000000000E+00 0. -1.
        -14    1    3    3    0    0 -0.32748123244E+02  0.13250099261E+03 -0.17721156364E+04  0.17773639980E+04  0.00000000000E+00 0.  1.
          5    1    4    4  501    0  0.20320759211E+02 -0.68067769531E+02  0.26563884322E+02  0.75955690071E+02  0.41800000000E+01 0. -1.
         -5    1    4    4    0  501  0.31065625306E+02 -0.13648824186E+03 -0.12693379805E+03  0.18900734041E+03  0.41800000000E+01 0. -1.
</event>
<event>
11    1  0.1002087E-008  0.1331003E+03  0.7561462E-02  0.1115517E+00
         22   -1    0    0    0    0  0.00000000000E+00  0.00000000000E+00  0.11139665495E+04  0.11139665495E+04  0.00000000000E+00 0.  1.
         22   -1    0    0    0    0 -0.00000000000E+00 -0.00000000000E+00 -0.10784558295E+03  0.10784558295E+03  0.00000000000E+00 0. -1.
         24    2    1    2    0    0 -0.84550913526E+01  0.61943419970E+01 -0.59650313891E+02  0.96128611273E+02  0.74650462259E+02 0.  0.
         25    2    1    2    0    0 -0.32469414731E+02  0.15368671065E+02  0.12512718724E+03  0.18053975880E+03  0.12508929842E+03 0.  0.
        -24    2    1    2    0    0  0.40924506084E+02 -0.21563013062E+02  0.94064409322E+03  0.94514376238E+03  0.79659542624E+02 0.  0.
        -13    1    3    3    0    0 -0.10014134010E+02  0.35471210592E+01  0.16658598420E+02  0.19757880683E+02  0.00000000000E+00 0.  1.
         14    1    3    3    0    0  0.15590426571E+01  0.26472209377E+01 -0.76308912311E+02  0.76370730590E+02  0.00000000000E+00 0. -1.
         13    1    5    5    0    0  0.28042148555E+02  0.53498387275E+01  0.10066001248E+03  0.10462992393E+03  0.00000000000E+00 0. -1.
        -14    1    5    5    0    0  0.12882357528E+02 -0.26912851789E+02  0.83998408074E+03  0.84051383845E+03  0.00000000000E+00 0.  1.
          5    1    4    4  501    0  0.26397577224E+02  0.29185297810E+02 -0.20823760963E+01  0.39628555131E+02  0.41800000000E+01 0. -1.
         -5    1    4    4    0  501 -0.58866991955E+02 -0.13816626745E+02  0.12720956333E+03  0.14091120367E+03  0.41800000000E+01 0. -1.
</event>
<event>
11    1  0.1002087E-008  0.1868973E+03  0.7561462E-02  0.1064196E+00
         22   -1    0    0    0    0  0.00000000000E+00  0.00000000000E+00  0.68407566296E+02  0.68407566296E+02  0.00000000000E+00 0. -1.
         22   -1    0    0    0    0 -0.00000000000E+00 -0.00000000000E+00 -0.18438679066E+04  0.18438679066E+04  0.00000000000E+00 0.  1.
         24    2    1    2    0    0  0.26563911038E+02  0.13553901451E+03 -0.12356915511E+04  0.12459753143E+04  0.80277073484E+02 0.  0.
         25    2    1    2    0    0  0.10470078694E+03 -0.15719612383E+03 -0.38647163382E+03  0.44797557717E+03  0.12509563484E+03 0.  0.
        -24    2    1    2    0    0 -0.13126469798E+03  0.21657109318E+02 -0.15329715534E+03  0.21832458140E+03  0.80412397619E+02 0.  0.
        -11    1    3    3    0    0 -0.20244352347E+02  0.78621386471E+02 -0.79848298116E+03  0.80259966821E+03  0.00000000000E+00 0.  1.
         12    1    3    3    0    0  0.46808263385E+02  0.56917628036E+02 -0.43720856997E+03  0.44337564611E+03  0.00000000000E+00 0. -1.
         11    1    5    5    0    0 -0.37165698563E+02  0.43680105158E+02 -0.71895431348E+02  0.91968439070E+02  0.00000000000E+00 0. -1.
        -12    1    5    5    0    0 -0.94098999413E+02 -0.22022995840E+02 -0.81401723988E+02  0.12635614233E+03  0.00000000000E+00 0.  1.
          5    1    4    4  501    0  0.37419700620E+02 -0.11901278470E+03 -0.13071963907E+03  0.18074671049E+03  0.41800000000E+01 0.  1.
         -5    1    4    4    0  501  0.67281086318E+02 -0.38183339130E+02 -0.25575199475E+03  0.26722886667E+03  0.41800000000E+01 0.  1.
</event>
<event>
11    1  0.1002087E-008  0.1510003E+03  0.7561462E-02  0.1095861E+00
         22   -1    0    0    0    0  0.00000000000E+00  0.00000000000E+00  0.16868234905E+03  0.16868234905E+03  0.00000000000E+00 0. -1.
         22   -1    0    0    0    0 -0.00000000000E+00 -0.00000000000E+00 -0.14946265315E+04  0.14946265315E+04  0.00000000000E+00 0. -1.
        -24    2    1    2    0    0  0.28632114346E+02 -0.77527743347E+02 -0.12685065511E+04  0.12740547872E+04  0.85301710084E+02 0.  0.
         25    2    1    2    0    0  0.25507567577E+02  0.12819553037E+03 -0.15805007848E+03  0.24023432117E+03  0.12509185326E+03 0.  0.
         24    2    1    2    0    0 -0.54139681923E+02 -0.50667787023E+02  0.10061244712E+03  0.14901977215E+03  0.81152314669E+02 0.  0.
        -13    1    5    5    0    0 -0.51250172233E+01 -0.12831254881E+02 -0.13419470940E+02  0.19261077427E+02  0.00000000000E+00 0.  1.
         14    1    5    5    0    0 -0.49014664699E+02 -0.37836532143E+02  0.11403191806E+03  0.12975869472E+03  0.00000000000E+00 0. -1.
         11    1    3    3    0    0  0.53860044976E+01 -0.91065060904E+02 -0.92005675282E+03  0.92456816016E+03  0.00000000000E+00 0. -1.
        -12    1    3    3    0    0  0.23246109848E+02  0.13537317557E+02 -0.34844979828E+03  0.34948662708E+03  0.00000000000E+00 0.  1.
          5    1    4    4  501    0  0.68792291652E+02  0.45689390958E+02 -0.46622859643E+02  0.94926620493E+02  0.41800000000E+01 0.  1.
         -5    1    4    4    0  501 -0.43284724075E+02  0.82506139412E+02 -0.11142721884E+03  0.14530770068E+03  0.41800000000E+01 0.  1.
</event>
<event>
11    1  0.1002087E-008  0.1384066E+03  0.7561462E-02  0.1109351E+00
         22   -1    0    0    0    0  0.00000000000E+00  0.00000000000E+00  0.23292717577E+03  0.23292717577E+03  0.00000000000E+00 0. -1.
         22   -1    0    0    0    0 -0.00000000000E+00 -0.00000000000E+00 -0.30145004515E+04  0.30145004515E+04  0.00000000000E+00 0.  1.
         24    2    1    2    0    0  0.58473157626E+02  0.22883115093E+00 -0.26061950632E+04  0.26080555028E+04  0.79256770472E+02 0.  0.
         25    2    1    2    0    0 -0.69709245078E+02 -0.23541663700E+02 -0.38595563260E+03  0.41233772949E+03  0.12508822505E+03 0.  0.
        -24    2    1    2    0    0  0.11236087453E+02  0.23312832549E+02  0.21057742010E+03  0.22703439496E+03  0.80820967678E+02 0.  0.
        -13    1    3    3    0    0 -0.37517562361E+01  0.52992903844E+01 -0.15519069750E+04  0.15519205577E+04  0.00000000000E+00 0.  1.
         14    1    3    3    0    0  0.62224913862E+02 -0.50704592334E+01 -0.10542880882E+04  0.10561349451E+04  0.00000000000E+00 0. -1.
         11    1    5    5    0    0  0.47769023590E+01  0.46231110298E+02  0.18987930655E+03  0.19548474470E+03  0.00000000000E+00 0. -1.
        -12    1    5    5    0    0  0.64591850935E+01 -0.22918277749E+02  0.20698113558E+02  0.31549650266E+02  0.00000000000E+00 0.  1.
          5    1    4    4  501    0  0.71083853631E+01  0.38198391868E+02 -0.17709042634E+03  0.18135086927E+03  0.41800000000E+01 0. -1.
         -5    1    4    4    0  501 -0.76817630441E+02 -0.61740055568E+02 -0.20886520626E+03  0.23098686022E+03  0.41800000000E+01 0. -1.
</event>
<event>
11    1  0.1002087E-008  0.1404392E+03  0.7561462E-02  0.1107069E+00
         22   -1    0    0    0    0  0.00000000000E+00  0.00000000000E+00  0.71906422759E+03  0.71906422759E+03  0.00000000000E+00 0. -1.
         22   -1    0    0    0    0 -0.00000000000E+00 -0.00000000000E+00 -0.16640034022E+03  0.16640034022E+03  0.00000000000E+00 0. -1.
         24    2    1    2    0    0 -0.49997675307E+01  0.22700156095E+02 -0.12764241774E+03  0.15178965059E+03  0.78785889980E+02 0.  0.
         25    2    1    2    0    0  0.27867035149E+02 -0.77193998482E+02  0.24375707634E+03  0.28600149396E+03  0.12507540620E+03 0.  0.
        -24    2    1    2    0    0 -0.22867267618E+02  0.54493842387E+02  0.43654922876E+03  0.44767342325E+03  0.79647812063E+02 0.  0.
        -13    1    3    3    0    0 -0.12187503763E+01 -0.26039522149E+01  0.10711158815E+02  0.11090303998E+02  0.00000000000E+00 0.  1.
         14    1    3    3    0    0 -0.37810171544E+01  0.25304108310E+02 -0.13835357655E+03  0.14069934660E+03  0.00000000000E+00 0. -1.
         11    1    5    5    0    0 -0.47298594514E+02  0.57312517871E+02  0.31296950157E+03  0.32167031361E+03  0.00000000000E+00 0. -1.
        -12    1    5    5    0    0  0.24431326896E+02 -0.28186754837E+01  0.12357972719E+03  0.12600310964E+03  0.00000000000E+00 0.  1.
          5    1    4    4  501    0 -0.31378223137E+02 -0.42028975067E+02  0.19375132416E+03  0.20076871182E+03  0.41800000000E+01 0. -1.
         -5    1    4    4    0  501  0.59245258286E+02 -0.35165023415E+02  0.50005752180E+02  0.85232782145E+02  0.41800000000E+01 0. -1.
</event>
<event>
11    1  0.1002087E-008  0.1954891E+03  0.7561462E-02  0.1057760E+00
         22   -1    0    0    0    0  0.00000000000E+00  0.00000000000E+00  0.72308482324E+03  0.72308482324E+03  0.00000000000E+00 0.  1.
         22   -1    0    0    0    0 -0.00000000000E+00 -0.00000000000E+00 -0.11389515447E+03  0.11389515447E+03  0.00000000000E+00 0.  1.
        -24    2    1    2    0    0 -0.22599631767E+00  0.17709635751E+02 -0.12857172880E+02  0.99531081828E+02  0.97095041494E+02 0.  0.
         25    2    1    2    0    0  0.14369276015E+03  0.31639751286E+02  0.18343014568E+03  0.26634956852E+03  0.12508713413E+03 0.  0.
         24    2    1    2    0    0 -0.14346676383E+03 -0.49349387037E+02  0.43861669596E+03  0.47109932735E+03  0.80820145575E+02 0.  0.
        -13    1    5    5    0    0 -0.15211310451E+03 -0.51711844131E+02  0.39231735948E+03  0.42394035186E+03  0.00000000000E+00 0.  1.
         14    1    5    5    0    0  0.86463406803E+01  0.23624570940E+01  0.46299336487E+02  0.47158975496E+02  0.00000000000E+00 0. -1.
         13    1    3    3    0    0  0.21880535727E+01  0.79200816574E+01  0.42487863661E+02  0.43275094805E+02  0.00000000000E+00 0. -1.
        -14    1    3    3    0    0 -0.24140498904E+01  0.97895540937E+01 -0.55345036541E+02  0.56255987023E+02  0.00000000000E+00 0.  1.
          5    1    4    4  501    0  0.50232920933E+02  0.46451840808E+02  0.10731198539E+02  0.69381199773E+02  0.41800000000E+01 0.  1.
         -5    1    4    4    0  501  0.93459839214E+02 -0.14812089522E+02  0.17269894714E+03  0.19696836875E+03  0.41800000000E+01 0.  1.
</event>
<event>
11    1  0.1002087E-008  0.2151468E+03  0.7561462E-02  0.1044301E+00
         22   -1    0    0    0    0  0.00000000000E+00  0.00000000000E+00  0.22684830518E+03  0.22684830518E+03  0.00000000000E+00 0.  1.
         22   -1    0    0    0    0 -0.00000000000E+00 -0.00000000000E+00 -0.51934798692E+03  0.51934798692E+03  0.00000000000E+00 0. -1.
         24    2    1    2    0    0  0.13362451576E+03 -0.12259896906E+03 -0.40054622869E+03  0.44670441713E+03  0.78876717346E+02 0.  0.
         25    2    1    2    0    0 -0.94794585903E+02  0.95464877498E+02  0.92211834329E+02  0.20554801568E+03  0.12508959992E+03 0.  0.
        -24    2    1    2    0    0 -0.38829929855E+02  0.27134091557E+02  0.15834712625E+02  0.93943859289E+02  0.79565621955E+02 0.  0.
        -13    1    3    3    0    0  0.84869522324E+02 -0.38625199914E+02 -0.13596038619E+03  0.16486348444E+03  0.00000000000E+00 0.  1.
         14    1    3    3    0    0  0.48754993434E+02 -0.83973769141E+02 -0.26458584251E+03  0.28184093270E+03  0.00000000000E+00 0. -1.
         11    1    5    5    0    0 -0.37196559596E+02 -0.83167258257E+01  0.36586898452E+02  0.52833257638E+02  0.00000000000E+00 0. -1.
        -12    1    5    5    0    0 -0.16333702583E+01  0.35450817383E+02 -0.20752185827E+02  0.41110601651E+02  0.00000000000E+00 0.  1.
          5    1    4    4  501    0 -0.95416683846E+01 -0.89329323266E+01 -0.23925024056E+02  0.27581151020E+02  0.41800000000E+01 0. -1.
         -5    1    4    4    0  501 -0.85252917518E+02  0.10439780982E+03  0.11613685838E+03  0.17796686466E+03  0.41800000000E+01 0. -1.
</event>
<event>
11    1  0.1002087E-008  0.1503425E+03  0.7561462E-02  0.1096529E+00
         22   -1    0    0    0    0  0.00000000000E+00  0.00000000000E+00  0.11159247594E+03  0.11159247594E+03  0.00000000000E+00 0. -1.
         22   -1    0    0    0    0 -0.00000000000E+00 -0.00000000000E+00 -0.61187445581E+03  0.61187445581E+03  0.00000000000E+00 0. -1.
        -24    2    1    2    0    0  0.58359411152E+02  0.13910611021E+02 -0.38076385611E+03  0.39350440370E+03  0.79153494195E+02 0.  0.
         25    2    1    2    0    0 -0.46550323649E+02  0.72797057720E+02 -0.13756536384E+03  0.20502114658E+03  0.12507236693E+03 0.  0.
         24    2    1    2    0    0 -0.11809087504E+02 -0.86707668741E+02  0.18047240082E+02  0.12494138147E+03  0.87332534395E+02 0.  0.
        -11    1    5    5    0    0 -0.72862030907E+01 -0.14435147280E+00 -0.26499487556E+02  0.27483311910E+02  0.00000000000E+00 0.  1.
         12    1    5    5    0    0 -0.45228844128E+01 -0.86563317268E+02  0.44546727638E+02  0.97458069564E+02  0.00000000000E+00 0. -1.
         11    1    3    3    0    0  0.53031892446E+02  0.37340173131E+02 -0.34045164019E+03  0.34657465207E+03  0.00000000000E+00 0. -1.
        -12    1    3    3    0    0  0.53275187066E+01 -0.23429562110E+02 -0.40312215917E+02  0.46929751633E+02  0.00000000000E+00 0.  1.
          5    1    4    4  501    0 -0.15782308487E+02  0.10198982357E+03 -0.68748329853E+02  0.12407582613E+03  0.41800000000E+01 0. -1.
         -5    1    4    4    0  501 -0.30768015162E+02 -0.29192765846E+02 -0.68817033991E+02  0.80945320446E+02  0.41800000000E+01 0. -1.
</event>
<event>
11    1  0.1002087E-008  0.1544324E+03  0.7561462E-02  0.1092434E+00
         22   -1    0    0    0    0  0.00000000000E+00  0.00000000000E+00  0.76525509922E+03  0.76525509922E+03  0.00000000000E+00 0.  1.
         22   -1    0    0    0    0 -0.00000000000E+00 -0.00000000000E+00 -0.57437200147E+03  0.57437200147E+03  0.00000000000E+00 0. -1.
         24    2    1    2    0    0 -0.84412913009E+02 -0.27277184226E+02 -0.51378477723E+03  0.52766979591E+03  0.81185168276E+02 0.  0.
         25    2    1    2    0    0  0.13333239206E+03  0.31644369346E+02  0.12268767715E+03  0.22243810471E+03  0.12509017314E+03 0.  0.
        -24    2    1    2    0    0 -0.48919479052E+02 -0.43671851195E+01  0.58198019782E+03  0.58951920007E+03  0.80123335350E+02 0.  0.
        -13    1    3    3    0    0 -0.41179519638E+01  0.18503319575E+02 -0.32791350993E+02  0.37876154287E+02  0.00000000000E+00 0.  1.
         14    1    3    3    0    0 -0.80294961045E+02 -0.45780503801E+02 -0.48099342623E+03  0.48979364163E+03  0.00000000000E+00 0. -1.
         13    1    5    5    0    0  0.13019754757E+02 -0.14175369850E+02  0.45740768144E+02  0.49625326142E+02  0.00000000000E+00 0. -1.
        -14    1    5    5    0    0 -0.61939233808E+02  0.98081847309E+01  0.53623942967E+03  0.53989387393E+03  0.00000000000E+00 0.  1.
          5    1    4    4  501    0  0.10059440209E+03 -0.23613873992E+02  0.26590130750E+02  0.10677713346E+03  0.41800000000E+01 0. -1.
         -5    1    4    4    0  501  0.32737989968E+02  0.55258243337E+02  0.96097546404E+02  0.11566097124E+03  0.41800000000E+01 0. -1.
</event>
<event>
11    1  0.1002087E-008  0.1258487E+03  0.7561462E-02  0.1124477E+00
         22   -1    0    0    0    0  0.00000000000E+00  0.00000000000E+00  0.23005947082E+03  0.23005947082E+03  0.00000000000E+00 0. -1.
         22   -1    0    0    0    0 -0.00000000000E+00 -0.00000000000E+00 -0.15503686601E+04  0.15503686601E+04  0.00000000000E+00 0.  1.
        -24    2    1    2    0    0  0.11413676546E+01  0.26928375143E+02 -0.13844463400E+04  0.13869225491E+04  0.78332935940E+02 0.  0.
         25    2    1    2    0    0 -0.13491339294E+02 -0.30958005181E+02 -0.12527339875E+03  0.18022594330E+03  0.12509017501E+03 0.  0.
         24    2    1    2    0    0  0.12349971639E+02  0.40296300377E+01  0.18941054948E+03  0.21327963848E+03  0.97175553605E+02 0.  0.
        -13    1    5    5    0    0  0.20922906500E+01 -0.18548285222E+01 -0.11594570583E+02  0.11926949988E+02  0.00000000000E+00 0.  1.
         14    1    5    5    0    0  0.10257680989E+02  0.58844585598E+01  0.20100512006E+03  0.20135268849E+03  0.00000000000E+00 0. -1.
         13    1    3    3    0    0  0.28024726187E+01  0.38198523683E+01 -0.37772936024E+01  0.60591312787E+01  0.00000000000E+00 0. -1.
        -14    1    3    3    0    0 -0.16611049641E+01  0.23108522775E+02 -0.13806690464E+04  0.13808634178E+04  0.00000000000E+00 0.  1.
          5    1    4    4  501    0  0.42842061477E+02  0.76139602232E+01 -0.79669914469E+01  0.44433770655E+02  0.41800000000E+01 0. -1.
         -5    1    4    4    0  501 -0.56333400771E+02 -0.38571965404E+02 -0.11730640730E+03  0.13579217264E+03  0.41800000000E+01 0. -1.
</event>
<event>
11    1  0.1002087E-008  0.1285499E+03  0.7561462E-02  0.1121064E+00
         22   -1    0    0    0    0  0.00000000000E+00  0.00000000000E+00  0.10201230429E+04  0.10201230429E+04  0.00000000000E+00 0. -1.
         22   -1    0    0    0    0 -0.00000000000E+00 -0.00000000000E+00 -0.50105619522E+03  0.50105619522E+03  0.00000000000E+00 0.  1.
        -24    2    1    2    0    0  0.99881636152E+01  0.50405240092E+01 -0.47040527012E+03  0.47775924105E+03  0.82750250496E+02 0.  0.
         25    2    1    2    0    0 -0.27426636920E+02  0.18657729034E+02  0.14424304118E+03  0.19379372098E+03  0.12509844163E+03 0.  0.
         24    2    1    2    0    0  0.17438473305E+02 -0.23698253043E+02  0.84522907658E+03  0.84962627603E+03  0.81159777455E+02 0.  0.
        -13    1    5    5    0    0 -0.10897760257E+02  0.15175019486E+02  0.58128319994E+02  0.61056891342E+02  0.00000000000E+00 0.  1.
         14    1    5    5    0    0  0.28336233561E+02 -0.38873272529E+02  0.78710075659E+03  0.78856938469E+03  0.00000000000E+00 0. -1.
         11    1    3    3    0    0  0.98997451137E+01  0.20004481530E+02 -0.31539252056E+02  0.38638176133E+02  0.00000000000E+00 0. -1.
        -12    1    3    3    0    0  0.88418501511E-01 -0.14963957521E+02 -0.43886601807E+03  0.43912106492E+03  0.00000000000E+00 0.  1.
          5    1    4    4  501    0 -0.37045430927E+02  0.65861831024E+02  0.59678209637E+02  0.96380007491E+02  0.41800000000E+01 0.  1.
         -5    1    4    4    0  501  0.96187940068E+01 -0.47204101990E+02  0.84564831540E+02  0.97413713492E+02  0.41800000000E+01 0.  1.
</event>
<event>
11    1  0.1002087E-008  0.1641528E+03  0.7561462E-02  0.1083235E+00
         22   -1    0    0    0    0  0.00000000000E+00  0.00000000000E+00  0.11015140910E+04  0.11015140910E+04  0.00000000000E+00 0.  1.
         22   -1    0    0    0    0 -0.00000000000E+00 -0.00000000000E+00 -0.18909731039E+04  0.18909731039E+04  0.00000000000E+00 0. -1.
         24    2    1    2    0    0  0.93670383453E+02 -0.50204188929E+02 -0.18657586026E+04  0.18704935761E+04  0.79977832995E+02 0.  0.
         25    2    1    2    0    0 -0.63087225469E+02  0.11590823297E+03  0.42871398570E+03  0.46567931581E+03  0.12508727813E+03 0.  0.
        -24    2    1    2    0    0 -0.30583157984E+02 -0.65704044043E+02  0.64758560401E+03  0.65631430294E+03  0.78287922234E+02 0.  0.
        -13    1    3    3    0    0 -0.31531696212E+01 -0.17269198319E+01 -0.62731032557E+03  0.62732062719E+03  0.00000000000E+00 0.  1.
         14    1    3    3    0    0  0.96823553074E+02 -0.48477269097E+02 -0.12384482771E+04  0.12431729490E+04  0.00000000000E+00 0. -1.
         11    1    5    5    0    0  0.95743771445E+00  0.11454591043E+02  0.24089776948E+03  0.24117184679E+03  0.00000000000E+00 0. -1.
        -12    1    5    5    0    0 -0.31540595699E+02 -0.77158635086E+02  0.40668783453E+03  0.41514245615E+03  0.00000000000E+00 0.  1.
          5    1    4    4  501    0 -0.74403424686E+02  0.13747574143E+02  0.14010686224E+03  0.15928675603E+03  0.41800000000E+01 0. -1.
         -5    1    4    4    0  501  0.11316199217E+02  0.10216065883E+03  0.28860712346E+03  0.30639255978E+03  0.41800000000E+01 0. -1.
</event>
<event>
11    1  0.1002087E-008  0.1916415E+03  0.7561462E-02  0.1060597E+00
         22   -1    0    0    0    0  0.00000000000E+00  0.00000000000E+00  0.53029339810E+03  0.53029339810E+03  0.00000000000E+00 0.  1.
         22   -1    0    0    0    0 -0.00000000000E+00 -0.00000000000E+00 -0.43021646387E+03  0.43021646387E+03  0.00000000000E+00 0.  1.
         24    2    1    2    0    0 -0.35767436912E+02  0.14367680373E+03 -0.33044448341E+03  0.37107289736E+03  0.81112299100E+02 0.  0.
         25    2    1    2    0    0  0.14175098940E+03 -0.84437405765E+02  0.10568733022E+03  0.23246509155E+03  0.12508872264E+03 0.  0.
        -24    2    1    2    0    0 -0.10598355249E+03 -0.59239397965E+02  0.32483408742E+03  0.35697187305E+03  0.84675345474E+02 0.  0.
        -11    1    3    3    0    0 -0.47719207770E+02  0.72540148602E+02 -0.24101019056E+03  0.25617397975E+03  0.00000000000E+00 0.  1.
         12    1    3    3    0    0  0.11951770858E+02  0.71136655129E+02 -0.89434292857E+02  0.11489891761E+03  0.00000000000E+00 0. -1.
         11    1    5    5    0    0 -0.14482333582E+02  0.62411870628E+01  0.30223034842E+01  0.16056921258E+02  0.00000000000E+00 0. -1.
        -12    1    5    5    0    0 -0.91501218908E+02 -0.65480585028E+02  0.32181178393E+03  0.34091495179E+03  0.00000000000E+00 0.  1.
          5    1    4    4  501    0 -0.16297193525E+02 -0.28734046598E+01  0.38827483866E+02  0.42413451575E+02  0.41800000000E+01 0.  1.
         -5    1    4    4    0  501  0.15804818293E+03 -0.81564001105E+02  0.66859846355E+02  0.19005163998E+03  0.41800000000E+01 0.  1.
</event>
<event>
11    1  0.1002087E-008  0.1278160E+03  0.7561462E-02  0.1121982E+00
         22   -1    0    0    0    0  0.00000000000E+00  0.00000000000E+00  0.18461698308E+03  0.18461698308E+03  0.00000000000E+00 0. -1.
         22   -1    0    0    0    0 -0.00000000000E+00 -0.00000000000E+00 -0.53202103428E+03  0.53202103428E+03  0.00000000000E+00 0.  1.
         24    2    1    2    0    0 -0.10261527101E+02 -0.95412053057E+01 -0.43084174613E+03  0.43534679245E+03  0.60875988324E+02 0.  0.
         25    2    1    2    0    0  0.34067264006E+02  0.17332242646E+01 -0.36891482969E+02  0.13485392717E+03  0.12514398753E+03 0.  0.
        -24    2    1    2    0    0 -0.23805736905E+02  0.78079810411E+01  0.12032917789E+03  0.14643729773E+03  0.79605863083E+02 0.  0.
        -11    1    3    3    0    0 -0.21071552581E+02 -0.30787301708E+02 -0.30438425568E+03  0.30666209968E+03  0.00000000000E+00 0.  1.
         12    1    3    3    0    0  0.10810025480E+02  0.21246096403E+02 -0.12645749045E+03  0.12868469277E+03  0.00000000000E+00 0. -1.
         11    1    5    5    0    0 -0.22932122764E+02 -0.32501137981E+02  0.80355053643E+02  0.89661256240E+02  0.00000000000E+00 0. -1.
        -12    1    5    5    0    0 -0.87361414127E+00  0.40309119022E+02  0.39974124251E+02  0.56776041494E+02  0.00000000000E+00 0.  1.
          5    1    4    4  501    0 -0.78607970716E+01  0.57836185118E+02 -0.83633316101E+01  0.59112047463E+02  0.41800000000E+01 0.  1.
         -5    1    4    4    0  501  0.41928061077E+02 -0.56102960854E+02 -0.28528151359E+02  0.75741879712E+02  0.41800000000E+01 0.  1.
</event>
<event>
11    1  0.1002087E-008  0.1358099E+03  0.7561462E-02  0.1112330E+00
         22   -1    0    0    0    0  0.00000000000E+00  0.00000000000E+00  0.18988508343E+04  0.18988508343E+04  0.00000000000E+00 0.  1.
         22   -1    0    0    0    0 -0.00000000000E+00 -0.00000000000E+00 -0.13089095755E+03  0.13089095755E+03  0.00000000000E+00 0.  1.
         24    2    1    2    0    0  0.16083999445E+02  0.41959373264E+01 -0.92171210576E+02  0.12352253704E+03  0.80535608087E+02 0.  0.
         25    2    1    2    0    0  0.12479025181E+02  0.41183272864E+02  0.18051160219E+03  0.22379352191E+03  0.12508922371E+03 0.  0.
        -24    2    1    2    0    0 -0.28563024626E+02 -0.45379210190E+02  0.16796194852E+04  0.16824257329E+04  0.80991436672E+02 0.  0.
        -11    1    3    3    0    0  0.70593831461E+01 -0.27524609500E+02 -0.85201185061E+02  0.89814703441E+02  0.00000000000E+00 0.  1.
         12    1    3    3    0    0  0.90246162991E+01  0.31720546827E+02 -0.69700255151E+01  0.33707833600E+02  0.00000000000E+00 0. -1.
         11    1    5    5    0    0  0.13813896611E+02 -0.31096491653E+02  0.27536303899E+03  0.27745741795E+03  0.00000000000E+00 0. -1.
        -12    1    5    5    0    0 -0.42376921237E+02 -0.14282718537E+02  0.14042564462E+04  0.14049683150E+04  0.00000000000E+00 0.  1.
          5    1    4    4  501    0  0.46350575242E+02 -0.22282695802E+02  0.11647147361E+03  0.12738905338E+03  0.41800000000E+01 0. -1.
         -5    1    4    4    0  501 -0.33871550061E+02  0.63465968666E+02  0.64040128583E+02  0.96404468523E+02  0.41800000000E+01 0. -1.
</event>
<event>
11    1  0.1002087E-008  0.1476616E+03  0.7561462E-02  0.1099292E+00
         22   -1    0    0    0    0  0.00000000000E+00  0.00000000000E+00  0.16067936966E+04  0.16067936966E+04  0.00000000000E+00 0.  1.
         22   -1    0    0    0    0 -0.00000000000E+00 -0.00000000000E+00 -0.59530403973E+03  0.59530403973E+03  0.00000000000E+00 0.  1.
         24    2    1    2    0    0 -0.25249395426E+02 -0.41225763535E+02 -0.51933240562E+03  0.52804024094E+03  0.82360506165E+02 0.  0.
         25    2    1    2    0    0 -0.23190911003E+01  0.11376133164E+03  0.33255146941E+02  0.17233823523E+03  0.12509014255E+03 0.  0.
        -24    2    1    2    0    0  0.27568486527E+02 -0.72535568109E+02  0.14975669156E+04  0.15017192602E+04  0.80203738511E+02 0.  0.
        -13    1    3    3    0    0 -0.35551505891E+02 -0.58001573332E+02 -0.29036084942E+03  0.29822393424E+03  0.00000000000E+00 0.  1.
         14    1    3    3    0    0  0.10302110464E+02  0.16775809797E+02 -0.22897155620E+03  0.22981630670E+03  0.00000000000E+00 0. -1.
         11    1    5    5    0    0 -0.17520438124E+00  0.97609989937E+01  0.29249868047E+02  0.30836059715E+02  0.00000000000E+00 0. -1.
        -12    1    5    5    0    0  0.27743690908E+02 -0.82296567103E+02  0.14683170475E+04  0.14708832005E+04  0.00000000000E+00 0.  1.
          5    1    4    4  501    0 -0.37547124381E+02  0.25912775238E+02  0.58488721878E+02  0.74294424129E+02  0.41800000000E+01 0.  1.
         -5    1    4    4    0  501  0.35228033281E+02  0.87848556406E+02 -0.25233574936E+02  0.98043811103E+02  0.41800000000E+01 0.  1.
</event>
<event>
11    1  0.1002087E-008  0.1982345E+03  0.7561462E-02  0.1055779E+00
         22   -1    0    0    0    0  0.00000000000E+00  0.00000000000E+00  0.30761183853E+03  0.30761183853E+03  0.00000000000E+00 0. -1.
         22   -1    0    0    0    0 -0.00000000000E+00 -0.00000000000E+00 -0.95472406102E+03  0.95472406102E+03  0.00000000000E+00 0.  1.
         24    2    1    2    0    0  0.37474488141E+02 -0.22405393120E+02 -0.79633264260E+03  0.80185002898E+03  0.83135145404E+02 0.  0.
         25    2    1    2    0    0  0.92375964784E+02  0.11163865951E+03 -0.45779783111E+02  0.19681863677E+03  0.12508108599E+03 0.  0.
        -24    2    1    2    0    0 -0.12985045293E+03 -0.89233266386E+02  0.19500020321E+03  0.26366723380E+03  0.81679954550E+02 0.  0.
        -13    1    3    3    0    0 -0.10262774880E+02 -0.28548385847E+02 -0.55135625246E+03  0.55219023172E+03  0.00000000000E+00 0.  1.
         14    1    3    3    0    0  0.47737263021E+02  0.61429927265E+01 -0.24497639014E+03  0.24965979725E+03  0.00000000000E+00 0. -1.
         11    1    5    5    0    0 -0.13762465045E+03 -0.95150004315E+02  0.18786307402E+03  0.25156828559E+03  0.00000000000E+00 0. -1.
        -12    1    5    5    0    0  0.77741975254E+01  0.59167379289E+01  0.71371291867E+01  0.12098948215E+02  0.00000000000E+00 0.  1.
          5    1    4    4  501    0  0.88475158216E+02  0.12646113385E+03 -0.68652248992E+02  0.16897004375E+03  0.41800000000E+01 0.  1.
         -5    1    4    4    0  501  0.39008065684E+01 -0.14822474339E+02  0.22872465881E+02  0.27848593015E+02  0.41800000000E+01 0.  1.
</event>
<event>
11    1  0.1002087E-008  0.1404877E+03  0.7561462E-02  0.1107015E+00
         22   -1    0    0    0    0  0.00000000000E+00  0.00000000000E+00  0.31251851523E+03  0.31251851523E+03  0.00000000000E+00 0.  1.
         22   -1    0    0    0    0 -0.00000000000E+00 -0.00000000000E+00 -0.96283394215E+03  0.96283394215E+03  0.00000000000E+00 0. -1.
         24    2    1    2    0    0  0.20990409016E+02 -0.60234012695E+02 -0.88019761487E+03  0.88595651713E+03  0.78117702579E+02 0.  0.
         25    2    1    2    0    0 -0.21137937902E+02  0.65085336475E+02 -0.35594967991E+01  0.14261877219E+03  0.12507809848E+03 0.  0.
        -24    2    1    2    0    0  0.14752888626E+00 -0.48513237797E+01  0.23344168475E+03  0.24677716807E+03  0.79877364700E+02 0.  0.
        -11    1    3    3    0    0  0.21813031767E+02 -0.20027998726E+02 -0.90213199215E+02  0.94949199051E+02  0.00000000000E+00 0.  1.
         12    1    3    3    0    0 -0.82262275140E+00 -0.40206013969E+02 -0.78998441566E+03  0.79100731808E+03  0.00000000000E+00 0. -1.
         11    1    5    5    0    0  0.22841517824E+02 -0.80024645276E+01  0.18105578052E+02  0.30225590675E+02  0.00000000000E+00 0. -1.
        -12    1    5    5    0    0 -0.22693988938E+02  0.31511407479E+01  0.21533610670E+03  0.21655157739E+03  0.00000000000E+00 0.  1.
          5    1    4    4  501    0  0.23724661052E+02  0.78162260911E+02 -0.31918187713E+02  0.87797731631E+02  0.41800000000E+01 0. -1.
         -5    1    4    4    0  501 -0.44862598954E+02 -0.13076924436E+02  0.28358690914E+02  0.54821040559E+02  0.41800000000E+01 0. -1.
</event>
<event>
11    1  0.1002087E-008  0.2635665E+03  0.7561462E-02  0.1016910E+00
         22   -1    0    0    0    0  0.00000000000E+00  0.00000000000E+00  0.41199109693E+03  0.41199109693E+03  0.00000000000E+00 0. -1.
         22   -1    0    0    0    0 -0.00000000000E+00 -0.00000000000E+00 -0.11098690583E+04  0.11098690583E+04  0.00000000000E+00 0.  1.
        -24    2    1    2    0    0 -0.22343516278E+03  0.30051623786E+02 -0.92816178308E+03  0.95855967117E+03  0.80783510464E+02 0.  0.
         25    2    1    2    0    0  0.31184646773E+03 -0.63715807422E+02  0.51822319508E+02  0.34589064718E+03  0.12508742326E+03 0.  0.
         24    2    1    2    0    0 -0.88411304948E+02  0.33664183636E+02  0.17846150222E+03  0.21740983686E+03  0.80428187146E+02 0.  0.
        -13    1    5    5    0    0 -0.21838273292E+02 -0.17121481121E+02  0.95842043423E+02  0.99778517646E+02  0.00000000000E+00 0.  1.
         14    1    5    5    0    0 -0.66573031657E+02  0.50785664757E+02  0.82619458797E+02  0.11763131922E+03  0.00000000000E+00 0. -1.
         11    1    3    3    0    0 -0.10115156053E+02 -0.70492959017E+01 -0.15974222513E+03  0.16021731319E+03  0.00000000000E+00 0. -1.
        -12    1    3    3    0    0 -0.21332000673E+03  0.37100919688E+02 -0.76841955795E+03  0.79834235799E+03  0.00000000000E+00 0.  1.
          5    1    4    4  501    0  0.25451928542E+03 -0.34803135116E+02  0.88612302151E+02  0.27177368775E+03  0.41800000000E+01 0. -1.
         -5    1    4    4    0  501  0.57327182313E+02 -0.28912672306E+02 -0.36789982643E+02  0.74116959427E+02  0.41800000000E+01 0. -1.
</event>
<event>
11    1  0.1002087E-008  0.1339974E+03  0.7561462E-02  0.1114453E+00
         22   -1    0    0    0    0  0.00000000000E+00  0.00000000000E+00  0.92981876382E+02  0.92981876382E+02  0.00000000000E+00 0.  1.
         22   -1    0    0    0    0 -0.00000000000E+00 -0.00000000000E+00 -0.22824303129E+04  0.22824303129E+04  0.00000000000E+00 0. -1.
        -24    2    1    2    0    0 -0.41122583157E+02  0.27721634985E+02 -0.19233303370E+04  0.19255988441E+04  0.79194490120E+02 0.  0.
         25    2    1    2    0    0  0.31581051270E+02 -0.84833756570E+01 -0.32414852310E+03  0.34898292328E+03  0.12508990869E+03 0.  0.
         24    2    1    2    0    0  0.95415318873E+01 -0.19238259328E+02  0.58030423579E+02  0.10083042190E+03  0.79612137689E+02 0.  0.
        -11    1    5    5    0    0  0.71733441037E+01  0.21304416730E+02  0.55799449647E+02  0.60157407015E+02  0.00000000000E+00 0.  1.
         12    1    5    5    0    0  0.23681877836E+01 -0.40542676059E+02  0.22309739327E+01  0.40673014888E+02  0.00000000000E+00 0. -1.
         11    1    3    3    0    0 -0.60715214801E+02  0.10819545429E+02 -0.16176893278E+04  0.16188644666E+04  0.00000000000E+00 0. -1.
        -12    1    3    3    0    0  0.19592631644E+02  0.16902089556E+02 -0.30564100922E+03  0.30673437754E+03  0.00000000000E+00 0.  1.
          5    1    4    4  501    0 -0.42410744772E+02 -0.98550254274E+00 -0.19754617808E+03  0.20209306609E+03  0.41800000000E+01 0.  1.
         -5    1    4    4    0  501  0.73991796042E+02 -0.74978731142E+01 -0.12660234502E+03  0.14688985719E+03  0.41800000000E+01 0.  1.
</event>
<event>
11    1  0.1002087E-008  0.1476969E+03  0.7561462E-02  0.1099256E+00
         22   -1    0    0    0    0  0.00000000000E+00  0.00000000000E+00  0.65272165889E+03  0.65272165889E+03  0.00000000000E+00 0.  1.
         22   -1    0    0    0    0 -0.00000000000E+00 -0.00000000000E+00 -0.15624522397E+04  0.15624522397E+04  0.00000000000E+00 0.  1.
        -24    2    1    2    0    0  0.20595712440E+02  0.41584196960E+02 -0.14662407342E+04  0.14692483591E+04  0.81703250114E+02 0.  0.
         25    2    1    2    0    0 -0.95792334169E+02 -0.20935185779E+02 -0.18592706992E+02  0.16002479459E+03  0.12509113813E+03 0.  0.
         24    2    1    2    0    0  0.75196621728E+02 -0.20649011181E+02  0.57510286041E+03  0.58590074494E+03  0.80345935121E+02 0.  0.
        -13    1    5    5    0    0  0.82041206166E+02  0.26492545189E+01  0.50692109877E+03  0.51352388303E+03  0.00000000000E+00 0.  1.
         14    1    5    5    0    0 -0.68445844372E+01 -0.23298265699E+02  0.68181761637E+02  0.72376861915E+02  0.00000000000E+00 0. -1.
         13    1    3    3    0    0 -0.42466066496E+01 -0.69628193632E+01 -0.15781384013E+02  0.17764194406E+02  0.00000000000E+00 0. -1.
        -14    1    3    3    0    0  0.24842319090E+02  0.48547016323E+02 -0.14504593502E+04  0.14514841647E+04  0.00000000000E+00 0.  1.
          5    1    4    4  501    0 -0.82847618508E+02  0.38611166303E+02 -0.33000920960E+02  0.97268099807E+02  0.41800000000E+01 0.  1.
         -5    1    4    4    0  501 -0.12944715660E+02 -0.59546352082E+02  0.14408213968E+02  0.62756694779E+02  0.41800000000E+01 0.  1.
</event>
<event>
11    1  0.1002087E-008  0.1290230E+03  0.7561462E-02  0.1120475E+00
         22   -1    0    0    0    0  0.00000000000E+00  0.00000000000E+00  0.63954101672E+03  0.63954101672E+03  0.00000000000E+00 0.  1.
         22   -1    0    0    0    0 -0.00000000000E+00 -0.00000000000E+00 -0.15498026648E+04  0.15498026648E+04  0.00000000000E+00 0. -1.
         24    2    1    2    0    0  0.10882882359E+02 -0.29341685795E+02 -0.14276969099E+04  0.14302953013E+04  0.80292034247E+02 0.  0.
         25    2    1    2    0    0 -0.12151331335E+02  0.41874531517E+02 -0.80933275738E+02  0.15521894908E+03  0.12506636554E+03 0.  0.
        -24    2    1    2    0    0  0.12684489757E+01 -0.12532845722E+02  0.59836853748E+03  0.60382943120E+03  0.80039953518E+02 0.  0.
        -11    1    3    3    0    0  0.57499297098E+01 -0.49833183585E+02 -0.53454884962E+03  0.53689745809E+03  0.00000000000E+00 0.  1.
         12    1    3    3    0    0  0.51329526497E+01  0.20491497790E+02 -0.89314806024E+03  0.89339784318E+03  0.00000000000E+00 0. -1.
         11    1    5    5    0    0 -0.56879780313E+01 -0.42907843867E+02  0.22246587790E+03  0.22663738216E+03  0.00000000000E+00 0. -1.
        -12    1    5    5    0    0  0.69564270070E+01  0.30374998145E+02  0.37590265958E+03  0.37719204905E+03  0.00000000000E+00 0.  1.
          5    1    4    4  501    0  0.27445615581E+02 -0.32148697131E+02 -0.50115082848E+02  0.65694706565E+02  0.41800000000E+01 0.  1.
         -5    1    4    4    0  501 -0.39596946917E+02  0.74023228648E+02 -0.30818192890E+02  0.89524242513E+02  0.41800000000E+01 0.  1.
</event>
<event>
11    1  0.1002087E-008  0.1271863E+03  0.7561462E-02  0.1122775E+00
         22   -1    0    0    0    0  0.00000000000E+00  0.00000000000E+00  0.14810714304E+03  0.14810714304E+03  0.00000000000E+00 0. -1.
         22   -1    0    0    0    0 -0.00000000000E+00 -0.00000000000E+00 -0.68998702730E+03  0.68998702730E+03  0.00000000000E+00 0.  1.
        -24    2    1    2    0    0 -0.87036180966E+01  0.51212731097E+01 -0.58598234932E+03  0.59168712053E+03  0.81340976621E+02 0.  0.
         25    2    1    2    0    0 -0.15807748811E+02 -0.34591503222E+01 -0.32721491952E+02  0.13033634445E+03  0.12512000641E+03 0.  0.
         24    2    1    2    0    0  0.24511366907E+02 -0.16621227875E+01  0.76823957014E+02  0.11607070536E+03  0.83468068818E+02 0.  0.
        -13    1    5    5    0    0  0.17770501915E+02 -0.12604939271E+02 -0.12974141019E+02  0.25357515011E+02  0.00000000000E+00 0.  1.
         14    1    5    5    0    0  0.67408649918E+01  0.10942816483E+02  0.89798098033E+02  0.90713190352E+02  0.00000000000E+00 0. -1.
         11    1    3    3    0    0  0.27752126570E+02  0.27589046274E+02 -0.27518053403E+03  0.27794902826E+03  0.00000000000E+00 0. -1.
        -12    1    3    3    0    0 -0.36455744667E+02 -0.22467773165E+02 -0.31080181529E+03  0.31373809227E+03  0.00000000000E+00 0.  1.
          5    1    4    4  501    0  0.26111859951E+02  0.49866735695E+02 -0.25686901602E+02  0.62014594031E+02  0.41800000000E+01 0. -1.
         -5    1    4    4    0  501 -0.41919608762E+02 -0.53325886017E+02 -0.70345903496E+01  0.68321750414E+02  0.41800000000E+01 0. -1.
</event>
<event>
11    1  0.1002087E-008  0.1464896E+03  0.7561462E-02  0.1100521E+00
         22   -1    0    0    0    0  0.00000000000E+00  0.00000000000E+00  0.36788917207E+03  0.36788917207E+03  0.00000000000E+00 0. -1.
         22   -1    0    0    0    0 -0.00000000000E+00 -0.00000000000E+00 -0.80545743620E+03  0.80545743620E+03  0.00000000000E+00 0.  1.
         24    2    1    2    0    0  0.67828166728E+02  0.20327451874E+01 -0.61718344490E+03  0.62609431113E+03  0.80460484198E+02 0.  0.
         25    2    1    2    0    0 -0.10834109356E+03 -0.64382647065E+02 -0.12988778272E+03  0.21999020400E+03  0.12506772549E+03 0.  0.
        -24    2    1    2    0    0  0.40512926835E+02  0.62349901877E+02  0.30950296349E+03  0.32726209314E+03  0.76023586445E+02 0.  0.
        -11    1    3    3    0    0  0.48466708891E+02  0.39762765083E+02 -0.38474158099E+03  0.38981557627E+03  0.00000000000E+00 0.  1.
         12    1    3    3    0    0  0.19361457837E+02 -0.37730019896E+02 -0.23244186391E+03  0.23627873486E+03  0.00000000000E+00 0. -1.
         11    1    5    5    0    0  0.90573861533E+01  0.58912688352E+02  0.27074120856E+03  0.27722471590E+03  0.00000000000E+00 0. -1.
        -12    1    5    5    0    0  0.31455540682E+02  0.34372135254E+01  0.38761754928E+02  0.50037377245E+02  0.00000000000E+00 0.  1.
          5    1    4    4  501    0 -0.84347688686E+02  0.19268095834E+02 -0.87419339200E+02  0.12306667043E+03  0.41800000000E+01 0. -1.
         -5    1    4    4    0  501 -0.23993404877E+02 -0.83650742899E+02 -0.42468443519E+02  0.96923533572E+02  0.41800000000E+01 0. -1.
</event>
<event>
11    1  0.1002087E-008  0.1622941E+03  0.7561462E-02  0.1084939E+00
         22   -1    0    0    0    0  0.00000000000E+00  0.00000000000E+00  0.68946179152E+03  0.68946179152E+03  0.00000000000E+00 0. -1.
         22   -1    0    0    0    0 -0.00000000000E+00 -0.00000000000E+00 -0.47318732598E+03  0.47318732598E+03  0.00000000000E+00 0.  1.
        -24    2    1    2    0    0  0.21175870198E+02  0.21078543903E+02 -0.34232157529E+03  0.35289376859E+03  0.80356882147E+02 0.  0.
         25    2    1    2    0    0 -0.12265703824E+03 -0.32063945906E+02 -0.51545461213E+02  0.18541305292E+03  0.12509284537E+03 0.  0.
         24    2    1    2    0    0  0.10148116805E+03  0.10985402003E+02  0.61014150205E+03  0.62434229600E+03  0.84329968114E+02 0.  0.
        -11    1    5    5    0    0  0.63331768484E+01 -0.20252687834E+02  0.23857570363E+03  0.23951752933E+03  0.00000000000E+00 0.  1.
         12    1    5    5    0    0  0.95147991199E+02  0.31238089837E+02  0.37156579842E+03  0.38482476667E+03  0.00000000000E+00 0. -1.
         13    1    3    3    0    0 -0.10257982237E+02 -0.15843637775E+02 -0.22282389806E+02  0.29201916940E+02  0.00000000000E+00 0. -1.
        -14    1    3    3    0    0  0.31433852435E+02  0.36922181678E+02 -0.32003918549E+03  0.32369185165E+03  0.00000000000E+00 0.  1.
          5    1    4    4  501    0 -0.59342906344E+01 -0.45148735022E+02  0.17663179656E+02  0.49021264723E+02  0.41800000000E+01 0.  1.
         -5    1    4    4    0  501 -0.11672274761E+03  0.13084789116E+02 -0.69208640869E+02  0.13639178819E+03  0.41800000000E+01 0.  1.
</event>
<event>
11    1  0.1002087E-008  0.1420895E+03  0.7561462E-02  0.1105247E+00
         22   -1    0    0    0    0  0.00000000000E+00  0.00000000000E+00  0.12100625791E+03  0.12100625791E+03  0.00000000000E+00 0. -1.
         22   -1    0    0    0    0 -0.00000000000E+00 -0.00000000000E+00 -0.15758132411E+04  0.15758132411E+04  0.00000000000E+00 0. -1.
        -24    2    1    2    0    0 -0.47785190621E+02 -0.56953744084E+02 -0.66345925009E+03  0.67215944281E+03  0.78057585348E+02 0.  0.
         25    2    1    2    0    0  0.52879521540E+02  0.30442224778E+02 -0.88662058441E+03  0.89747643044E+03  0.12507961324E+03 0.  0.
         24    2    1    2    0    0 -0.50943309189E+01  0.26511519306E+02  0.95272851295E+02  0.12718362576E+03  0.79811938984E+02 0.  0.
        -11    1    5    5    0    0  0.95813267164E+01 -0.24858597827E+02  0.52017464971E+02  0.58442864146E+02  0.00000000000E+00 0.  1.
         12    1    5    5    0    0 -0.14675657635E+02  0.51370117134E+02  0.43255386324E+02  0.68740761615E+02  0.00000000000E+00 0. -1.
         11    1    3    3    0    0  0.17921377997E+02 -0.30557953713E+02 -0.27824489435E+03  0.28049097232E+03  0.00000000000E+00 0. -1.
        -12    1    3    3    0    0 -0.65706568618E+02 -0.26395790372E+02 -0.38521435574E+03  0.39166847049E+03  0.00000000000E+00 0.  1.
          5    1    4    4  501    0 -0.12683736544E+02  0.36379952272E+02 -0.66794492846E+03  0.66906821622E+03  0.41800000000E+01 0.  1.
         -5    1    4    4    0  501  0.65563258085E+02 -0.59377274944E+01 -0.21867565595E+03  0.22840821423E+03  0.41800000000E+01 0.  1.
</event>
<event>
11    1  0.1002087E-008  0.1716734E+03  0.7561462E-02  0.1076585E+00
         22   -1    0    0    0    0  0.00000000000E+00  0.00000000000E+00  0.89819700707E+03  0.89819700707E+03  0.00000000000E+00 0. -1.
         22   -1    0    0    0    0 -0.00000000000E+00 -0.00000000000E+00 -0.10854863671E+03  0.10854863671E+03  0.00000000000E+00 0. -1.
         24    2    1    2    0    0  0.32289945432E+01 -0.18647905296E+02  0.21624903295E+02  0.67541275812E+02  0.61122963918E+02 0.  0.
         25    2    1    2    0    0 -0.10457875541E+03  0.76318161170E+02  0.24123808505E+02  0.18163404769E+03  0.12509113212E+03 0.  0.
        -24    2    1    2    0    0  0.10134976086E+03 -0.57670255875E+02  0.74389965856E+03  0.75757032027E+03  0.83237345657E+02 0.  0.
        -13    1    3    3    0    0 -0.25594907552E+02  0.14818909575E+01 -0.11301359102E+01  0.25662667449E+02  0.00000000000E+00 0.  1.
         14    1    3    3    0    0  0.28823902095E+02 -0.20129796253E+02  0.22755039205E+02  0.41878608363E+02  0.00000000000E+00 0. -1.
         13    1    5    5    0    0  0.84238351830E+02 -0.15237301920E+02  0.61205357495E+03  0.61801120855E+03  0.00000000000E+00 0. -1.
        -14    1    5    5    0    0  0.17111409032E+02 -0.42432953955E+02  0.13184608361E+03  0.13955911172E+03  0.00000000000E+00 0.  1.
          5    1    4    4  501    0 -0.95645262310E+02  0.47161566934E+01  0.45720471181E+02  0.10619836261E+03  0.41800000000E+01 0.  1.
         -5    1    4    4    0  501 -0.89334930951E+01  0.71602004477E+02 -0.21596662676E+02  0.75435685075E+02  0.41800000000E+01 0.  1.
</event>
<event>
11    1  0.1002087E-008  0.3303907E+03  0.7561462E-02  0.9880910E-01
         22   -1    0    0    0    0  0.00000000000E+00  0.00000000000E+00  0.22097733100E+04  0.22097733100E+04  0.00000000000E+00 0. -1.
         22   -1    0    0    0    0 -0.00000000000E+00 -0.00000000000E+00 -0.90994212260E+03  0.90994212260E+03  0.00000000000E+00 0.  1.
         24    2    1    2    0    0 -0.62802420666E+02 -0.14439320623E+03 -0.81136011804E+03  0.83045478397E+03  0.80971383954E+02 0.  0.
         25    2    1    2    0    0  0.15555654369E+03  0.40946061335E+03  0.61788888077E+03  0.76765219662E+03  0.12508954322E+03 0.  0.
        -24    2    1    2    0    0 -0.92754123026E+02 -0.26506740712E+03  0.14933024247E+04  0.15216084520E+04  0.80474169857E+02 0.  0.
        -11    1    3    3    0    0 -0.54868133193E+02 -0.97331325978E+02 -0.70603366319E+03  0.71481986025E+03  0.00000000000E+00 0.  1.
         12    1    3    3    0    0 -0.79342874737E+01 -0.47061880253E+02 -0.10532645486E+03  0.11563492372E+03  0.00000000000E+00 0. -1.
         13    1    5    5    0    0 -0.78963325146E+02 -0.22751395821E+03  0.13922491642E+04  0.14129244647E+04  0.00000000000E+00 0. -1.
        -14    1    5    5    0    0 -0.13790797880E+02 -0.37553448911E+02  0.10105326051E+03  0.10868398728E+03  0.00000000000E+00 0.  1.
          5    1    4    4  501    0  0.22488006492E+02  0.21733356971E+03  0.25299576937E+03  0.33431111660E+03  0.41800000000E+01 0. -1.
         -5    1    4    4    0  501  0.13306853720E+03  0.19212704364E+03  0.36489311139E+03  0.43334108002E+03  0.41800000000E+01 0. -1.
</event>
<event>
11    1  0.1002087E-008  0.1262018E+03  0.7561462E-02  0.1124026E+00
         22   -1    0    0    0    0  0.00000000000E+00  0.00000000000E+00  0.15861423523E+04  0.15861423523E+04  0.00000000000E+00 0.  1.
         22   -1    0    0    0    0 -0.00000000000E+00 -0.00000000000E+00 -0.34879315506E+02  0.34879315506E+02  0.00000000000E+00 0.  1.
         24    2    1    2    0    0 -0.34761692948E+01  0.25535636212E+02  0.12663151657E+03  0.15311285097E+03  0.82120957581E+02 0.  0.
         25    2    1    2    0    0 -0.29993637180E+01 -0.47083208687E+01  0.17385451276E+03  0.21424344050E+03  0.12507476052E+03 0.  0.
        -24    2    1    2    0    0  0.64755330128E+01 -0.20827315343E+02  0.12507770075E+04  0.12536653764E+04  0.82207322339E+02 0.  0.
        -13    1    3    3    0    0 -0.14615612611E+02  0.50084808553E+02  0.51578742440E+02  0.73365324585E+02  0.00000000000E+00 0.  1.
         14    1    3    3    0    0  0.11139443316E+02 -0.24549172341E+02  0.75052774134E+02  0.79747526389E+02  0.00000000000E+00 0. -1.
         11    1    5    5    0    0 -0.25954679626E+02 -0.21355285477E+02  0.23719219301E+03  0.23956174577E+03  0.00000000000E+00 0. -1.
        -12    1    5    5    0    0  0.32430212639E+02  0.52797013382E+00  0.10135848145E+04  0.10141036306E+04  0.00000000000E+00 0.  1.
          5    1    4    4  501    0  0.48060200815E+02 -0.31768612215E+02  0.45885836811E+02  0.73769980644E+02  0.41800000000E+01 0. -1.
         -5    1    4    4    0  501 -0.51059564533E+02  0.27060291347E+02  0.12796867595E+03  0.14047345985E+03  0.41800000000E+01 0. -1.
</event>
<event>
11    1  0.1002087E-008  0.1533555E+03  0.7561462E-02  0.1093499E+00
         22   -1    0    0    0    0  0.00000000000E+00  0.00000000000E+00  0.10315562041E+04  0.10315562041E+04  0.00000000000E+00 0. -1.
         22   -1    0    0    0    0 -0.00000000000E+00 -0.00000000000E+00 -0.78664620104E+02  0.78664620104E+02  0.00000000000E+00 0.  1.
        -24    2    1    2    0    0 -0.11040866721E+02  0.87957331912E+02  0.24337067727E+02  0.11921699963E+03  0.75907886014E+02 0.  0.
         25    2    1    2    0    0  0.63193775514E+01 -0.88787904633E+02  0.17364786424E+03  0.23178399197E+03  0.12508801556E+03 0.  0.
         24    2    1    2    0    0  0.47214891699E+01  0.83057272069E+00  0.75490665203E+03  0.75921983261E+03  0.80670432247E+02 0.  0.
        -11    1    5    5    0    0  0.25738267448E+02 -0.29105221354E+02  0.25120531333E+03  0.25419221422E+03  0.00000000000E+00 0.  1.
         12    1    5    5    0    0 -0.21016778278E+02  0.29935794075E+02  0.50370133870E+03  0.50502761840E+03  0.00000000000E+00 0. -1.
         11    1    3    3    0    0 -0.39707244099E+01 -0.13538229521E+02 -0.16620908172E+01  0.14206085203E+02  0.00000000000E+00 0. -1.
        -12    1    3    3    0    0 -0.70701423115E+01  0.10149556143E+03  0.25999158544E+02  0.10501091442E+03  0.00000000000E+00 0.  1.
          5    1    4    4  501    0  0.38526792153E+02 -0.36788682802E+02  0.65988265080E+01  0.53839927630E+02  0.41800000000E+01 0. -1.
         -5    1    4    4    0  501 -0.32207414602E+02 -0.51999221830E+02  0.16704903773E+03  0.17794406434E+03  0.41800000000E+01 0. -1.
</event>
<event>
11    1  0.1002087E-008  0.1291984E+03  0.7561462E-02  0.1120258E+00
         22   -1    0    0    0    0  0.00000000000E+00  0.00000000000E+00  0.14413141867E+04  0.14413141867E+04  0.00000000000E+00 0. -1.
         22   -1    0    0    0    0 -0.00000000000E+00 -0.00000000000E+00 -0.69369032583E+03  0.69369032583E+03  0.00000000000E+00 0.  1.
        -24    2    1    2    0    0 -0.54589596284E+01  0.67157860286E+01 -0.44698709956E+03  0.45407573400E+03  0.79450632509E+02 0.  0.
         25    2    1    2    0    0  0.15481371285E+02  0.24057942946E+02 -0.22483290797E+03  0.25887192357E+03  0.12508548611E+03 0.  0.
         24    2    1    2    0    0 -0.10022411656E+02 -0.30773728975E+02  0.14194438684E+04  0.14220568550E+04  0.79858199569E+02 0.  0.
        -13    1    5    5    0    0 -0.29197299300E+02 -0.30058817650E+02  0.35870063364E+03  0.36114008276E+03  0.00000000000E+00 0.  1.
         14    1    5    5    0    0  0.19174887644E+02 -0.71491132436E+00  0.10607432348E+04  0.10609167722E+04  0.00000000000E+00 0. -1.
         13    1    3    3    0    0  0.43494731617E+01 -0.34070380599E+02 -0.13590615836E+03  0.14017914478E+03  0.00000000000E+00 0. -1.
        -14    1    3    3    0    0 -0.98084327901E+01  0.40786166628E+02 -0.31108094120E+03  0.31389658922E+03  0.00000000000E+00 0.  1.
          5    1    4    4  501    0 -0.55118869553E+02  0.91126171183E+01 -0.96886868699E+02  0.11191812766E+03  0.41800000000E+01 0.  1.
         -5    1    4    4    0  501  0.70600240838E+02  0.14945325828E+02 -0.12794603927E+03  0.14695379592E+03  0.41800000000E+01 0.  1.
</event>
<event>
11    1  0.1002087E-008  0.2123785E+03  0.7561462E-02  0.1046100E+00
         22   -1    0    0    0    0  0.00000000000E+00  0.00000000000E+00  0.11412933281E+04  0.11412933281E+04  0.00000000000E+00 0. -1.
         22   -1    0    0    0    0 -0.00000000000E+00 -0.00000000000E+00 -0.18671512724E+03  0.18671512724E+03  0.00000000000E+00 0. -1.
         24    2    1    2    0    0 -0.11964904744E+03 -0.11485516831E+03 -0.22550003828E+02  0.18564045314E+03  0.80288672467E+02 0.  0.
         25    2    1    2    0    0  0.13633920874E+03  0.12121822600E+03  0.70388986971E+02  0.23212879112E+03  0.12508768134E+03 0.  0.
        -24    2    1    2    0    0 -0.16690161301E+02 -0.63630576954E+01  0.90673921771E+03  0.91023921108E+03  0.77719768800E+02 0.  0.
        -13    1    3    3    0    0 -0.36732815673E+02 -0.83429784607E+02  0.88186539654E+01  0.91583826982E+02  0.00000000000E+00 0.  1.
         14    1    3    3    0    0 -0.82916231770E+02 -0.31425383702E+02 -0.31368657793E+02  0.94056626155E+02  0.00000000000E+00 0. -1.
         13    1    5    5    0    0 -0.20526628163E+02 -0.11693018355E+02  0.90157594660E+03  0.90188538997E+03  0.00000000000E+00 0. -1.
        -14    1    5    5    0    0  0.38364668614E+01  0.53299606593E+01  0.51632711033E+01  0.83538211074E+01  0.00000000000E+00 0.  1.
          5    1    4    4  501    0  0.99774286479E+02  0.58003486153E+01  0.30073009579E+02  0.10445291088E+03  0.41800000000E+01 0.  1.
         -5    1    4    4    0  501  0.36564922266E+02  0.11541787739E+03  0.40315977393E+02  0.12767588024E+03  0.41800000000E+01 0.  1.
</event>
<event>
11    1  0.1002087E-008  0.1465460E+03  0.7561462E-02  0.1100461E+00
         22   -1    0    0    0    0  0.00000000000E+00  0.00000000000E+00  0.17841158305E+04  0.17841158305E+04  0.00000000000E+00 0.  1.
         22   -1    0    0    0    0 -0.00000000000E+00 -0.00000000000E+00 -0.41497438408E+03  0.41497438408E+03  0.00000000000E+00 0.  1.
         24    2    1    2    0    0 -0.31458746920E+02  0.73794241029E+02 -0.29713241651E+03  0.31785798609E+03  0.79440440643E+02 0.  0.
         25    2    1    2    0    0  0.16948465674E+02 -0.57431512252E+02 -0.61448592507E+02  0.15168045437E+03  0.12508157990E+03 0.  0.
        -24    2    1    2    0    0  0.14510281246E+02 -0.16362728777E+02  0.17277224554E+04  0.17295517741E+04  0.76460245764E+02 0.  0.
        -11    1    3    3    0    0 -0.45773155457E+02  0.79470057193E+02 -0.28086338548E+03  0.29545712557E+03  0.00000000000E+00 0.  1.
         12    1    3    3    0    0  0.14314408537E+02 -0.56758161634E+01 -0.16269031036E+02  0.22400860513E+02  0.00000000000E+00 0. -1.
         11    1    5    5    0    0  0.13327670953E+02 -0.44206186804E+02  0.74180409815E+03  0.74323962071E+03  0.00000000000E+00 0. -1.
        -12    1    5    5    0    0  0.11826102926E+01  0.27843458027E+02  0.98591835726E+03  0.98631215338E+03  0.00000000000E+00 0.  1.
          5    1    4    4  501    0 -0.45928734976E+02  0.58428758592E+01 -0.67917405777E+01  0.46980719821E+02  0.41800000000E+01 0.  1.
         -5    1    4    4    0  501  0.62877200650E+02 -0.63274388111E+02 -0.54656851929E+02  0.10469973455E+03  0.41800000000E+01 0.  1.
</event>
<event>
11    1  0.1002087E-008  0.1875702E+03  0.7561462E-02  0.1063679E+00
         22   -1    0    0    0    0  0.00000000000E+00  0.00000000000E+00  0.23327955418E+04  0.23327955418E+04  0.00000000000E+00 0.  1.
         22   -1    0    0    0    0 -0.00000000000E+00 -0.00000000000E+00 -0.75450936171E+02  0.75450936171E+02  0.00000000000E+00 0.  1.
         24    2    1    2    0    0  0.45169121812E+02  0.32467225752E+02 -0.13433929575E+02  0.99016710059E+02  0.80805124180E+02 0.  0.
         25    2    1    2    0    0  0.14990181673E+02 -0.15600656623E+03  0.64083479655E+03  0.67147622104E+03  0.12509326401E+03 0.  0.
        -24    2    1    2    0    0 -0.60159303486E+02  0.12353934048E+03  0.16299437386E+04  0.16377535469E+04  0.81479927996E+02 0.  0.
        -13    1    3    3    0    0  0.85192970110E+01  0.53532467023E+02  0.13802718837E+01  0.54223690372E+02  0.00000000000E+00 0.  1.
         14    1    3    3    0    0  0.36649824801E+02 -0.21065241271E+02 -0.14814201459E+02  0.44793019686E+02  0.00000000000E+00 0. -1.
         13    1    5    5    0    0 -0.15167192551E+02 -0.80534018731E+00  0.47860862319E+03  0.47884956562E+03  0.00000000000E+00 0. -1.
        -14    1    5    5    0    0 -0.44992110935E+02  0.12434468067E+03  0.11513351155E+04  0.11589039812E+04  0.00000000000E+00 0.  1.
          5    1    4    4  501    0 -0.29599172385E+02 -0.46889263198E+00  0.44828492504E+02  0.53883179253E+02  0.41800000000E+01 0.  1.
         -5    1    4    4    0  501  0.44589354058E+02 -0.15553767360E+03  0.59600630405E+03  0.61759304179E+03  0.41800000000E+01 0.  1.
</event>
<event>
11    1  0.1002087E-008  0.1637209E+03  0.7561462E-02  0.1083629E+00
         22   -1    0    0    0    0  0.00000000000E+00  0.00000000000E+00  0.81457687901E+02  0.81457687901E+02  0.00000000000E+00 0. -1.
         22   -1    0    0    0    0 -0.00000000000E+00 -0.00000000000E+00 -0.10557116452E+04  0.10557116452E+04  0.00000000000E+00 0. -1.
        -24    2    1    2    0    0  0.64580585023E+02 -0.96270241483E+02 -0.72233235014E+03  0.73576419723E+03  0.78398459844E+02 0.  0.
         25    2    1    2    0    0  0.39723108286E+02  0.94318193438E+02 -0.20678436500E+03  0.26245031486E+03  0.12508615917E+03 0.  0.
         24    2    1    2    0    0 -0.10430369331E+03  0.19520480450E+01 -0.45137242114E+02  0.13895482097E+03  0.79924969289E+02 0.  0.
        -11    1    5    5    0    0 -0.87897705943E+02  0.22329618742E+02 -0.60119793694E+02  0.10880720646E+03  0.00000000000E+00 0.  1.
         12    1    5    5    0    0 -0.16405987366E+02 -0.20377570697E+02  0.14982551580E+02  0.30147614513E+02  0.00000000000E+00 0. -1.
         13    1    3    3    0    0  0.52830546869E+02 -0.10942633642E+03 -0.65394984798E+03  0.66514328792E+03  0.00000000000E+00 0. -1.
        -14    1    3    3    0    0  0.11750038154E+02  0.13156094935E+02 -0.68382502159E+02  0.70620909312E+02  0.00000000000E+00 0.  1.
          5    1    4    4  501    0  0.43923479375E+02 -0.17258414088E+02 -0.83979382674E+02  0.96421647007E+02  0.41800000000E+01 0. -1.
         -5    1    4    4    0  501 -0.42003710892E+01  0.11157660753E+03 -0.12280498232E+03  0.16602866785E+03  0.41800000000E+01 0. -1.
</event>
<event>
11    1  0.1002087E-008  0.3576756E+03  0.7561462E-02  0.9783617E-01
         22   -1    0    0    0    0  0.00000000000E+00  0.00000000000E+00  0.34562518836E+03  0.34562518836E+03  0.00000000000E+00 0.  1.
         22   -1    0    0    0    0 -0.00000000000E+00 -0.00000000000E+00 -0.17086331557E+04  0.17086331557E+04  0.00000000000E+00 0. -1.
        -24    2    1    2    0    0  0.47394164107E+02 -0.12256185174E+02 -0.10211272619E+04  0.10257024943E+04  0.83476348961E+02 0.  0.
         25    2    1    2    0    0 -0.96335492397E+02  0.34077408093E+03 -0.52140549887E+03  0.64258653827E+03  0.12508502542E+03 0.  0.
         24    2    1    2    0    0  0.48941328290E+02 -0.32851789575E+03  0.17952479347E+03  0.38596931151E+03  0.80149214021E+02 0.  0.
        -11    1    5    5    0    0  0.39129709888E+02 -0.30269472422E+03  0.18623008288E+03  0.35754282826E+03  0.00000000000E+00 0.  1.
         12    1    5    5    0    0  0.98116184016E+01 -0.25823171534E+02 -0.67052894155E+01  0.28426483248E+02  0.00000000000E+00 0. -1.
         13    1    3    3    0    0  0.66056067487E+02 -0.15875958973E+02 -0.54823982647E+03  0.55243312487E+03  0.00000000000E+00 0. -1.
        -14    1    3    3    0    0 -0.18661903380E+02  0.36197737993E+01 -0.47288743547E+03  0.47326936942E+03  0.00000000000E+00 0.  1.
          5    1    4    4  501    0  0.13171685267E+02  0.17530055337E+02 -0.38989085247E+01  0.22659876887E+02  0.41800000000E+01 0. -1.
         -5    1    4    4    0  501 -0.10950717766E+03  0.32324402559E+03 -0.51750659034E+03  0.61992666138E+03  0.41800000000E+01 0. -1.
</event>
<event>
11    1  0.1002087E-008  0.1410503E+03  0.7561462E-02  0.1106391E+00
         22   -1    0    0    0    0  0.00000000000E+00  0.00000000000E+00  0.72286379473E+03  0.72286379473E+03  0.00000000000E+00 0.  1.
         22   -1    0    0    0    0 -0.00000000000E+00 -0.00000000000E+00 -0.39164824370E+03  0.39164824370E+03  0.00000000000E+00 0.  1.
         24    2    1    2    0    0  0.64096158505E+02  0.64380802041E+01 -0.35908030940E+03  0.37361937885E+03  0.80641213070E+02 0.  0.
         25    2    1    2    0    0 -0.10879762771E+03  0.25440828640E+02  0.37604068569E+03  0.41175088965E+03  0.12509211915E+03 0.  0.
        -24    2    1    2    0    0  0.44701469203E+02 -0.31878908844E+02  0.31425517473E+03  0.32914176993E+03  0.81015453423E+02 0.  0.
        -11    1    3    3    0    0  0.42450047720E+02  0.30100788527E+02 -0.10162151286E+03  0.11417090653E+03  0.00000000000E+00 0.  1.
         12    1    3    3    0    0  0.21646110785E+02 -0.23662708323E+02 -0.25745879654E+03  0.25944847233E+03  0.00000000000E+00 0. -1.
         11    1    5    5    0    0 -0.32320470631E+01  0.23276197228E+02  0.10159011246E+03  0.10427261594E+03  0.00000000000E+00 0. -1.
        -12    1    5    5    0    0  0.47933516266E+02 -0.55155106072E+02  0.21266506227E+03  0.22486915399E+03  0.00000000000E+00 0.  1.
          5    1    4    4  501    0  0.83843767638E+01  0.29684566420E+02  0.18466248770E+03  0.18726766410E+03  0.41800000000E+01 0. -1.
         -5    1    4    4    0  501 -0.11718200447E+03 -0.42437377798E+01  0.19137819800E+03  0.22448322554E+03  0.41800000000E+01 0. -1.
</event>
<event>
11    1  0.1002087E-008  0.1285097E+03  0.7561462E-02  0.1121114E+00
         22   -1    0    0    0    0  0.00000000000E+00  0.00000000000E+00  0.25128025980E+04  0.25128025980E+04  0.00000000000E+00 0.  1.
         22   -1    0    0    0    0 -0.00000000000E+00 -0.00000000000E+00 -0.26036803979E+03  0.26036803979E+03  0.00000000000E+00 0. -1.
        -24    2    1    2    0    0 -0.17683817371E+02 -0.23085374586E+02 -0.22969828127E+03  0.24512976301E+03  0.80508685124E+02 0.  0.
         25    2    1    2    0    0  0.23859253319E+02  0.28989649734E+02  0.16954660777E+03  0.21402266152E+03  0.12509989479E+03 0.  0.
         24    2    1    2    0    0 -0.61754359480E+01 -0.59042751482E+01  0.23125862317E+04  0.23140182133E+04  0.80945758078E+02 0.  0.
        -11    1    5    5    0    0 -0.14481904492E+02 -0.40785007211E+02  0.15284158086E+04  0.15290284583E+04  0.00000000000E+00 0.  1.
         12    1    5    5    0    0  0.83064685441E+01  0.34880732063E+02  0.78417042316E+03  0.78498975500E+03  0.00000000000E+00 0. -1.
         11    1    3    3    0    0 -0.34038129402E+02  0.93949097024E+01 -0.18066327640E+03  0.18408171561E+03  0.00000000000E+00 0. -1.
        -12    1    3    3    0    0  0.16354312031E+02 -0.32480284288E+02 -0.49035004868E+02  0.61048047404E+02  0.00000000000E+00 0.  1.
          5    1    4    4  501    0  0.27800923228E+02  0.71416832909E+02  0.63344186870E+02  0.99514892179E+02  0.41800000000E+01 0.  1.
         -5    1    4    4    0  501 -0.39416699092E+01 -0.42427183175E+02  0.10620242090E+03  0.11450776934E+03  0.41800000000E+01 0.  1.
</event>
<event>
11    1  0.1002087E-008  0.1441640E+03  0.7561462E-02  0.1102996E+00
         22   -1    0    0    0    0  0.00000000000E+00  0.00000000000E+00  0.11302097484E+04  0.11302097484E+04  0.00000000000E+00 0. -1.
         22   -1    0    0    0    0 -0.00000000000E+00 -0.00000000000E+00 -0.44987857439E+03  0.44987857439E+03  0.00000000000E+00 0.  1.
        -24    2    1    2    0    0  0.70959981816E+02 -0.46300234838E+01 -0.41889598783E+03  0.43248099396E+03  0.80679646629E+02 0.  0.
         25    2    1    2    0    0 -0.93643135760E+02  0.46046833840E+02  0.28687737681E+03  0.32990270753E+03  0.12509124401E+03 0.  0.
         24    2    1    2    0    0  0.22683153944E+02 -0.41416810356E+02  0.81234978503E+03  0.81770462130E+03  0.80615115145E+02 0.  0.
        -13    1    5    5    0    0  0.29918701373E+02  0.79349529908E+01  0.53575137871E+03  0.53664479124E+03  0.00000000000E+00 0.  1.
         14    1    5    5    0    0 -0.72355474296E+01 -0.49351763347E+02  0.27659840632E+03  0.28105983006E+03  0.00000000000E+00 0. -1.
         13    1    3    3    0    0 -0.77588282851E+01  0.11975792871E+02 -0.15207370852E+02  0.20853852389E+02  0.00000000000E+00 0. -1.
        -14    1    3    3    0    0  0.78718810101E+02 -0.16605816355E+02 -0.40368861698E+03  0.41162714157E+03  0.00000000000E+00 0.  1.
          5    1    4    4  501    0 -0.66333815719E+02  0.55756224458E+02  0.28781298149E+03  0.30060391944E+03  0.41800000000E+01 0. -1.
         -5    1    4    4    0  501 -0.27309320041E+02 -0.97093906187E+01 -0.93560467404E+00  0.29298788087E+02  0.41800000000E+01 0. -1.
</event>
<event>
11    1  0.1002087E-008  0.1251270E+03  0.7561462E-02  0.1125406E+00
         22   -1    0    0    0    0  0.00000000000E+00  0.00000000000E+00  0.17776042889E+03  0.17776042889E+03  0.00000000000E+00 0.  1.
         22   -1    0    0    0    0 -0.00000000000E+00 -0.00000000000E+00 -0.43700947926E+03  0.43700947926E+03  0.00000000000E+00 0. -1.
         24    2    1    2    0    0  0.10033233183E+02  0.63112008663E+01 -0.31741422381E+03  0.32771258104E+03  0.80642726086E+02 0.  0.
         25    2    1    2    0    0 -0.59476065078E+01 -0.57309523180E+01 -0.63558608400E+02  0.14055489395E+03  0.12509102155E+03 0.  0.
        -24    2    1    2    0    0 -0.40856266752E+01 -0.58024854829E+00  0.12172378184E+03  0.14650243317E+03  0.81420235968E+02 0.  0.
        -11    1    3    3    0    0 -0.11810934190E+02 -0.17780623140E+02 -0.22513983324E+02  0.31024638125E+02  0.00000000000E+00 0.  1.
         12    1    3    3    0    0  0.21844167373E+02  0.24091824007E+02 -0.29490024048E+03  0.29668794291E+03  0.00000000000E+00 0. -1.
         13    1    5    5    0    0  0.12288650118E+02  0.35372950118E+02  0.35233097072E+02  0.51416219727E+02  0.00000000000E+00 0. -1.
        -14    1    5    5    0    0 -0.16374276794E+02 -0.35953198666E+02  0.86490684768E+02  0.95086213441E+02  0.00000000000E+00 0.  1.
          5    1    4    4  501    0  0.40923125458E+02  0.34054204722E+02 -0.57755182931E+02  0.78660820056E+02  0.41800000000E+01 0.  1.
         -5    1    4    4    0  501 -0.46870731966E+02 -0.39785157040E+02 -0.58034254688E+01  0.61894073892E+02  0.41800000000E+01 0.  1.
</event>
<event>
11    1  0.1002087E-008  0.2249726E+03  0.7561462E-02  0.1038146E+00
         22   -1    0    0    0    0  0.00000000000E+00  0.00000000000E+00  0.16627203212E+04  0.16627203212E+04  0.00000000000E+00 0.  1.
         22   -1    0    0    0    0 -0.00000000000E+00 -0.00000000000E+00 -0.87483531732E+03  0.87483531732E+03  0.00000000000E+00 0.  1.
         24    2    1    2    0    0 -0.98155769289E+02 -0.73402832142E+02 -0.48094627133E+03  0.50322843443E+03  0.83108426155E+02 0.  0.
         25    2    1    2    0    0  0.27724723860E+03  0.11907489743E+03 -0.30437759194E+03  0.44647181688E+03  0.12508597958E+03 0.  0.
        -24    2    1    2    0    0 -0.17909146931E+03 -0.45672065289E+02  0.15732088672E+04  0.15878553872E+04  0.11017667208E+03 0.  0.
        -13    1    3    3    0    0 -0.72915487466E+02 -0.19065993141E+02 -0.36519379568E+03  0.37288964696E+03  0.00000000000E+00 0.  1.
         14    1    3    3    0    0 -0.25240281823E+02 -0.54336839001E+02 -0.11575247565E+03  0.13033878747E+03  0.00000000000E+00 0. -1.
         11    1    5    5    0    0 -0.31245060011E+02  0.30662893986E+02  0.20891188416E+03  0.21344939023E+03  0.00000000000E+00 0. -1.
        -12    1    5    5    0    0 -0.14784640930E+03 -0.76334959275E+02  0.13642969830E+04  0.13744059970E+04  0.00000000000E+00 0.  1.
          5    1    4    4  501    0  0.20317826299E+03  0.53765884848E+02 -0.26921675503E+03  0.34156596803E+03  0.41800000000E+01 0. -1.
         -5    1    4    4    0  501  0.74068975603E+02  0.65309012584E+02 -0.35160836908E+02  0.10490584885E+03  0.41800000000E+01 0. -1.
</event>
<event>
11    1  0.1002087E-008  0.1396669E+03  0.7561462E-02  0.1107931E+00
         22   -1    0    0    0    0  0.00000000000E+00  0.00000000000E+00  0.17095722743E+04  0.17095722743E+04  0.00000000000E+00 0.  1.
         22   -1    0    0    0    0 -0.00000000000E+00 -0.00000000000E+00 -0.23001107375E+04  0.23001107375E+04  0.00000000000E+00 0. -1.
        -24    2    1    2    0    0  0.96763077295E+01  0.76293381812E+01 -0.21831083434E+04  0.21846306683E+04  0.80605706835E+02 0.  0.
         25    2    1    2    0    0 -0.15433474639E+02 -0.69390253763E+02 -0.69979004125E+02  0.15999420111E+03  0.12509150217E+03 0.  0.
         24    2    1    2    0    0  0.57571669100E+01  0.61760915582E+02  0.16625488844E+04  0.16650581424E+04  0.67098948739E+02 0.  0.
        -11    1    5    5    0    0 -0.16424599125E+02  0.24287196818E+02  0.12243090539E+04  0.12246600732E+04  0.00000000000E+00 0.  1.
         12    1    5    5    0    0  0.22181766035E+02  0.37473718763E+02  0.43823983041E+03  0.44039806914E+03  0.00000000000E+00 0. -1.
         13    1    3    3    0    0 -0.12841349846E+02  0.33218856420E+02 -0.16758409287E+04  0.16762193206E+04  0.00000000000E+00 0. -1.
        -14    1    3    3    0    0  0.22517657576E+02 -0.25589518239E+02 -0.50726741478E+03  0.50841134767E+03  0.00000000000E+00 0.  1.
          5    1    4    4  501    0 -0.43154188608E+02 -0.75255708124E+02 -0.27235085191E+01  0.86894162625E+02  0.41800000000E+01 0. -1.
         -5    1    4    4    0  501  0.27720713968E+02  0.58654543615E+01 -0.67255495606E+02  0.73100038488E+02  0.41800000000E+01 0. -1.
</event>
<event>
11    1  0.1002087E-008  0.1433828E+03  0.7561462E-02  0.1103839E+00
         22   -1    0    0    0    0  0.00000000000E+00  0.00000000000E+00  0.24461271016E+03  0.24461271016E+03  0.00000000000E+00 0.  1.
         22   -1    0    0    0    0 -0.00000000000E+00 -0.00000000000E+00 -0.45616140164E+03  0.45616140164E+03  0.00000000000E+00 0. -1.
        -24    2    1    2    0    0 -0.45583134706E+02  0.44709624587E+02 -0.26936908879E+03  0.28866747606E+03  0.81807292089E+02 0.  0.
         25    2    1    2    0    0  0.45805328405E+02 -0.86421508442E+02 -0.12892217488E+03  0.20453646514E+03  0.12508970047E+03 0.  0.
         24    2    1    2    0    0 -0.22219369803E+00  0.41711883854E+02  0.18674257220E+03  0.20757017060E+03  0.80452823607E+02 0.  0.
        -13    1    5    5    0    0 -0.16127531092E+02  0.25289507530E+02  0.18169944636E+03  0.18415847865E+03  0.00000000000E+00 0.  1.
         14    1    5    5    0    0  0.15905337394E+02  0.16422376325E+02  0.50431258382E+01  0.23411691951E+02  0.00000000000E+00 0. -1.
         13    1    3    3    0    0 -0.63884517705E+02  0.39889264889E+02 -0.25187765174E+03  0.26289681722E+03  0.00000000000E+00 0. -1.
        -14    1    3    3    0    0  0.18301382998E+02  0.48203596979E+01 -0.17491437052E+02  0.25770658847E+02  0.00000000000E+00 0.  1.
          5    1    4    4  501    0  0.80469613355E+02 -0.38396558837E+02 -0.40473147658E+02  0.98006134937E+02  0.41800000000E+01 0.  1.
         -5    1    4    4    0  501 -0.34664284951E+02 -0.48024949605E+02 -0.88449027224E+02  0.10653033020E+03  0.41800000000E+01 0.  1.
</event>
<event>
11    1  0.1002087E-008  0.1409692E+03  0.7561462E-02  0.1106481E+00
         22   -1    0    0    0    0  0.00000000000E+00  0.00000000000E+00  0.59738574153E+03  0.59738574153E+03  0.00000000000E+00 0. -1.
         22   -1    0    0    0    0 -0.00000000000E+00 -0.00000000000E+00 -0.37223039352E+03  0.37223039352E+03  0.00000000000E+00 0. -1.
         24    2    1    2    0    0  0.96653533247E+01  0.36385280218E+02 -0.25890469996E+03  0.27643706367E+03  0.89266448552E+02 0.  0.
         25    2    1    2    0    0 -0.46905904737E+02 -0.87631909199E+02 -0.35514057832E+02  0.16366201591E+03  0.12507794266E+03 0.  0.
        -24    2    1    2    0    0  0.37240551413E+02  0.51246628981E+02  0.51957410580E+03  0.52951705548E+03  0.80112327228E+02 0.  0.
        -13    1    3    3    0    0 -0.37605266957E+02  0.36671777517E+01 -0.12811067696E+03  0.13356627511E+03  0.00000000000E+00 0.  1.
         14    1    3    3    0    0  0.47270620282E+02  0.32718102467E+02 -0.13079402300E+03  0.14287078856E+03  0.00000000000E+00 0. -1.
         13    1    5    5    0    0  0.21063078957E+02 -0.53126186087E+01  0.33700305379E+03  0.33770243629E+03  0.00000000000E+00 0. -1.
        -14    1    5    5    0    0  0.16177472456E+02  0.56559247590E+02  0.18257105201E+03  0.19181461919E+03  0.00000000000E+00 0.  1.
          5    1    4    4  501    0 -0.69695684194E+00 -0.12309259481E+02 -0.68139325073E+02  0.69371778406E+02  0.41800000000E+01 0. -1.
         -5    1    4    4    0  501 -0.46208947895E+02 -0.75322649718E+02  0.32625267240E+02  0.94290237505E+02  0.41800000000E+01 0. -1.
</event>
<event>
11    1  0.1002087E-008  0.1299662E+03  0.7561462E-02  0.1119311E+00
         22   -1    0    0    0    0  0.00000000000E+00  0.00000000000E+00  0.17837839594E+03  0.17837839594E+03  0.00000000000E+00 0. -1.
         22   -1    0    0    0    0 -0.00000000000E+00 -0.00000000000E+00 -0.22499745505E+04  0.22499745505E+04  0.00000000000E+00 0. -1.
        -24    2    1    2    0    0  0.16288351745E+02 -0.27073302668E+02 -0.17659224974E+04  0.17690620670E+04  0.10049903494E+03 0.  0.
         25    2    1    2    0    0 -0.87310124442E+01  0.63084191201E+02 -0.46060718157E+03  0.48152083408E+03  0.12508993636E+03 0.  0.
         24    2    1    2    0    0 -0.75573393011E+01 -0.36010888533E+02  0.15493352446E+03  0.17777004529E+03  0.79018317701E+02 0.  0.
        -11    1    5    5    0    0 -0.37296078139E+02 -0.39381631976E+02  0.76139656949E+02  0.93483462398E+02  0.00000000000E+00 0.  1.
         12    1    5    5    0    0  0.29738738838E+02  0.33707434431E+01  0.78793867508E+02  0.84286582894E+02  0.00000000000E+00 0. -1.
         13    1    3    3    0    0  0.45524834245E+02  0.18706374005E+02 -0.67781650603E+03  0.67960109977E+03  0.00000000000E+00 0. -1.
        -14    1    3    3    0    0 -0.29236482500E+02 -0.45779676673E+02 -0.10881059914E+04  0.10894609673E+04  0.00000000000E+00 0.  1.
          5    1    4    4  501    0  0.52198684479E+02  0.39801674592E+02 -0.31681643671E+03  0.32357225303E+03  0.41800000000E+01 0. -1.
         -5    1    4    4    0  501 -0.60929696923E+02  0.23282516609E+02 -0.14379074486E+03  0.15794858105E+03  0.41800000000E+01 0. -1.
</event>
<event>
11    1  0.1002087E-008  0.2866132E+03  0.7561462E-02  0.1006022E+00
         22   -1    0    0    0    0  0.00000000000E+00  0.00000000000E+00  0.10334891285E+04  0.10334891285E+04  0.00000000000E+00 0. -1.
         22   -1    0    0    0    0 -0.00000000000E+00 -0.00000000000E+00 -0.28218874756E+03  0.28218874756E+03  0.00000000000E+00 0. -1.
         24    2    1    2    0    0 -0.52731445574E+02  0.11746403520E+03 -0.17269237510E+03  0.22889740631E+03  0.77414218841E+02 0.  0.
         25    2    1    2    0    0 -0.11838215952E+03  0.15582261197E+03  0.29625243934E+03  0.37644056995E+03  0.12508786032E+03 0.  0.
        -24    2    1    2    0    0  0.17111360510E+03 -0.27328664717E+03  0.62774031669E+03  0.71033989978E+03  0.80990188609E+02 0.  0.
        -13    1    3    3    0    0  0.16054069804E+02  0.35892450229E+02 -0.72769468270E+02  0.82712735736E+02  0.00000000000E+00 0.  1.
         14    1    3    3    0    0 -0.68785515379E+02  0.81571584970E+02 -0.99922906834E+02  0.14618467057E+03  0.00000000000E+00 0. -1.
         11    1    5    5    0    0  0.66916667444E+02 -0.95494865648E+02  0.31420776360E+03  0.33514717431E+03  0.00000000000E+00 0. -1.
        -12    1    5    5    0    0  0.10419693765E+03 -0.17779178152E+03  0.31353255310E+03  0.37519272547E+03  0.00000000000E+00 0.  1.
          5    1    4    4  501    0 -0.75917256644E+01  0.38098238545E+01  0.11433846822E+03  0.11472971181E+03  0.41800000000E+01 0.  1.
         -5    1    4    4    0  501 -0.11079043386E+03  0.15201278811E+03  0.18191397111E+03  0.26171085815E+03  0.41800000000E+01 0.  1.
</event>
<event>
11    1  0.1002087E-008  0.2168587E+03  0.7561462E-02  0.1043203E+00
         22   -1    0    0    0    0  0.00000000000E+00  0.00000000000E+00  0.79764056932E+03  0.79764056932E+03  0.00000000000E+00 0.  1.
         22   -1    0    0    0    0 -0.00000000000E+00 -0.00000000000E+00 -0.90714206076E+03  0.90714206076E+03  0.00000000000E+00 0. -1.
         24    2    1    2    0    0  0.20890299341E+02 -0.98557828672E+02 -0.79255355019E+03  0.80318601824E+03  0.82562702024E+02 0.  0.
         25    2    1    2    0    0 -0.78282704460E+01  0.26212064337E+03  0.12868262131E+03  0.31776522598E+03  0.12508800229E+03 0.  0.
        -24    2    1    2    0    0 -0.13062028895E+02 -0.16356281470E+03  0.55436943745E+03  0.58383138586E+03  0.81303154792E+02 0.  0.
        -13    1    3    3    0    0  0.59342271399E+01 -0.10536937508E+03 -0.54729967445E+03  0.55738214351E+03  0.00000000000E+00 0.  1.
         14    1    3    3    0    0  0.14956072201E+02  0.68115464091E+01 -0.24525387574E+03  0.24580387472E+03  0.00000000000E+00 0. -1.
         11    1    5    5    0    0  0.19739881357E+02 -0.58591605306E+01  0.89751368270E+02  0.92083118889E+02  0.00000000000E+00 0. -1.
        -12    1    5    5    0    0 -0.32801910252E+02 -0.15770365417E+03  0.46461806918E+03  0.49174826697E+03  0.00000000000E+00 0.  1.
          5    1    4    4  501    0 -0.98977288745E+01  0.23796946821E+03  0.15304984757E+03  0.28314159192E+03  0.41800000000E+01 0. -1.
         -5    1    4    4    0  501  0.20694584284E+01  0.24151175164E+02 -0.24367226260E+02  0.34623634061E+02  0.41800000000E+01 0. -1.
</event>
<event>
11    1  0.1002087E-008  0.1701379E+03  0.7561462E-02  0.1077912E+00
         22   -1    0    0    0    0  0.00000000000E+00  0.00000000000E+00  0.49144301998E+03  0.49144301998E+03  0.00000000000E+00 0.  1.
         22   -1    0    0    0    0 -0.00000000000E+00 -0.00000000000E+00 -0.85806321843E+03  0.85806321843E+03  0.00000000000E+00 0.  1.
         24    2    1    2    0    0  0.80201663997E+02 -0.14287597731E+02 -0.36601926382E+03  0.38365012260E+03  0.81122578409E+02 0.  0.
         25    2    1    2    0    0 -0.18714696862E+03 -0.24468373827E+02 -0.44538182697E+03  0.49963585628E+03  0.12509327679E+03 0.  0.
        -24    2    1    2    0    0  0.10694530462E+03  0.38755971557E+02  0.44478089235E+03  0.46622025953E+03  0.81190915050E+02 0.  0.
        -13    1    3    3    0    0  0.91920604943E+02  0.43019198325E+01 -0.31329214391E+03  0.32652698443E+03  0.00000000000E+00 0.  1.
         14    1    3    3    0    0 -0.11718940946E+02 -0.18589517563E+02 -0.52727119910E+02  0.57123138168E+02  0.00000000000E+00 0. -1.
         11    1    5    5    0    0  0.57115147885E+02 -0.16246384966E-01  0.95479610804E+02  0.11125869162E+03  0.00000000000E+00 0. -1.
        -12    1    5    5    0    0  0.49830156736E+02  0.38772217942E+02  0.34930128154E+03  0.35496156791E+03  0.00000000000E+00 0.  1.
          5    1    4    4  501    0 -0.11686167811E+03  0.35681045145E+02 -0.32851649582E+03  0.35052867104E+03  0.41800000000E+01 0. -1.
         -5    1    4    4    0  501 -0.70285290505E+02 -0.60149418971E+02 -0.11686533116E+03  0.14910718524E+03  0.41800000000E+01 0. -1.
</event>
<event>
11    1  0.1002087E-008  0.2864180E+03  0.7561462E-02  0.1006109E+00
         22   -1    0    0    0    0  0.00000000000E+00  0.00000000000E+00  0.40574314412E+03  0.40574314412E+03  0.00000000000E+00 0. -1.
         22   -1    0    0    0    0 -0.00000000000E+00 -0.00000000000E+00 -0.29451708596E+03  0.29451708596E+03  0.00000000000E+00 0. -1.
         24    2    1    2    0    0  0.23211509377E+02  0.26240779045E+03 -0.88140193068E+02  0.28870730157E+03  0.78654877112E+02 0.  0.
         25    2    1    2    0    0 -0.26565347195E+02 -0.24157937298E+03  0.18129058324E+03  0.32799434091E+03  0.12509077095E+03 0.  0.
        -24    2    1    2    0    0  0.33538378183E+01 -0.20828417461E+02  0.18075667982E+02  0.83558587587E+02  0.78805054308E+02 0.  0.
        -13    1    3    3    0    0  0.52207544701E+02  0.17396033704E+03 -0.63711140150E+02  0.19247580619E+03  0.00000000000E+00 0.  1.
         14    1    3    3    0    0 -0.28996035324E+02  0.88447453402E+02 -0.24429052918E+02  0.96231495387E+02  0.00000000000E+00 0. -1.
         11    1    5    5    0    0  0.53470443219E+01 -0.47087709066E+02  0.28426969515E+02  0.55262426873E+02  0.00000000000E+00 0. -1.
        -12    1    5    5    0    0 -0.19932065036E+01  0.26259291605E+02 -0.10351301533E+02  0.28296160714E+02  0.00000000000E+00 0.  1.
          5    1    4    4  501    0 -0.65806875737E+02 -0.21703883609E+03  0.14854760757E+03  0.27114620665E+03  0.41800000000E+01 0. -1.
         -5    1    4    4    0  501  0.39241528542E+02 -0.24540536892E+02  0.32742975676E+02  0.56848134265E+02  0.41800000000E+01 0. -1.
</event>
<event>
11    1  0.1002087E-008  0.1573493E+03  0.7561462E-02  0.1089597E+00
         22   -1    0    0    0    0  0.00000000000E+00  0.00000000000E+00  0.60431944804E+03  0.60431944804E+03  0.00000000000E+00 0. -1.
         22   -1    0    0    0    0 -0.00000000000E+00 -0.00000000000E+00 -0.89804771563E+03  0.89804771563E+03  0.00000000000E+00 0.  1.
        -24    2    1    2    0    0 -0.71945607201E+02  0.64484139165E+02 -0.80118615515E+03  0.81093269343E+03  0.79863655437E+02 0.  0.
         25    2    1    2    0    0  0.55729530436E+02 -0.58555164659E+02 -0.26634426476E+02  0.15129903396E+03  0.12509003610E+03 0.  0.
         24    2    1    2    0    0  0.16216076765E+02 -0.59289745054E+01  0.53409231404E+03  0.54013543628E+03  0.78699273989E+02 0.  0.
        -11    1    5    5    0    0  0.29250291704E+02  0.18939149402E+01  0.71251784504E+02  0.77045332588E+02  0.00000000000E+00 0.  1.
         12    1    5    5    0    0 -0.13034214939E+02 -0.78228894456E+01  0.46284052953E+03  0.46309010369E+03  0.00000000000E+00 0. -1.
         11    1    3    3    0    0  0.11855121488E+02  0.17203600375E+02 -0.60133270320E+02  0.63659390279E+02  0.00000000000E+00 0. -1.
        -12    1    3    3    0    0 -0.83800728689E+02  0.47280538789E+02 -0.74105288483E+03  0.74727330315E+03  0.00000000000E+00 0.  1.
          5    1    4    4  501    0  0.51893469780E+02  0.20096519772E+02  0.20474436123E+02  0.59443058865E+02  0.41800000000E+01 0. -1.
         -5    1    4    4    0  501  0.38360606565E+01 -0.78651684432E+02 -0.47108862598E+02  0.91855975095E+02  0.41800000000E+01 0. -1.
</event>
<event>
11    1  0.1002087E-008  0.1433790E+03  0.7561462E-02  0.1103843E+00
         22   -1    0    0    0    0  0.00000000000E+00  0.00000000000E+00  0.18232862800E+04  0.18232862800E+04  0.00000000000E+00 0.  1.
         22   -1    0    0    0    0 -0.00000000000E+00 -0.00000000000E+00 -0.28236762913E+03  0.28236762913E+03  0.00000000000E+00 0.  1.
        -24    2    1    2    0    0  0.13886951557E+02 -0.71536368789E+02 -0.18275805258E+03  0.22293239889E+03  0.10482389618E+03 0.  0.
         25    2    1    2    0    0 -0.32881815284E+02  0.55188251060E+02 -0.15523673987E+02  0.14147968080E+03  0.12509419968E+03 0.  0.
         24    2    1    2    0    0  0.18994863727E+02  0.16348117729E+02  0.17392003774E+04  0.17412418294E+04  0.80480369859E+02 0.  0.
        -13    1    5    5    0    0  0.44608119397E+02  0.27634484071E+02  0.86251566999E+03  0.86411042697E+03  0.00000000000E+00 0.  1.
         14    1    5    5    0    0 -0.25613255670E+02 -0.11286366342E+02  0.87668470741E+03  0.87713140244E+03  0.00000000000E+00 0. -1.
         13    1    3    3    0    0 -0.43628176259E+02 -0.46359276111E+02 -0.76623360849E+02  0.99617968625E+02  0.00000000000E+00 0. -1.
        -14    1    3    3    0    0  0.57515127816E+02 -0.25177092678E+02 -0.10613469173E+03  0.12331443027E+03  0.00000000000E+00 0.  1.
          5    1    4    4  501    0  0.29434631809E+02 -0.24246565374E+02 -0.12633858559E+02  0.40390348652E+02  0.41800000000E+01 0.  1.
         -5    1    4    4    0  501 -0.62316447093E+02  0.79434816434E+02 -0.28898154285E+01  0.10108933214E+03  0.41800000000E+01 0.  1.
</event>
<event>
11    1  0.1002087E-008  0.1376834E+03  0.7561462E-02  0.1110173E+00
         22   -1    0    0    0    0  0.00000000000E+00  0.00000000000E+00  0.74720306567E+03  0.74720306567E+03  0.00000000000E+00 0. -1.
         22   -1    0    0    0    0 -0.00000000000E+00 -0.00000000000E+00 -0.14582072489E+03  0.14582072489E+03  0.00000000000E+00 0. -1.
         24    2    1    2    0    0 -0.19180343017E+02 -0.22041283846E+02 -0.97051387725E+02  0.13080516315E+03  0.82688058959E+02 0.  0.
         25    2    1    2    0    0  0.46536105721E+01  0.75270907348E+02  0.16668001215E+03  0.22162469155E+03  0.12509161391E+03 0.  0.
        -24    2    1    2    0    0  0.14526732445E+02 -0.53229623502E+02  0.53175371635E+03  0.54059393587E+03  0.80220757082E+02 0.  0.
        -11    1    3    3    0    0 -0.21662534722E+02 -0.12326157204E+01  0.84184965084E+01  0.23273500716E+02  0.00000000000E+00 0.  1.
         12    1    3    3    0    0  0.24821917048E+01 -0.20808668125E+02 -0.10546988423E+03  0.10753166243E+03  0.00000000000E+00 0. -1.
         11    1    5    5    0    0 -0.21641604476E+02 -0.37048349146E+02  0.41680947732E+03  0.41901202799E+03  0.00000000000E+00 0. -1.
        -12    1    5    5    0    0  0.36168336921E+02 -0.16181274356E+02  0.11494423904E+03  0.12158190788E+03  0.00000000000E+00 0.  1.
          5    1    4    4  501    0  0.39967832326E+02 -0.16280796134E+02  0.78276731724E+02  0.89483021144E+02  0.41800000000E+01 0.  1.
         -5    1    4    4    0  501 -0.35314221754E+02  0.91551703482E+02  0.88403280424E+02  0.13214167041E+03  0.41800000000E+01 0.  1.
</event>
<event>
11    1  0.1002087E-008  0.1612648E+03  0.7561462E-02  0.1085894E+00
         22   -1    0    0    0    0  0.00000000000E+00  0.00000000000E+00  0.85504752831E+03  0.85504752831E+03  0.00000000000E+00 0. -1.
         22   -1    0    0    0    0 -0.00000000000E+00 -0.00000000000E+00 -0.14330837409E+03  0.14330837409E+03  0.00000000000E+00 0.  1.
         24    2    1    2    0    0 -0.78194105916E+02  0.53685612209E+02 -0.49417538924E+02  0.13386094042E+03  0.80499658747E+02 0.  0.
         25    2    1    2    0    0  0.12320624368E+03 -0.49021023017E+02  0.12469802514E+03  0.22086035135E+03  0.12508740203E+03 0.  0.
        -24    2    1    2    0    0 -0.45012137761E+02 -0.46645891924E+01  0.63645866801E+03  0.64363461064E+03  0.84486833213E+02 0.  0.
        -11    1    3    3    0    0 -0.92974917759E+02  0.46608885329E+02 -0.29576275342E+02  0.10812714547E+03  0.00000000000E+00 0.  1.
         12    1    3    3    0    0  0.14780811843E+02  0.70767268801E+01 -0.19841263582E+02  0.25733794951E+02  0.00000000000E+00 0. -1.
         11    1    5    5    0    0 -0.56077808339E+02  0.24643173112E+02  0.49329735361E+03  0.49708579305E+03  0.00000000000E+00 0. -1.
        -12    1    5    5    0    0  0.11065670577E+02 -0.29307762305E+02  0.14316131440E+03  0.14654881759E+03  0.00000000000E+00 0.  1.
          5    1    4    4  501    0  0.12839243949E+03 -0.17881070178E+02  0.13517744920E+03  0.18733597188E+03  0.41800000000E+01 0. -1.
         -5    1    4    4    0  501 -0.51861958109E+01 -0.31139952839E+02 -0.10479424066E+02  0.33524379466E+02  0.41800000000E+01 0. -1.
</event>
<event>
11    1  0.1002087E-008  0.1546140E+03  0.7561462E-02  0.1092255E+00
         22   -1    0    0    0    0  0.00000000000E+00  0.00000000000E+00  0.34956002242E+03  0.34956002242E+03  0.00000000000E+00 0. -1.
         22   -1    0    0    0    0 -0.00000000000E+00 -0.00000000000E+00 -0.14735773837E+03  0.14735773837E+03  0.00000000000E+00 0.  1.
        -24    2    1    2    0    0 -0.16593429586E+02  0.24579743225E+02 -0.21209128161E+02  0.88271585405E+02  0.80389924681E+02 0.  0.
         25    2    1    2    0    0 -0.34411045949E+02 -0.97463194828E+02  0.84385772741E+01  0.16249099793E+03  0.12509564498E+03 0.  0.
         24    2    1    2    0    0  0.51004475535E+02  0.72883451604E+02  0.21497283494E+03  0.24615517745E+03  0.80408939684E+02 0.  0.
        -11    1    5    5    0    0  0.13690268882E+02 -0.11632459028E+02  0.83339157040E+01  0.19803830843E+02  0.00000000000E+00 0.  1.
         12    1    5    5    0    0  0.37314206653E+02  0.84515910631E+02  0.20663891924E+03  0.22635134661E+03  0.00000000000E+00 0. -1.
         11    1    3    3    0    0 -0.21670831666E+02  0.23627109102E+01  0.27145821742E+02  0.34815269437E+02  0.00000000000E+00 0. -1.
        -12    1    3    3    0    0  0.50774020795E+01  0.22217032315E+02 -0.48354949903E+02  0.53456315968E+02  0.00000000000E+00 0.  1.
          5    1    4    4  501    0  0.45834993097E+02 -0.18527702370E+02  0.36811507426E+01  0.49750835351E+02  0.41800000000E+01 0. -1.
         -5    1    4    4    0  501 -0.80246039046E+02 -0.78935492458E+02  0.47574265315E+01  0.11274016258E+03  0.41800000000E+01 0. -1.
</event>
<event>
11    1  0.1002087E-008  0.1584374E+03  0.7561462E-02  0.1088556E+00
         22   -1    0    0    0    0  0.00000000000E+00  0.00000000000E+00  0.14384309679E+04  0.14384309679E+04  0.00000000000E+00 0. -1.
         22   -1    0    0    0    0 -0.00000000000E+00 -0.00000000000E+00 -0.54759396945E+03  0.54759396945E+03  0.00000000000E+00 0. -1.
        -24    2    1    2    0    0  0.89713560652E+02 -0.46184327625E+02 -0.50223938442E+03  0.51848315457E+03  0.79992919881E+02 0.  0.
         25    2    1    2    0    0 -0.51223716410E+02 -0.20569739801E+02  0.99277587446E+02  0.16897024366E+03  0.12509164862E+03 0.  0.
         24    2    1    2    0    0 -0.38489844242E+02  0.66754067426E+02  0.12937987955E+04  0.12985715391E+04  0.80219358955E+02 0.  0.
        -11    1    5    5    0    0 -0.27419658660E+02 -0.10833514221E+02  0.22857769711E+03  0.23047118329E+03  0.00000000000E+00 0.  1.
         12    1    5    5    0    0 -0.11070185582E+02  0.77587581647E+02  0.10652210983E+04  0.10681003559E+04  0.00000000000E+00 0. -1.
         13    1    3    3    0    0  0.74852062151E+02 -0.65649485012E+02 -0.44862861595E+03  0.45954360091E+03  0.00000000000E+00 0. -1.
        -14    1    3    3    0    0  0.14861498501E+02  0.19465157387E+02 -0.53610768467E+02  0.58939553658E+02  0.00000000000E+00 0.  1.
          5    1    4    4  501    0  0.13170137318E+02 -0.22634858734E+02  0.10096113360E+03  0.10438588145E+03  0.41800000000E+01 0. -1.
         -5    1    4    4    0  501 -0.64393853728E+02  0.20651189325E+01 -0.16835461583E+01  0.64584362208E+02  0.41800000000E+01 0. -1.
</event>
<event>
11    1  0.1002087E-008  0.1448973E+03  0.7561462E-02  0.1102210E+00
         22   -1    0    0    0    0  0.00000000000E+00  0.00000000000E+00  0.17890247914E+03  0.17890247914E+03  0.00000000000E+00 0. -1.
         22   -1    0    0    0    0 -0.00000000000E+00 -0.00000000000E+00 -0.27287069530E+04  0.27287069530E+04  0.00000000000E+00 0.  1.
         24    2    1    2    0    0  0.42699620562E+02 -0.53797367464E+02 -0.20376947936E+04  0.20405115305E+04  0.82278913960E+02 0.  0.
         25    2    1    2    0    0 -0.11531163457E+03  0.44537967479E+02 -0.66107047212E+03  0.68406177071E+03  0.12508370568E+03 0.  0.
        -24    2    1    2    0    0  0.72612014004E+02  0.92593999852E+01  0.14896079184E+03  0.18303613100E+03  0.77166486760E+02 0.  0.
        -13    1    3    3    0    0  0.43363856579E+02 -0.31324240655E+02 -0.19166542222E+04  0.19174005944E+04  0.00000000000E+00 0.  1.
         14    1    3    3    0    0 -0.66423601670E+00 -0.22473126809E+02 -0.12104057142E+03  0.12311093602E+03  0.00000000000E+00 0. -1.
         11    1    5    5    0    0  0.59064655657E+02  0.40357668646E+02  0.11174147684E+03  0.13267830499E+03  0.00000000000E+00 0. -1.
        -12    1    5    5    0    0  0.13547358347E+02 -0.31098268661E+02  0.37219314993E+02  0.50357826010E+02  0.00000000000E+00 0.  1.
          5    1    4    4  501    0 -0.11807194962E+03  0.71850201293E+02 -0.61428757467E+03  0.62965874369E+03  0.41800000000E+01 0.  1.
         -5    1    4    4    0  501  0.27603150586E+01 -0.27312233814E+02 -0.46782897457E+02  0.54403027026E+02  0.41800000000E+01 0.  1.
</event>
<event>
11    1  0.1002087E-008  0.1766402E+03  0.7561462E-02  0.1072393E+00
         22   -1    0    0    0    0  0.00000000000E+00  0.00000000000E+00  0.93771584637E+03  0.93771584637E+03  0.00000000000E+00 0.  1.
         22   -1    0    0    0    0 -0.00000000000E+00 -0.00000000000E+00 -0.57945412847E+03  0.57945412847E+03  0.00000000000E+00 0. -1.
        -24    2    1    2    0    0 -0.34378566949E+02 -0.12385405540E+03 -0.44905820142E+03  0.47387531428E+03  0.79892629919E+02 0.  0.
         25    2    1    2    0    0 -0.11037394859E+01  0.10991546684E+03 -0.55383352723E+02  0.17548908891E+03  0.12508587641E+03 0.  0.
         24    2    1    2    0    0  0.35482306435E+02  0.13938588562E+02  0.86270327204E+03  0.86780557165E+03  0.85885367046E+02 0.  0.
        -13    1    5    5    0    0 -0.18550270313E+02  0.72263224501E+01  0.55260785107E+03  0.55296633653E+03  0.00000000000E+00 0.  1.
         14    1    5    5    0    0  0.54032576748E+02  0.67122661120E+01  0.31009542097E+03  0.31483923512E+03  0.00000000000E+00 0. -1.
         11    1    3    3    0    0 -0.31035222321E+02 -0.13495070232E+03 -0.42793974860E+03  0.44978584405E+03  0.00000000000E+00 0. -1.
        -12    1    3    3    0    0 -0.33433446281E+01  0.11096646918E+02 -0.21118452823E+02  0.24089470226E+02  0.00000000000E+00 0.  1.
          5    1    4    4  501    0 -0.52995127368E+02  0.32887480933E+02  0.79246252396E+01  0.63010649989E+02  0.41800000000E+01 0.  1.
         -5    1    4    4    0  501  0.51891387882E+02  0.77027985903E+02 -0.63307977963E+02  0.11247843892E+03  0.41800000000E+01 0.  1.
</event>
<event>
11    1  0.1002087E-008  0.1390636E+03  0.7561462E-02  0.1108609E+00
         22   -1    0    0    0    0  0.00000000000E+00  0.00000000000E+00  0.18118955870E+04  0.18118955870E+04  0.00000000000E+00 0. -1.
         22   -1    0    0    0    0 -0.00000000000E+00 -0.00000000000E+00 -0.42476751640E+02  0.42476751640E+02  0.00000000000E+00 0. -1.
        -24    2    1    2    0    0  0.29182335429E+01  0.14376052896E+02  0.57263205540E+02  0.10151573652E+03  0.82529891970E+02 0.  0.
         25    2    1    2    0    0  0.57947499259E+02 -0.17212379626E+02  0.24196542633E+03  0.27901661289E+03  0.12509525989E+03 0.  0.
         24    2    1    2    0    0 -0.60865732802E+02  0.28363267304E+01  0.14701902035E+04  0.14738399892E+04  0.83859389666E+02 0.  0.
        -13    1    5    5    0    0  0.81936056031E+01  0.17240320330E+02  0.98240837975E+02  0.10007809982E+03  0.00000000000E+00 0.  1.
         14    1    5    5    0    0 -0.69059338405E+02 -0.14403993600E+02  0.13719493655E+04  0.13737618894E+04  0.00000000000E+00 0. -1.
         13    1    3    3    0    0 -0.53439846715E+01 -0.30131876856E+02  0.28503791416E+01  0.30734554435E+02  0.00000000000E+00 0. -1.
        -14    1    3    3    0    0  0.82622182144E+01  0.44507929752E+02  0.54412826398E+02  0.70781182085E+02  0.00000000000E+00 0.  1.
          5    1    4    4  501    0  0.59117617764E+02 -0.55989722474E+02  0.87073172451E+02  0.11928516887E+03  0.41800000000E+01 0. -1.
         -5    1    4    4    0  501 -0.11701185055E+01  0.38777342848E+02  0.15489225388E+03  0.15973144401E+03  0.41800000000E+01 0. -1.
</event>
<event>
11    1  0.1285955E-008  0.2057638E+03  0.7561462E-02  0.1050521E+00
         22   -1    0    0    0    0  0.00000000000E+00  0.00000000000E+00  0.58550550156E+03  0.58550550156E+03  0.00000000000E+00 0.  1.
         22   -1    0    0    0    0 -0.00000000000E+00 -0.00000000000E+00 -0.74949687533E+03  0.74949687533E+03  0.00000000000E+00 0.  1.
        -24    2    1    2    0    0 -0.16358127157E+02  0.34903726765E+02 -0.40516652605E+03  0.41472239235E+03  0.79679924794E+02 0.  0.
         25    2    1    2    0    0  0.10050211705E+03  0.10625477067E+03 -0.29568579119E+03  0.35280410445E+03  0.12509954911E+03 0.  0.
         24    2    1    2    0    0 -0.84143989896E+02 -0.14115849743E+03  0.53686094347E+03  0.56747588008E+03  0.82481933903E+02 0.  0.
        -11    1    5    5    0    0 -0.88994267497E+02 -0.83965285551E+02  0.41701777965E+03  0.43459633842E+03  0.00000000000E+00 0.  1.
         12    1    5    5    0    0  0.48502776014E+01 -0.57193211880E+02  0.11984316382E+03  0.13287954166E+03  0.00000000000E+00 0. -1.
         13    1    3    3    0    0  0.29038600808E+02  0.10114056035E+02 -0.84709904901E+02  0.90118269262E+02  0.00000000000E+00 0. -1.
        -14    1    3    3    0    0 -0.45396727965E+02  0.24789670730E+02 -0.32045662115E+03  0.32460412309E+03  0.00000000000E+00 0.  1.
          5    1    4    4  501    0  0.10963940920E+03  0.36006523644E+02 -0.22355536978E+03  0.25161825361E+03  0.41800000000E+01 0.  1.
         -5    1    4    4    0  501 -0.91372921466E+01  0.70248247022E+02 -0.72130421406E+02  0.10118585084E+03  0.41800000000E+01 0.  1.
</event>
<event>
11    1  0.1002087E-008  0.1537775E+03  0.7561462E-02  0.1093080E+00
         22   -1    0    0    0    0  0.00000000000E+00  0.00000000000E+00  0.49629600517E+03  0.49629600517E+03  0.00000000000E+00 0.  1.
         22   -1    0    0    0    0 -0.00000000000E+00 -0.00000000000E+00 -0.69339305045E+03  0.69339305045E+03  0.00000000000E+00 0. -1.
        -24    2    1    2    0    0  0.65013759478E+02 -0.65121263650E+02 -0.57213321100E+03  0.58500665553E+03  0.80179847794E+02 0.  0.
         25    2    1    2    0    0 -0.51647611043E+02  0.48487656340E+02 -0.64422093465E+02  0.15753163028E+03  0.12508988716E+03 0.  0.
         24    2    1    2    0    0 -0.13366148435E+02  0.16633607310E+02  0.43945825918E+03  0.44715076980E+03  0.79780439667E+02 0.  0.
        -13    1    5    5    0    0 -0.41017323027E+02  0.25714211949E+02  0.34293486297E+03  0.34633504259E+03  0.00000000000E+00 0.  1.
         14    1    5    5    0    0  0.27651174592E+02 -0.90806046397E+01  0.96523396214E+02  0.10081572721E+03  0.00000000000E+00 0. -1.
         11    1    3    3    0    0 -0.27686818531E+01 -0.48347263014E+02 -0.30873929807E+03  0.31251412386E+03  0.00000000000E+00 0. -1.
        -12    1    3    3    0    0  0.67782441331E+02 -0.16774000636E+02 -0.26339391293E+03  0.27249253167E+03  0.00000000000E+00 0.  1.
          5    1    4    4  501    0  0.78903074642E+01  0.91079389914E+01 -0.82740037276E+02  0.83717367810E+02  0.41800000000E+01 0. -1.
         -5    1    4    4    0  501 -0.59537918507E+02  0.39379717349E+02  0.18317943811E+02  0.73814262471E+02  0.41800000000E+01 0. -1.
</event>
<event>
11    1  0.1002087E-008  0.2922143E+03  0.7561462E-02  0.1003541E+00
         22   -1    0    0    0    0  0.00000000000E+00  0.00000000000E+00  0.51667523937E+03  0.51667523937E+03  0.00000000000E+00 0. -1.
         22   -1    0    0    0    0 -0.00000000000E+00 -0.00000000000E+00 -0.98265091592E+03  0.98265091592E+03  0.00000000000E+00 0.  1.
        -24    2    1    2    0    0 -0.15905545532E+03  0.20166582740E+01 -0.61518255674E+03  0.64076883169E+03  0.82658410130E+02 0.  0.
         25    2    1    2    0    0 -0.41256363641E+02  0.19165269856E+03 -0.26522533562E+03  0.35273771863E+03  0.12508627058E+03 0.  0.
         24    2    1    2    0    0  0.20031181896E+03 -0.19366935683E+03  0.41443221581E+03  0.50581960496E+03  0.80416209017E+02 0.  0.
        -13    1    5    5    0    0  0.77978010579E+02 -0.95078596747E+02  0.24876407869E+03  0.27749608382E+03  0.00000000000E+00 0.  1.
         14    1    5    5    0    0  0.12233380838E+03 -0.98590760088E+02  0.16566813712E+03  0.22832352114E+03  0.00000000000E+00 0. -1.
         11    1    3    3    0    0 -0.76378305648E+02 -0.33171758707E+02 -0.21361803295E+03  0.22927423569E+03  0.00000000000E+00 0. -1.
        -12    1    3    3    0    0 -0.82677149668E+02  0.35188416981E+02 -0.40156452379E+03  0.41149459600E+03  0.00000000000E+00 0.  1.
          5    1    4    4  501    0  0.17008955781E+02  0.23021152984E+02 -0.11767365000E+03  0.12117688874E+03  0.41800000000E+01 0.  1.
         -5    1    4    4    0  501 -0.58265319422E+02  0.16863154558E+03 -0.14755168562E+03  0.23156082989E+03  0.41800000000E+01 0.  1.
</event>
<event>
11    1  0.1002087E-008  0.1284150E+03  0.7561462E-02  0.1121232E+00
         22   -1    0    0    0    0  0.00000000000E+00  0.00000000000E+00  0.82831812579E+03  0.82831812579E+03  0.00000000000E+00 0.  1.
         22   -1    0    0    0    0 -0.00000000000E+00 -0.00000000000E+00 -0.17457862136E+04  0.17457862136E+04  0.00000000000E+00 0.  1.
        -24    2    1    2    0    0  0.24409683856E+02 -0.25792988394E+02 -0.16080764407E+04  0.16103516588E+04  0.77855730592E+02 0.  0.
         25    2    1    2    0    0 -0.34466377109E+02  0.52295911834E+02 -0.97047652943E+02  0.17025745713E+03  0.12508621516E+03 0.  0.
         24    2    1    2    0    0  0.10056693253E+02 -0.26502923440E+02  0.78765600586E+03  0.79349522348E+03  0.91810370307E+02 0.  0.
        -13    1    5    5    0    0 -0.32516450791E+02 -0.20323337396E+02  0.58840260053E+03  0.58965072537E+03  0.00000000000E+00 0.  1.
         14    1    5    5    0    0  0.42573144044E+02 -0.61795860433E+01  0.19925340532E+03  0.20384449811E+03  0.00000000000E+00 0. -1.
         11    1    3    3    0    0 -0.43244426855E+01 -0.38885510553E+02 -0.41081584212E+03  0.41267473859E+03  0.00000000000E+00 0. -1.
        -12    1    3    3    0    0  0.28734126541E+02  0.13092522159E+02 -0.11972605986E+04  0.11976769202E+04  0.00000000000E+00 0.  1.
          5    1    4    4  501    0  0.31151790568E+02  0.64342526358E+02 -0.38000999423E+02  0.81067521924E+02  0.41800000000E+01 0. -1.
         -5    1    4    4    0  501 -0.65618167677E+02 -0.12046614524E+02 -0.59046653520E+02  0.89189935210E+02  0.41800000000E+01 0. -1.
</event>
<event>
11    1  0.1355444E-008  0.1475729E+03  0.7561462E-02  0.1099385E+00
         22   -1    0    0    0    0  0.00000000000E+00  0.00000000000E+00  0.82678695619E+03  0.82678695619E+03  0.00000000000E+00 0.  1.
         22   -1    0    0    0    0 -0.00000000000E+00 -0.00000000000E+00 -0.34170558161E+03  0.34170558161E+03  0.00000000000E+00 0. -1.
        -24    2    1    2    0    0 -0.30157533595E+02 -0.14562403077E+02 -0.22490571869E+03  0.23749724595E+03  0.68562519753E+02 0.  0.
         25    2    1    2    0    0 -0.21555541768E+02  0.73831347019E+02 -0.55800493919E+02  0.15706651066E+03  0.12506192252E+03 0.  0.
         24    2    1    2    0    0  0.51713075363E+02 -0.59268943942E+02  0.76578758719E+03  0.77392878120E+03  0.79674837908E+02 0.  0.
        -11    1    5    5    0    0  0.53113398080E+02 -0.58865823346E+02  0.76755444315E+03  0.77163854324E+03  0.00000000000E+00 0.  1.
         12    1    5    5    0    0 -0.14003227175E+01 -0.40312059549E+00 -0.17668559603E+01  0.22902379597E+01  0.00000000000E+00 0. -1.
         13    1    3    3    0    0 -0.39037588831E+02 -0.32433170084E+02 -0.11367101988E+03  0.12448672469E+03  0.00000000000E+00 0. -1.
        -14    1    3    3    0    0  0.88800552361E+01  0.17870767007E+02 -0.11123469882E+03  0.11301052126E+03  0.00000000000E+00 0.  1.
          5    1    4    4  501    0 -0.17665773150E+02  0.36051280115E+02  0.38214254959E+02  0.55583954708E+02  0.41800000000E+01 0. -1.
         -5    1    4    4    0  501 -0.38897686182E+01  0.37780066904E+02 -0.94014748878E+02  0.10148255595E+03  0.41800000000E+01 0. -1.
</event>
<event>
11    1  0.1002087E-008  0.1482134E+03  0.7561462E-02  0.1098718E+00
         22   -1    0    0    0    0  0.00000000000E+00  0.00000000000E+00  0.10339150019E+04  0.10339150019E+04  0.00000000000E+00 0. -1.
         22   -1    0    0    0    0 -0.00000000000E+00 -0.00000000000E+00 -0.24201811466E+03  0.24201811466E+03  0.00000000000E+00 0.  1.
         24    2    1    2    0    0  0.11977854605E+02 -0.21677805533E+02 -0.14827081173E+03  0.16946951107E+03  0.78245033825E+02 0.  0.
         25    2    1    2    0    0 -0.90080627158E+02  0.87896478039E+01 -0.50477901048E+01  0.15447947552E+03  0.12508657351E+03 0.  0.
        -24    2    1    2    0    0  0.78102772553E+02  0.12888157729E+02  0.94521548910E+03  0.95198412999E+03  0.81088317495E+02 0.  0.
        -13    1    3    3    0    0 -0.52043894770E+01 -0.46748981411E+02 -0.11582226218E+03  0.12500939704E+03  0.00000000000E+00 0.  1.
         14    1    3    3    0    0  0.17182244082E+02  0.25071175878E+02 -0.32448549554E+02  0.44460114032E+02  0.00000000000E+00 0. -1.
         13    1    5    5    0    0  0.53961031694E+02 -0.31236924059E+01  0.86518852761E+03  0.86687527286E+03  0.00000000000E+00 0. -1.
        -14    1    5    5    0    0  0.24141740860E+02  0.16011850135E+02  0.80026961493E+02  0.85108857131E+02  0.00000000000E+00 0.  1.
          5    1    4    4  501    0 -0.94520803087E+02  0.53414569954E+02 -0.10289135465E+02  0.10913586582E+03  0.41800000000E+01 0.  1.
         -5    1    4    4    0  501  0.44401759286E+01 -0.44624922150E+02  0.52413453603E+01  0.45343609697E+02  0.41800000000E+01 0.  1.
</event>
<event>
11    1  0.1002087E-008  0.1298751E+03  0.7561462E-02  0.1119423E+00
         22   -1    0    0    0    0  0.00000000000E+00  0.00000000000E+00  0.41162165615E+03  0.41162165615E+03  0.00000000000E+00 0.  1.
         22   -1    0    0    0    0 -0.00000000000E+00 -0.00000000000E+00 -0.52218608506E+03  0.52218608506E+03  0.00000000000E+00 0. -1.
        -24    2    1    2    0    0  0.20636171344E+02  0.27019652346E+02 -0.46599121705E+03  0.47479406681E+03  0.84413733079E+02 0.  0.
         25    2    1    2    0    0 -0.51169269609E+02 -0.32474349631E+02  0.58886311220E+02  0.15095672359E+03  0.12508979659E+03 0.  0.
         24    2    1    2    0    0  0.30533098265E+02  0.54546972850E+01  0.29654047692E+03  0.30805695081E+03  0.77464873820E+02 0.  0.
        -13    1    5    5    0    0  0.28029063908E+02  0.33014843869E+02  0.25144404403E+03  0.25514645915E+03  0.00000000000E+00 0.  1.
         14    1    5    5    0    0  0.25040343570E+01 -0.27560146584E+02  0.45096432891E+02  0.52910491656E+02  0.00000000000E+00 0. -1.
         13    1    3    3    0    0  0.36828057593E+02  0.47984841822E+02 -0.38095694709E+03  0.38572923976E+03  0.00000000000E+00 0. -1.
        -14    1    3    3    0    0 -0.16191886249E+02 -0.20965189476E+02 -0.85034269956E+02  0.89064827048E+02  0.00000000000E+00 0.  1.
          5    1    4    4  501    0 -0.77491358380E+02  0.15131434627E+02  0.13975248446E+02  0.80291038768E+02  0.41800000000E+01 0.  1.
         -5    1    4    4    0  501  0.26322088771E+02 -0.47605784258E+02  0.44911062773E+02  0.70665684823E+02  0.41800000000E+01 0.  1.
</event>
<event>
11    1  0.1002087E-008  0.1658650E+03  0.7561462E-02  0.1081687E+00
         22   -1    0    0    0    0  0.00000000000E+00  0.00000000000E+00  0.13279340051E+04  0.13279340051E+04  0.00000000000E+00 0. -1.
         22   -1    0    0    0    0 -0.00000000000E+00 -0.00000000000E+00 -0.26741314123E+03  0.26741314123E+03  0.00000000000E+00 0.  1.
         24    2    1    2    0    0 -0.19916376390E+02  0.37203539206E+02 -0.23568543891E+03  0.25241752170E+03  0.79913789603E+02 0.  0.
         25    2    1    2    0    0 -0.27901555799E+02  0.70544690772E+02  0.27264683541E+03  0.30941727880E+03  0.12509078841E+03 0.  0.
        -24    2    1    2    0    0  0.47817932189E+02 -0.10774822998E+03  0.10235594673E+04  0.10335123458E+04  0.81102096325E+02 0.  0.
        -11    1    3    3    0    0 -0.42434778764E+02  0.38872934977E+02 -0.21208836532E+03  0.21975734396E+03  0.00000000000E+00 0.  1.
         12    1    3    3    0    0  0.22518402375E+02 -0.16693957710E+01 -0.23597073598E+02  0.32660177742E+02  0.00000000000E+00 0. -1.
         13    1    5    5    0    0  0.65678403798E+02 -0.66375624635E+02  0.55603546235E+03  0.56382161333E+03  0.00000000000E+00 0. -1.
        -14    1    5    5    0    0 -0.17860471609E+02 -0.41372605343E+02  0.46752400499E+03  0.46969073246E+03  0.00000000000E+00 0.  1.
          5    1    4    4  501    0  0.23685355283E+02  0.80235475960E+02  0.10874484047E+03  0.13726485488E+03  0.41800000000E+01 0.  1.
         -5    1    4    4    0  501 -0.51586911083E+02 -0.96907851877E+01  0.16390199494E+03  0.17215242391E+03  0.41800000000E+01 0.  1.
</event>
<event>
11    1  0.1002087E-008  0.1274694E+03  0.7561462E-02  0.1122418E+00
         22   -1    0    0    0    0  0.00000000000E+00  0.00000000000E+00  0.29641288630E+03  0.29641288630E+03  0.00000000000E+00 0.  1.
         22   -1    0    0    0    0 -0.00000000000E+00 -0.00000000000E+00 -0.28851142773E+03  0.28851142773E+03  0.00000000000E+00 0. -1.
         24    2    1    2    0    0 -0.84777785956E+01 -0.87240514178E+01 -0.20627611939E+03  0.22194594772E+03  0.81007311250E+02 0.  0.
         25    2    1    2    0    0  0.95289150602E+01  0.32299067038E+02 -0.37321631179E+01  0.12958889157E+03  0.12508126088E+03 0.  0.
        -24    2    1    2    0    0 -0.10511364646E+01 -0.23575015620E+02  0.21790974108E+03  0.23338947474E+03  0.80181702482E+02 0.  0.
        -11    1    3    3    0    0 -0.42208525202E+02 -0.17875130756E+02 -0.98467289523E+02  0.10861347525E+03  0.00000000000E+00 0.  1.
         12    1    3    3    0    0  0.33730746606E+02  0.91510793385E+01 -0.10780882986E+03  0.11333247247E+03  0.00000000000E+00 0. -1.
         11    1    5    5    0    0 -0.29651622308E+02 -0.16593216782E+02  0.37544733414E+02  0.50637540973E+02  0.00000000000E+00 0. -1.
        -12    1    5    5    0    0  0.28600485844E+02 -0.69817988380E+01  0.18036500766E+03  0.18275193376E+03  0.00000000000E+00 0.  1.
          5    1    4    4  501    0 -0.58585022636E+01 -0.19007015778E+02  0.49774096397E+02  0.53763572888E+02  0.41800000000E+01 0.  1.
         -5    1    4    4    0  501  0.15387417324E+02  0.51306082816E+02 -0.53506259515E+02  0.75825318681E+02  0.41800000000E+01 0.  1.
</event>
<event>
11    1  0.1002087E-008  0.1836503E+03  0.7561462E-02  0.1066728E+00
         22   -1    0    0    0    0  0.00000000000E+00  0.00000000000E+00  0.72103986343E+03  0.72103986343E+03  0.00000000000E+00 0.  1.
         22   -1    0    0    0    0 -0.00000000000E+00 -0.00000000000E+00 -0.36821222700E+03  0.36821222700E+03  0.00000000000E+00 0. -1.
         24    2    1    2    0    0  0.25350631383E+02 -0.13041554926E+03 -0.30682555074E+03  0.34413478422E+03  0.81461408766E+02 0.  0.
         25    2    1    2    0    0 -0.55898869116E+01  0.15921745046E+03  0.22957109482E+03  0.30615655425E+03  0.12508998669E+03 0.  0.
        -24    2    1    2    0    0 -0.19760744471E+02 -0.28801901198E+02  0.43008209235E+03  0.43896075196E+03  0.80597140579E+02 0.  0.
        -11    1    3    3    0    0  0.98841629838E+01 -0.45819686339E+02 -0.33539638580E+02  0.57637207516E+02  0.00000000000E+00 0.  1.
         12    1    3    3    0    0  0.15466468399E+02 -0.84595862918E+02 -0.27328591216E+03  0.28649757670E+03  0.00000000000E+00 0. -1.
         13    1    5    5    0    0 -0.24066805344E+01  0.28168611805E+02  0.13479052345E+03  0.13772344758E+03  0.00000000000E+00 0. -1.
        -14    1    5    5    0    0 -0.17354063937E+02 -0.56970513003E+02  0.29529156890E+03  0.30123730438E+03  0.00000000000E+00 0.  1.
          5    1    4    4  501    0 -0.49407522647E+02  0.14702297945E+03  0.19306120029E+03  0.24768318319E+03  0.41800000000E+01 0.  1.
         -5    1    4    4    0  501  0.43817635735E+02  0.12194471008E+02  0.36509894530E+02  0.58473371061E+02  0.41800000000E+01 0.  1.
</event>
<event>
11    1  0.1002087E-008  0.1639602E+03  0.7561462E-02  0.1083411E+00
         22   -1    0    0    0    0  0.00000000000E+00  0.00000000000E+00  0.37450422411E+03  0.37450422411E+03  0.00000000000E+00 0.  1.
         22   -1    0    0    0    0 -0.00000000000E+00 -0.00000000000E+00 -0.60578892847E+03  0.60578892847E+03  0.00000000000E+00 0. -1.
         24    2    1    2    0    0  0.69850555992E+02  0.82041123511E+02 -0.50429462766E+03  0.52144564060E+03  0.77347517714E+02 0.  0.
         25    2    1    2    0    0 -0.31354731595E+02 -0.92097074557E+02 -0.12999985712E+02  0.15900156373E+03  0.12508999683E+03 0.  0.
        -24    2    1    2    0    0 -0.38495824397E+02  0.10055951046E+02  0.28600990900E+03  0.29984594825E+03  0.80764311329E+02 0.  0.
        -13    1    3    3    0    0 -0.42516071521E+01  0.49947912245E+01 -0.66137598257E+00  0.65925352440E+01  0.00000000000E+00 0.  1.
         14    1    3    3    0    0  0.74102163144E+02  0.77046332286E+02 -0.50363325167E+03  0.51485310535E+03  0.00000000000E+00 0. -1.
         13    1    5    5    0    0 -0.18990467753E+02  0.16947789471E+02  0.18326616956E+02  0.31364475486E+02  0.00000000000E+00 0. -1.
        -14    1    5    5    0    0 -0.19505356644E+02 -0.68918384250E+01  0.26768329205E+03  0.26848147276E+03  0.00000000000E+00 0.  1.
          5    1    4    4  501    0 -0.29372883726E+02  0.25200602750E+02 -0.14673616629E+02  0.41600770453E+02  0.41800000000E+01 0. -1.
         -5    1    4    4    0  501 -0.19818478692E+01 -0.11729767731E+03  0.16736309170E+01  0.11740079328E+03  0.41800000000E+01 0. -1.
</event>
<event>
11    1  0.1002087E-008  0.1331660E+03  0.7561462E-02  0.1115439E+00
         22   -1    0    0    0    0  0.00000000000E+00  0.00000000000E+00  0.32071058887E+03  0.32071058887E+03  0.00000000000E+00 0.  1.
         22   -1    0    0    0    0 -0.00000000000E+00 -0.00000000000E+00 -0.24953938437E+03  0.24953938437E+03  0.00000000000E+00 0. -1.
         24    2    1    2    0    0 -0.39538025411E+01 -0.10283359585E+02 -0.18116531971E+03  0.19888360222E+03  0.81316874816E+02 0.  0.
         25    2    1    2    0    0 -0.27734328062E+02  0.42114611966E+02  0.41671731927E+02  0.14115792682E+03  0.12508474555E+03 0.  0.
        -24    2    1    2    0    0  0.31688130603E+02 -0.31831252381E+02  0.21066479228E+03  0.23020844419E+03  0.81233655724E+02 0.  0.
        -11    1    3    3    0    0  0.17360750915E+02  0.20976369793E+02 -0.21210552100E+02  0.34515087750E+02  0.00000000000E+00 0.  1.
         12    1    3    3    0    0 -0.21314553456E+02 -0.31259729378E+02 -0.15995476761E+03  0.16436851447E+03  0.00000000000E+00 0. -1.
         11    1    5    5    0    0 -0.16456421493E+02 -0.15501531022E+02  0.12932772736E+02  0.26045496406E+02  0.00000000000E+00 0. -1.
        -12    1    5    5    0    0  0.48144552097E+02 -0.16329721359E+02  0.19773201954E+03  0.20416294779E+03  0.00000000000E+00 0.  1.
          5    1    4    4  501    0 -0.25153538204E+02  0.53176163693E+02 -0.31591157048E+02  0.66902006494E+02  0.41800000000E+01 0.  1.
         -5    1    4    4    0  501 -0.25807898582E+01 -0.11061551727E+02  0.73262888975E+02  0.74255920328E+02  0.41800000000E+01 0.  1.
</event>
<event>
11    1  0.1002087E-008  0.2087608E+03  0.7561462E-02  0.1048496E+00
         22   -1    0    0    0    0  0.00000000000E+00  0.00000000000E+00  0.19446640585E+04  0.19446640585E+04  0.00000000000E+00 0. -1.
         22   -1    0    0    0    0 -0.00000000000E+00 -0.00000000000E+00 -0.66134015063E+03  0.66134015063E+03  0.00000000000E+00 0. -1.
        -24    2    1    2    0    0  0.16172846572E+03 -0.38311293479E+02 -0.62693349419E+03  0.65346092105E+03  0.79634900448E+02 0.  0.
         25    2    1    2    0    0 -0.22628104158E+03  0.59454784195E+02  0.94560419008E+03  0.98211823170E+03  0.12510377936E+03 0.  0.
         24    2    1    2    0    0  0.64552575853E+02 -0.21143490716E+02  0.96465321195E+03  0.97042505635E+03  0.80962265394E+02 0.  0.
        -13    1    5    5    0    0  0.83211907907E+02 -0.18469339786E+02  0.71536008558E+03  0.72042028717E+03  0.00000000000E+00 0.  1.
         14    1    5    5    0    0 -0.18659332054E+02 -0.26741509299E+01  0.24929312638E+03  0.25000476918E+03  0.00000000000E+00 0. -1.
         11    1    3    3    0    0  0.54819565908E+02  0.18615662093E+02 -0.28196376248E+03  0.28784595018E+03  0.00000000000E+00 0. -1.
        -12    1    3    3    0    0  0.10690889982E+03 -0.56926955572E+02 -0.34496973171E+03  0.36561497087E+03  0.00000000000E+00 0.  1.
          5    1    4    4  501    0 -0.14842400238E+03  0.42014656256E+02  0.36843694366E+03  0.39944733029E+03  0.41800000000E+01 0.  1.
         -5    1    4    4    0  501 -0.77857039197E+02  0.17440127939E+02  0.57716724642E+03  0.58267090141E+03  0.41800000000E+01 0.  1.
</event>
<event>
11    1  0.1002087E-008  0.1484946E+03  0.7561462E-02  0.1098427E+00
         22   -1    0    0    0    0  0.00000000000E+00  0.00000000000E+00  0.12913671932E+04  0.12913671932E+04  0.00000000000E+00 0.  1.
         22   -1    0    0    0    0 -0.00000000000E+00 -0.00000000000E+00 -0.15706495381E+04  0.15706495381E+04  0.00000000000E+00 0.  1.
        -24    2    1    2    0    0  0.66376169245E+02  0.11090291686E+02 -0.14408451220E+04  0.14447970817E+04  0.82916532294E+02 0.  0.
         25    2    1    2    0    0 -0.12526087125E+03 -0.63439604997E+02 -0.54395253094E+02  0.19575780250E+03  0.12508958522E+03 0.  0.
         24    2    1    2    0    0  0.58884702006E+02  0.52349313311E+02  0.12159580303E+04  0.12214618470E+04  0.84895545298E+02 0.  0.
        -11    1    5    5    0    0  0.48946740164E+02  0.40004112664E+02  0.11849824337E+04  0.11866673841E+04  0.00000000000E+00 0.  1.
         12    1    5    5    0    0  0.99379618422E+01  0.12345200648E+02  0.30975596620E+02  0.34794462930E+02  0.00000000000E+00 0. -1.
         13    1    3    3    0    0 -0.75649615921E+01  0.29554646690E+02 -0.38864711740E+03  0.38984264473E+03  0.00000000000E+00 0. -1.
        -14    1    3    3    0    0  0.73941130837E+02 -0.18464355005E+02 -0.10521980046E+04  0.10549544370E+04  0.00000000000E+00 0.  1.
          5    1    4    4  501    0  0.49325975482E+01  0.72762540239E+01 -0.46307445954E+02  0.47319407667E+02  0.41800000000E+01 0.  1.
         -5    1    4    4    0  501 -0.13019346880E+03 -0.70715859021E+02 -0.80878071399E+01  0.14843839483E+03  0.41800000000E+01 0.  1.
</event>
<event>
11    1  0.1002087E-008  0.1321760E+03  0.7561462E-02  0.1116624E+00
         22   -1    0    0    0    0  0.00000000000E+00  0.00000000000E+00  0.65062152172E+03  0.65062152172E+03  0.00000000000E+00 0. -1.
         22   -1    0    0    0    0 -0.00000000000E+00 -0.00000000000E+00 -0.38749275442E+03  0.38749275442E+03  0.00000000000E+00 0. -1.
         24    2    1    2    0    0  0.34486623002E+02  0.20636125880E+02 -0.33526062914E+03  0.34653470586E+03  0.77919420263E+02 0.  0.
         25    2    1    2    0    0 -0.21315867823E+02 -0.60403670420E+02  0.72429496629E+02  0.15809772853E+03  0.12508353275E+03 0.  0.
        -24    2    1    2    0    0 -0.13170755179E+02  0.39767544540E+02  0.52595989981E+03  0.53348184175E+03  0.78829771556E+02 0.  0.
        -13    1    3    3    0    0 -0.13007657603E+02 -0.11515542448E+02 -0.21826106222E+02  0.27895981556E+02  0.00000000000E+00 0.  1.
         14    1    3    3    0    0  0.47494280605E+02  0.32151668328E+02 -0.31343452292E+03  0.31863872430E+03  0.00000000000E+00 0. -1.
         13    1    5    5    0    0  0.19278835543E+02  0.46981806049E+02  0.39994222883E+03  0.40315350675E+03  0.00000000000E+00 0. -1.
        -14    1    5    5    0    0 -0.32449590722E+02 -0.72142615089E+01  0.12601767097E+03  0.13032833500E+03  0.00000000000E+00 0.  1.
          5    1    4    4  501    0  0.13444101042E+02 -0.64824722277E+02  0.95249992982E+02  0.11607334765E+03  0.41800000000E+01 0.  1.
         -5    1    4    4    0  501 -0.34759968864E+02  0.44210518565E+01 -0.22820496353E+02  0.42024380885E+02  0.41800000000E+01 0.  1.
</event>
<event>
11    1  0.1002087E-008  0.1367278E+03  0.7561462E-02  0.1111268E+00
         22   -1    0    0    0    0  0.00000000000E+00  0.00000000000E+00  0.18254669765E+04  0.18254669765E+04  0.00000000000E+00 0. -1.
         22   -1    0    0    0    0 -0.00000000000E+00 -0.00000000000E+00 -0.26097897586E+03  0.26097897586E+03  0.00000000000E+00 0.  1.
         24    2    1    2    0    0  0.27146425028E+02 -0.18662441428E+02 -0.18871615658E+03  0.20927996403E+03  0.84256159893E+02 0.  0.
         25    2    1    2    0    0 -0.18011779277E+02 -0.36293040303E+02  0.10707332278E+02  0.13192097014E+03  0.12508751508E+03 0.  0.
        -24    2    1    2    0    0 -0.91346457504E+01  0.54955481731E+02  0.17424968249E+04  0.17452450182E+04  0.80507402706E+02 0.  0.
        -13    1    3    3    0    0 -0.16119413454E+02  0.15834020556E+02 -0.11448665097E+03  0.11669509393E+03  0.00000000000E+00 0.  1.
         14    1    3    3    0    0  0.43265838482E+02 -0.34496461983E+02 -0.74229505607E+02  0.92584870101E+02  0.00000000000E+00 0. -1.
         13    1    5    5    0    0  0.21873709409E+02  0.12468530170E+02  0.11861699842E+04  0.11864371685E+04  0.00000000000E+00 0. -1.
        -14    1    5    5    0    0 -0.31008355159E+02  0.42486951560E+02  0.55632684069E+03  0.55880784964E+03  0.00000000000E+00 0.  1.
          5    1    4    4  501    0 -0.69501727456E+02 -0.15872723678E+02 -0.11049350930E+02  0.72263365769E+02  0.41800000000E+01 0. -1.
         -5    1    4    4    0  501  0.51489948179E+02 -0.20420316624E+02  0.21756683208E+02  0.59657604366E+02  0.41800000000E+01 0. -1.
</event>
<event>
11    1  0.1002087E-008  0.1805841E+03  0.7561462E-02  0.1069171E+00
         22   -1    0    0    0    0  0.00000000000E+00  0.00000000000E+00  0.74741895836E+03  0.74741895836E+03  0.00000000000E+00 0.  1.
         22   -1    0    0    0    0 -0.00000000000E+00 -0.00000000000E+00 -0.40995052634E+03  0.40995052634E+03  0.00000000000E+00 0.  1.
         24    2    1    2    0    0 -0.12240493321E+03 -0.42283221634E+02 -0.34482501416E+03  0.37699383063E+03  0.80307032297E+02 0.  0.
         25    2    1    2    0    0  0.12418879959E+03  0.65844441671E+02  0.14713799761E+03  0.23886717875E+03  0.12509832253E+03 0.  0.
        -24    2    1    2    0    0 -0.17838663724E+01 -0.23561220037E+02  0.53515544856E+03  0.54150847532E+03  0.79257564023E+02 0.  0.
        -13    1    3    3    0    0 -0.10070387052E+03 -0.16858698156E+02 -0.31843783069E+03  0.33440714295E+03  0.00000000000E+00 0.  1.
         14    1    3    3    0    0 -0.21701062690E+02 -0.25424523478E+02 -0.26387183466E+02  0.42586687677E+02  0.00000000000E+00 0. -1.
         11    1    5    5    0    0  0.71016094633E+01  0.15029275802E+02  0.26288565696E+02  0.31103065354E+02  0.00000000000E+00 0. -1.
        -12    1    5    5    0    0 -0.88854758357E+01 -0.38590495839E+02  0.50886688286E+03  0.51040540997E+03  0.00000000000E+00 0.  1.
          5    1    4    4  501    0  0.88868828533E+01  0.21077918949E+02 -0.20155606656E+02  0.30772978955E+02  0.41800000000E+01 0. -1.
         -5    1    4    4    0  501  0.11530191673E+03  0.44766522721E+02  0.16729360427E+03  0.20809419980E+03  0.41800000000E+01 0. -1.
</event>
<event>
11    1  0.1002087E-008  0.1371318E+03  0.7561462E-02  0.1110804E+00
         22   -1    0    0    0    0  0.00000000000E+00  0.00000000000E+00  0.26189677724E+03  0.26189677724E+03  0.00000000000E+00 0. -1.
         22   -1    0    0    0    0 -0.00000000000E+00 -0.00000000000E+00 -0.12054247419E+03  0.12054247419E+03  0.00000000000E+00 0.  1.
         24    2    1    2    0    0 -0.69939847367E+02 -0.19065399835E+02  0.17041975796E+02  0.10947783227E+03  0.80248956990E+02 0.  0.
         25    2    1    2    0    0  0.33162470465E+02 -0.42323875655E+02  0.59637850620E+02  0.14864413730E+03  0.12508935378E+03 0.  0.
        -24    2    1    2    0    0  0.36777376902E+02  0.61389275489E+02  0.64674476628E+02  0.12431728187E+03  0.78426908946E+02 0.  0.
        -11    1    3    3    0    0 -0.68919843708E+02 -0.28885365730E+02 -0.14765797512E+02  0.76173079144E+02  0.00000000000E+00 0.  1.
         12    1    3    3    0    0 -0.10200036589E+01  0.98199658953E+01  0.31807773309E+02  0.33304753122E+02  0.00000000000E+00 0. -1.
         13    1    5    5    0    0 -0.12620223174E+02  0.28216148992E+02  0.56301439776E+02  0.64228289855E+02  0.00000000000E+00 0. -1.
        -14    1    5    5    0    0  0.49397600076E+02  0.33173126498E+02  0.83730368527E+01  0.60088992013E+02  0.00000000000E+00 0.  1.
          5    1    4    4  501    0  0.56429331333E+02  0.96606073142E+01  0.70081927046E+02  0.90589986570E+02  0.41800000000E+01 0.  1.
         -5    1    4    4    0  501 -0.23266860868E+02 -0.51984482969E+02 -0.10444076426E+02  0.58054150727E+02  0.41800000000E+01 0.  1.
</event>
<event>
11    1  0.1002087E-008  0.1296776E+03  0.7561462E-02  0.1119666E+00
         22   -1    0    0    0    0  0.00000000000E+00  0.00000000000E+00  0.11249490696E+04  0.11249490696E+04  0.00000000000E+00 0. -1.
         22   -1    0    0    0    0 -0.00000000000E+00 -0.00000000000E+00 -0.10973161641E+03  0.10973161641E+03  0.00000000000E+00 0. -1.
        -24    2    1    2    0    0  0.13309966098E+02  0.33438383656E+02 -0.31993153633E+02  0.90947288319E+02  0.77152878586E+02 0.  0.
         25    2    1    2    0    0 -0.43352161720E+02 -0.47524364350E+02  0.60396773434E+02  0.15306695098E+03  0.12507496196E+03 0.  0.
         24    2    1    2    0    0  0.30042195622E+02  0.14085980694E+02  0.98681383338E+03  0.99066644670E+03  0.80731149470E+02 0.  0.
        -11    1    5    5    0    0 -0.10637267063E+02 -0.12433977889E+02  0.50304097304E+02  0.52898558225E+02  0.00000000000E+00 0.  1.
         12    1    5    5    0    0  0.40679462685E+02  0.26519958583E+02  0.93650973608E+03  0.93776788847E+03  0.00000000000E+00 0. -1.
         13    1    3    3    0    0  0.12933330480E+02  0.19680310727E+02 -0.57404967641E+02  0.62047691154E+02  0.00000000000E+00 0. -1.
        -14    1    3    3    0    0  0.37663561850E+00  0.13758072929E+02  0.25411814008E+02  0.28899597165E+02  0.00000000000E+00 0.  1.
          5    1    4    4  501    0 -0.85927001096E+02 -0.45876210441E+02  0.37012821331E+02  0.10428565359E+03  0.41800000000E+01 0. -1.
         -5    1    4    4    0  501  0.42574839376E+02 -0.16481539092E+01  0.23383952102E+02  0.48781297391E+02  0.41800000000E+01 0. -1.
</event>
<event>
11    1  0.1002087E-008  0.1784061E+03  0.7561462E-02  0.1070939E+00
         22   -1    0    0    0    0  0.00000000000E+00  0.00000000000E+00  0.11336742412E+03  0.11336742412E+03  0.00000000000E+00 0. -1.
         22   -1    0    0    0    0 -0.00000000000E+00 -0.00000000000E+00 -0.73943240061E+03  0.73943240061E+03  0.00000000000E+00 0. -1.
        -24    2    1    2    0    0 -0.89603471344E+02  0.90449543702E+02 -0.50919423165E+03  0.53093594185E+03  0.80026912791E+02 0.  0.
         25    2    1    2    0    0  0.11101720671E+03 -0.67336569480E+02 -0.14488518620E+03  0.23129754943E+03  0.12509118841E+03 0.  0.
         24    2    1    2    0    0 -0.21413735363E+02 -0.23112974222E+02  0.28014441365E+02  0.90566333438E+02  0.80154190083E+02 0.  0.
        -13    1    5    5    0    0  0.11530862480E+02  0.34877737176E+01 -0.21970953842E+02  0.25056898606E+02  0.00000000000E+00 0.  1.
         14    1    5    5    0    0 -0.32944597844E+02 -0.26600747940E+02  0.49985395206E+02  0.65509434832E+02  0.00000000000E+00 0. -1.
         11    1    3    3    0    0 -0.86230433518E+02  0.10475568925E+03 -0.45979050190E+03  0.47939206056E+03  0.00000000000E+00 0. -1.
        -12    1    3    3    0    0 -0.33730378254E+01 -0.14306145553E+02 -0.49403729756E+02  0.51543881291E+02  0.00000000000E+00 0.  1.
          5    1    4    4  501    0  0.24019935869E+02  0.36496008654E+02 -0.45633427958E+02  0.63315070197E+02  0.41800000000E+01 0.  1.
         -5    1    4    4    0  501  0.86997270838E+02 -0.10383257813E+03 -0.99251758243E+02  0.16798247923E+03  0.41800000000E+01 0.  1.
</event>
<event>
11    1  0.1002087E-008  0.2340267E+03  0.7561462E-02  0.1032770E+00
         22   -1    0    0    0    0  0.00000000000E+00  0.00000000000E+00  0.12421222514E+04  0.12421222514E+04  0.00000000000E+00 0. -1.
         22   -1    0    0    0    0 -0.00000000000E+00 -0.00000000000E+00 -0.27788443015E+03  0.27788443015E+03  0.00000000000E+00 0. -1.
        -24    2    1    2    0    0 -0.57379897795E+01  0.10367097986E+02 -0.20411009066E+03  0.22003981813E+03  0.81339972986E+02 0.  0.
         25    2    1    2    0    0  0.19891074747E+03 -0.46090921492E+02  0.21046892641E+03  0.31880402082E+03  0.12509586805E+03 0.  0.
         24    2    1    2    0    0 -0.19317275769E+03  0.35723823505E+02  0.95787898550E+03  0.98116284260E+03  0.80972013379E+02 0.  0.
        -13    1    5    5    0    0 -0.48604667117E+02  0.10669158474E+01  0.10880726981E+03  0.11917455239E+03  0.00000000000E+00 0.  1.
         14    1    5    5    0    0 -0.14456809058E+03  0.34656907658E+02  0.84907171570E+03  0.86198829021E+03  0.00000000000E+00 0. -1.
         11    1    3    3    0    0 -0.20177773514E+02  0.94932517275E+00 -0.20161058852E+03  0.20262002163E+03  0.00000000000E+00 0. -1.
        -12    1    3    3    0    0  0.14439783734E+02  0.94177728136E+01 -0.24995021392E+01  0.17419796497E+02  0.00000000000E+00 0.  1.
          5    1    4    4  501    0  0.16039747930E+02 -0.47188103843E+02  0.17687493371E+02  0.53050075209E+02  0.41800000000E+01 0.  1.
         -5    1    4    4    0  501  0.18287099954E+03  0.10971823508E+01  0.19278143304E+03  0.26575394561E+03  0.41800000000E+01 0.  1.
</event>
<event>
11    1  0.1002087E-008  0.1628065E+03  0.7561462E-02  0.1084467E+00
         22   -1    0    0    0    0  0.00000000000E+00  0.00000000000E+00  0.10705055519E+04  0.10705055519E+04  0.00000000000E+00 0. -1.
         22   -1    0    0    0    0 -0.00000000000E+00 -0.00000000000E+00 -0.36324107139E+03  0.36324107139E+03  0.00000000000E+00 0. -1.
         24    2    1    2    0    0  0.63377141161E+02 -0.41973773188E+02 -0.25897616263E+03  0.28185568760E+03  0.81212783263E+02 0.  0.
         25    2    1    2    0    0 -0.16263721647E+03  0.20230810117E+02  0.31948913778E+02  0.20863530587E+03  0.12509119834E+03 0.  0.
        -24    2    1    2    0    0  0.99260075312E+02  0.21742963071E+02  0.93429172937E+03  0.94325562983E+03  0.80652517905E+02 0.  0.
        -13    1    3    3    0    0  0.19770609044E+02  0.18205871058E+02 -0.26317541692E+02  0.37615737712E+02  0.00000000000E+00 0.  1.
         14    1    3    3    0    0  0.43606532117E+02 -0.60179644246E+02 -0.23265862094E+03  0.24423994989E+03  0.00000000000E+00 0. -1.
         11    1    5    5    0    0  0.77925768140E+02  0.31496090972E+02  0.41454966612E+03  0.42298446162E+03  0.00000000000E+00 0. -1.
        -12    1    5    5    0    0  0.21334307172E+02 -0.97531279011E+01  0.51974206324E+03  0.52027116821E+03  0.00000000000E+00 0.  1.
          5    1    4    4  501    0 -0.22682332817E+02  0.32449375433E+02 -0.34950920323E+02  0.52976309983E+02  0.41800000000E+01 0. -1.
         -5    1    4    4    0  501 -0.13995488366E+03 -0.12218565316E+02  0.66899834100E+02  0.15565899589E+03  0.41800000000E+01 0. -1.
</event>
<event>
11    1  0.1002087E-008  0.1629585E+03  0.7561462E-02  0.1084327E+00
         22   -1    0    0    0    0  0.00000000000E+00  0.00000000000E+00  0.23176599337E+04  0.23176599337E+04  0.00000000000E+00 0.  1.
         22   -1    0    0    0    0 -0.00000000000E+00 -0.00000000000E+00 -0.85118983056E+02  0.85118983056E+02  0.00000000000E+00 0. -1.
        -24    2    1    2    0    0 -0.49619724954E+02 -0.88463877290E+02  0.13427280918E+01  0.13004448246E+03  0.81374380553E+02 0.  0.
         25    2    1    2    0    0 -0.24868348301E+02  0.15759816949E+03  0.54359469070E+03  0.58017110927E+03  0.12509080905E+03 0.  0.
         24    2    1    2    0    0  0.74488073254E+02 -0.69134292202E+02  0.16876035319E+04  0.16925633251E+04  0.80230325053E+02 0.  0.
        -11    1    5    5    0    0  0.46550400760E+02 -0.65272105765E+02  0.15514172842E+04  0.15534873599E+04  0.00000000000E+00 0.  1.
         12    1    5    5    0    0  0.27937672494E+02 -0.38621864371E+01  0.13618624766E+03  0.13907596514E+03  0.00000000000E+00 0. -1.
         13    1    3    3    0    0 -0.65605948949E+02 -0.78529460486E+02 -0.17037877261E+02  0.10373671464E+03  0.00000000000E+00 0. -1.
        -14    1    3    3    0    0  0.15986223996E+02 -0.99344168038E+01  0.18380605353E+02  0.26307767826E+02  0.00000000000E+00 0.  1.
          5    1    4    4  501    0  0.67248096739E+00 -0.20860044438E+01 -0.57870995516E+01  0.74677015481E+01  0.41800000000E+01 0.  1.
         -5    1    4    4    0  501 -0.25540829268E+02  0.15968417394E+03  0.54938179025E+03  0.57270340773E+03  0.41800000000E+01 0.  1.
</event>
<event>
11    1  0.1002087E-008  0.1980514E+03  0.7561462E-02  0.1055910E+00
         22   -1    0    0    0    0  0.00000000000E+00  0.00000000000E+00  0.89197482029E+03  0.89197482029E+03  0.00000000000E+00 0. -1.
         22   -1    0    0    0    0 -0.00000000000E+00 -0.00000000000E+00 -0.18116728503E+03  0.18116728503E+03  0.00000000000E+00 0.  1.
         24    2    1    2    0    0 -0.30781877450E+02 -0.14928578524E+03 -0.77927523752E+02  0.19049699250E+03  0.83562165704E+02 0.  0.
         25    2    1    2    0    0  0.58445571399E+02  0.14901286358E+03  0.19025510926E+03  0.27832622854E+03  0.12509102513E+03 0.  0.
        -24    2    1    2    0    0 -0.27663693949E+02  0.27292166625E+00  0.59847994975E+03  0.60431888428E+03  0.79105683693E+02 0.  0.
        -11    1    3    3    0    0 -0.22909562411E+02 -0.15802494082E+03 -0.79930769009E+02  0.17856555604E+03  0.00000000000E+00 0.  1.
         12    1    3    3    0    0 -0.78723150381E+01  0.87391555767E+01  0.20032452573E+01  0.11931436452E+02  0.00000000000E+00 0. -1.
         11    1    5    5    0    0  0.21967801664E+02 -0.19329766036E+02  0.16600113789E+03  0.16856038072E+03  0.00000000000E+00 0. -1.
        -12    1    5    5    0    0 -0.49631495613E+02  0.19602687703E+02  0.43247881186E+03  0.43575850356E+03  0.00000000000E+00 0.  1.
          5    1    4    4  501    0  0.52972087164E+02  0.17071859745E+03  0.15653787793E+03  0.23763935103E+03  0.41800000000E+01 0. -1.
         -5    1    4    4    0  501  0.54734842345E+01 -0.21705733873E+02  0.33717231335E+02  0.40686877510E+02  0.41800000000E+01 0. -1.
</event>
<event>
11    1  0.1002087E-008  0.1503216E+03  0.7561462E-02  0.1096551E+00
         22   -1    0    0    0    0  0.00000000000E+00  0.00000000000E+00  0.14661275140E+03  0.14661275140E+03  0.00000000000E+00 0.  1.
         22   -1    0    0    0    0 -0.00000000000E+00 -0.00000000000E+00 -0.19026134334E+04  0.19026134334E+04  0.00000000000E+00 0.  1.
        -24    2    1    2    0    0  0.37995605638E+01 -0.86184076236E+02 -0.17188679220E+04  0.17228581344E+04  0.79316368853E+02 0.  0.
         25    2    1    2    0    0 -0.13359423238E+02  0.43436743131E+02 -0.13676768495E+03  0.19083355274E+03  0.12508725099E+03 0.  0.
         24    2    1    2    0    0  0.95598626745E+01  0.42747333104E+02  0.99634924986E+02  0.13553449762E+03  0.80769773474E+02 0.  0.
        -13    1    5    5    0    0 -0.17156490446E+02  0.49558327845E+02  0.93630318800E+02  0.10731733141E+03  0.00000000000E+00 0.  1.
         14    1    5    5    0    0  0.26716353120E+02 -0.68109947410E+01  0.60046061857E+01  0.28217166209E+02  0.00000000000E+00 0. -1.
         11    1    3    3    0    0  0.17494989785E+02 -0.36968447455E+02 -0.26908583015E+03  0.27217627516E+03  0.00000000000E+00 0. -1.
        -12    1    3    3    0    0 -0.13695429221E+02 -0.49215628781E+02 -0.14497820919E+04  0.14506818593E+04  0.00000000000E+00 0.  1.
          5    1    4    4  501    0  0.20075182275E+02 -0.32485065209E+02 -0.10728937170E+02  0.39885773126E+02  0.41800000000E+01 0.  1.
         -5    1    4    4    0  501 -0.33434605513E+02  0.75921808341E+02 -0.12603874778E+03  0.15094777961E+03  0.41800000000E+01 0.  1.
</event>
<event>
11    1  0.1002087E-008  0.1343252E+03  0.7561462E-02  0.1114066E+00
         22   -1    0    0    0    0  0.00000000000E+00  0.00000000000E+00  0.70995249790E+02  0.70995249790E+02  0.00000000000E+00 0. -1.
         22   -1    0    0    0    0 -0.00000000000E+00 -0.00000000000E+00 -0.10491514597E+04  0.10491514597E+04  0.00000000000E+00 0.  1.
        -24    2    1    2    0    0 -0.23566541325E+02  0.47625155567E+02 -0.70403253280E+03  0.71186063074E+03  0.90885714234E+02 0.  0.
         25    2    1    2    0    0 -0.13985298251E+02 -0.41928489696E+02 -0.28974805150E+03  0.31867588924E+03  0.12508717849E+03 0.  0.
         24    2    1    2    0    0  0.37551839576E+02 -0.56966658705E+01  0.15624374343E+02  0.89610189547E+02  0.79644662969E+02 0.  0.
        -13    1    5    5    0    0  0.77886736644E+01  0.35934706526E+02  0.29469521380E+01  0.36887004453E+02  0.00000000000E+00 0.  1.
         14    1    5    5    0    0  0.29763165911E+02 -0.41631372397E+02  0.12677422204E+02  0.52723185094E+02  0.00000000000E+00 0. -1.
         11    1    3    3    0    0 -0.46514132087E+02  0.40992827534E+02 -0.26409257523E+03  0.27127267589E+03  0.00000000000E+00 0. -1.
        -12    1    3    3    0    0  0.22947590763E+02  0.66323280327E+01 -0.43993995756E+03  0.44058795485E+03  0.00000000000E+00 0.  1.
          5    1    4    4  501    0 -0.39980981355E+02  0.16359738092E+01 -0.21452651939E+02  0.45594341268E+02  0.41800000000E+01 0. -1.
         -5    1    4    4    0  501  0.25995683104E+02 -0.43564463505E+02 -0.26829539956E+03  0.27308154798E+03  0.41800000000E+01 0. -1.
</event>
<event>
11    1  0.1002087E-008  0.1350337E+03  0.7561462E-02  0.1113234E+00
         22   -1    0    0    0    0  0.00000000000E+00  0.00000000000E+00  0.19705595459E+03  0.19705595459E+03  0.00000000000E+00 0.  1.
         22   -1    0    0    0    0 -0.00000000000E+00 -0.00000000000E+00 -0.20995419348E+03  0.20995419348E+03  0.00000000000E+00 0.  1.
         24    2    1    2    0    0 -0.97658491361E+01  0.63647462912E+02 -0.10144356161E+03  0.14708412008E+03  0.84832604837E+02 0.  0.
         25    2    1    2    0    0  0.19580839874E+02  0.69800489982E+01  0.14068656861E+02  0.12758415922E+03  0.12509060798E+03 0.  0.
        -24    2    1    2    0    0 -0.98149907376E+01 -0.70627511911E+02  0.74476665859E+02  0.13234186877E+03  0.82963949946E+02 0.  0.
        -11    1    3    3    0    0 -0.38257967865E+02  0.20777681802E+01 -0.31011885220E+02  0.49292253455E+02  0.00000000000E+00 0.  1.
         12    1    3    3    0    0  0.28492118729E+02  0.61569694732E+02 -0.70431676391E+02  0.97791866627E+02  0.00000000000E+00 0. -1.
         11    1    5    5    0    0  0.34840269503E+02 -0.47716277241E+02  0.43409399793E+02  0.73314824444E+02  0.00000000000E+00 0. -1.
        -12    1    5    5    0    0 -0.44655260241E+02 -0.22911234669E+02  0.31067266066E+02  0.59027044328E+02  0.00000000000E+00 0.  1.
          5    1    4    4  501    0 -0.44895523304E+02  0.34138341030E+02  0.30661931011E+01  0.56638399352E+02  0.41800000000E+01 0.  1.
         -5    1    4    4    0  501  0.64476363178E+02 -0.27158292032E+02  0.11002463760E+02  0.70945759870E+02  0.41800000000E+01 0.  1.
</event>
<event>
11    1  0.1002087E-008  0.1505089E+03  0.7561462E-02  0.1096360E+00
         22   -1    0    0    0    0  0.00000000000E+00  0.00000000000E+00  0.26948868623E+03  0.26948868623E+03  0.00000000000E+00 0.  1.
         22   -1    0    0    0    0 -0.00000000000E+00 -0.00000000000E+00 -0.27825900615E+04  0.27825900615E+04  0.00000000000E+00 0.  1.
         24    2    1    2    0    0  0.43045056257E+02 -0.49924811010E+01 -0.22502680661E+04  0.22519274888E+04  0.74787994205E+02 0.  0.
         25    2    1    2    0    0 -0.47280734313E+02 -0.78667839865E+02 -0.50683750878E+03  0.53005160773E+03  0.12508536959E+03 0.  0.
        -24    2    1    2    0    0  0.42356780568E+01  0.83660320966E+02  0.24400419957E+03  0.27009965117E+03  0.79992386404E+02 0.  0.
        -13    1    3    3    0    0  0.61357591901E+02  0.10381182751E+02 -0.17056049924E+04  0.17067398493E+04  0.00000000000E+00 0.  1.
         14    1    3    3    0    0 -0.18312535644E+02 -0.15373663852E+02 -0.54466307362E+03  0.54518763951E+03  0.00000000000E+00 0. -1.
         11    1    5    5    0    0  0.26979935533E+02 -0.81982729641E+00  0.76526094430E+02  0.81146978791E+02  0.00000000000E+00 0. -1.
        -12    1    5    5    0    0 -0.22744257476E+02  0.84480148263E+02  0.16747810514E+03  0.18895267238E+03  0.00000000000E+00 0.  1.
          5    1    4    4  501    0 -0.70042239208E+02 -0.10774271657E+02 -0.14837431040E+03  0.16448224400E+03  0.41800000000E+01 0. -1.
         -5    1    4    4    0  501  0.22761504894E+02 -0.67893568208E+02 -0.35846319838E+03  0.36556936373E+03  0.41800000000E+01 0. -1.
</event>
<event>
11    1  0.1002087E-008  0.1401020E+03  0.7561462E-02  0.1107445E+00
         22   -1    0    0    0    0  0.00000000000E+00  0.00000000000E+00  0.11653135737E+03  0.11653135737E+03  0.00000000000E+00 0. -1.
         22   -1    0    0    0    0 -0.00000000000E+00 -0.00000000000E+00 -0.65966589941E+03  0.65966589941E+03  0.00000000000E+00 0. -1.
        -24    2    1    2    0    0  0.27881396136E+02 -0.50496536206E+02 -0.43794180061E+03  0.44885707481E+03  0.79701822267E+02 0.  0.
         25    2    1    2    0    0  0.17569297664E+02  0.90695442063E+02 -0.15141258252E+03  0.21704373259E+03  0.12509143968E+03 0.  0.
         24    2    1    2    0    0 -0.45450693800E+02 -0.40198905857E+02  0.46219841085E+02  0.11029644937E+03  0.79670041017E+02 0.  0.
        -11    1    5    5    0    0 -0.47105591608E+02  0.11404765228E+02  0.20668113377E+02  0.52689432918E+02  0.00000000000E+00 0.  1.
         12    1    5    5    0    0  0.16548978078E+01 -0.51603671085E+02  0.25551727708E+02  0.57607016457E+02  0.00000000000E+00 0. -1.
         13    1    3    3    0    0 -0.15751612655E+02 -0.73426713849E+01 -0.26094816649E+03  0.26152623906E+03  0.00000000000E+00 0. -1.
        -14    1    3    3    0    0  0.43633008791E+02 -0.43153864821E+02 -0.17699363412E+03  0.18733083575E+03  0.00000000000E+00 0.  1.
          5    1    4    4  501    0 -0.38454009621E+02  0.91390987369E+02 -0.93241977389E+02  0.13617107687E+03  0.41800000000E+01 0. -1.
         -5    1    4    4    0  501  0.56023307285E+02 -0.69554530616E+00 -0.58170605135E+02  0.80872655726E+02  0.41800000000E+01 0. -1.
</event>
<event>
11    1  0.1002087E-008  0.1357694E+03  0.7561462E-02  0.1112377E+00
         22   -1    0    0    0    0  0.00000000000E+00  0.00000000000E+00  0.91062186004E+03  0.91062186004E+03  0.00000000000E+00 0. -1.
         22   -1    0    0    0    0 -0.00000000000E+00 -0.00000000000E+00 -0.78494181939E+03  0.78494181939E+03  0.00000000000E+00 0. -1.
         24    2    1    2    0    0 -0.48880688548E+02  0.19682032478E+02 -0.76468576649E+03  0.77092284678E+03  0.82468236892E+02 0.  0.
         25    2    1    2    0    0  0.63450601544E+02 -0.89300411401E+01  0.34570814472E+03  0.37318606596E+03  0.12509194232E+03 0.  0.
        -24    2    1    2    0    0 -0.14569912995E+02 -0.10751991337E+02  0.54465766242E+03  0.55145476668E+03  0.84394921459E+02 0.  0.
        -13    1    3    3    0    0 -0.43170992380E+02  0.10325493986E+02 -0.15743091791E+03  0.16356908119E+03  0.00000000000E+00 0.  1.
         14    1    3    3    0    0 -0.57096961683E+01  0.93565384919E+01 -0.60725484859E+03  0.60735376559E+03  0.00000000000E+00 0. -1.
         11    1    5    5    0    0 -0.13674546243E+02 -0.46737873226E+02  0.25903315037E+03  0.26357085385E+03  0.00000000000E+00 0. -1.
        -12    1    5    5    0    0 -0.89536675234E+00  0.35985881888E+02  0.28562451206E+03  0.28788391283E+03  0.00000000000E+00 0.  1.
          5    1    4    4  501    0  0.32081615556E+02 -0.51162334219E+02  0.29078090733E+03  0.29701485311E+03  0.41800000000E+01 0. -1.
         -5    1    4    4    0  501  0.31368985988E+02  0.42232293079E+02  0.54927237392E+02  0.76171212857E+02  0.41800000000E+01 0. -1.
</event>
<event>
11    1  0.1002087E-008  0.1406172E+03  0.7561462E-02  0.1106871E+00
         22   -1    0    0    0    0  0.00000000000E+00  0.00000000000E+00  0.10915467451E+04  0.10915467451E+04  0.00000000000E+00 0.  1.
         22   -1    0    0    0    0 -0.00000000000E+00 -0.00000000000E+00 -0.50176829747E+03  0.50176829747E+03  0.00000000000E+00 0. -1.
         24    2    1    2    0    0  0.39075610030E+02  0.51449642956E+02 -0.38773435606E+03  0.40131580716E+03  0.80885580598E+02 0.  0.
         25    2    1    2    0    0 -0.48177766812E+02 -0.40586906609E+02 -0.59001507757E+02  0.15197812867E+03  0.12509108471E+03 0.  0.
        -24    2    1    2    0    0  0.91021567818E+01 -0.10862736347E+02  0.10365143115E+04  0.10400211068E+04  0.84149488095E+02 0.  0.
        -13    1    3    3    0    0  0.27867452183E+02  0.36033524496E+02 -0.73279214698E+02  0.86283562082E+02  0.00000000000E+00 0.  1.
         14    1    3    3    0    0  0.11208157847E+02  0.15416118460E+02 -0.31445514136E+03  0.31503224508E+03  0.00000000000E+00 0. -1.
         13    1    5    5    0    0  0.11298474094E+02 -0.85645365904E+00  0.16850716188E+02  0.20306049979E+02  0.00000000000E+00 0. -1.
        -14    1    5    5    0    0 -0.21963173118E+01 -0.10006282688E+02  0.10196635953E+04  0.10197150568E+04  0.00000000000E+00 0.  1.
          5    1    4    4  501    0  0.41209441797E+02 -0.18929682423E+02 -0.33213816123E+02  0.56366487839E+02  0.41800000000E+01 0.  1.
         -5    1    4    4    0  501 -0.89387208609E+02 -0.21657224186E+02 -0.25787691634E+02  0.95611640830E+02  0.41800000000E+01 0.  1.
</event>
<event>
11    1  0.1002087E-008  0.1875896E+03  0.7561462E-02  0.1063664E+00
         22   -1    0    0    0    0  0.00000000000E+00  0.00000000000E+00  0.15305326718E+04  0.15305326718E+04  0.00000000000E+00 0.  1.
         22   -1    0    0    0    0 -0.00000000000E+00 -0.00000000000E+00 -0.97998916629E+02  0.97998916629E+02  0.00000000000E+00 0. -1.
        -24    2    1    2    0    0  0.19541524475E+01 -0.24748012504E+02 -0.25721167237E+02  0.97218805153E+02  0.90408156693E+02 0.  0.
         25    2    1    2    0    0 -0.99194915821E+01 -0.11846455855E+03  0.20808021194E+03  0.27032756943E+03  0.12508945697E+03 0.  0.
         24    2    1    2    0    0  0.79653391347E+01  0.14321257106E+03  0.12501747105E+04  0.12609852139E+04  0.81077837361E+02 0.  0.
        -11    1    5    5    0    0  0.19893007518E+02  0.10604756158E+03  0.11172590723E+04  0.11224569710E+04  0.00000000000E+00 0.  1.
         12    1    5    5    0    0 -0.11927668383E+02  0.37165009480E+02  0.13291563821E+03  0.13852824291E+03  0.00000000000E+00 0. -1.
         13    1    3    3    0    0  0.96174049746E+01 -0.97780221949E+01 -0.58656305792E+02  0.60238413041E+02  0.00000000000E+00 0. -1.
        -14    1    3    3    0    0 -0.76632525272E+01 -0.14969990309E+02  0.32935138555E+02  0.36980392112E+02  0.00000000000E+00 0.  1.
          5    1    4    4  501    0  0.54562181281E+02 -0.39035686769E+02  0.58806916978E+02  0.89311490594E+02  0.41800000000E+01 0. -1.
         -5    1    4    4    0  501 -0.64481672863E+02 -0.79428871783E+02  0.14927329496E+03  0.18101607883E+03  0.41800000000E+01 0. -1.
</event>
<event>
11    1  0.1002087E-008  0.1509371E+03  0.7561462E-02  0.1095925E+00
         22   -1    0    0    0    0  0.00000000000E+00  0.00000000000E+00  0.12037282792E+04  0.12037282792E+04  0.00000000000E+00 0.  1.
         22   -1    0    0    0    0 -0.00000000000E+00 -0.00000000000E+00 -0.11232671370E+03  0.11232671370E+03  0.00000000000E+00 0. -1.
         24    2    1    2    0    0 -0.83282109647E+02 -0.10933774127E+02 -0.43769657953E+02  0.12389211010E+03  0.79862474194E+02 0.  0.
         25    2    1    2    0    0  0.86323358856E+02  0.10947553330E+02  0.19017698558E+03  0.24369279902E+03  0.12508926109E+03 0.  0.
        -24    2    1    2    0    0 -0.30412492089E+01 -0.13779203540E-01  0.94499423790E+03  0.94847008381E+03  0.81068741362E+02 0.  0.
        -13    1    3    3    0    0 -0.29897369906E+02 -0.40105599632E+01  0.23138047152E+02  0.38017187488E+02  0.00000000000E+00 0.  1.
         14    1    3    3    0    0 -0.53384739741E+02 -0.69232141635E+01 -0.66907705105E+02  0.85874922614E+02  0.00000000000E+00 0. -1.
         13    1    5    5    0    0 -0.27182177366E+02  0.31378623062E+02  0.49089268018E+03  0.49264501642E+03  0.00000000000E+00 0. -1.
        -14    1    5    5    0    0  0.24140928157E+02 -0.31392402266E+02  0.45410155772E+03  0.45582506739E+03  0.00000000000E+00 0.  1.
          5    1    4    4  501    0  0.10800258874E+03 -0.20423489434E+02  0.11407261948E+03  0.15846675680E+03  0.41800000000E+01 0. -1.
         -5    1    4    4    0  501 -0.21679229886E+02  0.31371042764E+02  0.76104366103E+02  0.85226042220E+02  0.41800000000E+01 0. -1.
</event>
<event>
11    1  0.1002087E-008  0.1340063E+03  0.7561462E-02  0.1114442E+00
         22   -1    0    0    0    0  0.00000000000E+00  0.00000000000E+00  0.38685779234E+03  0.38685779234E+03  0.00000000000E+00 0.  1.
         22   -1    0    0    0    0 -0.00000000000E+00 -0.00000000000E+00 -0.21627936693E+03  0.21627936693E+03  0.00000000000E+00 0. -1.
         24    2    1    2    0    0  0.35880208786E+02  0.26652240701E+02 -0.12607970378E+03  0.15633372600E+03  0.80909893481E+02 0.  0.
         25    2    1    2    0    0 -0.49355498716E+02 -0.40771894152E+02  0.20886546819E+01  0.14053474038E+03  0.12508932077E+03 0.  0.
        -24    2    1    2    0    0  0.13475289930E+02  0.14119653451E+02  0.29456947450E+03  0.30626869288E+03  0.81537653152E+02 0.  0.
        -11    1    3    3    0    0  0.31630782874E+02 -0.13173264538E+02 -0.13475778849E+02  0.36818988843E+02  0.00000000000E+00 0.  1.
         12    1    3    3    0    0  0.42494259123E+01  0.39825505240E+02 -0.11260392493E+03  0.11951473716E+03  0.00000000000E+00 0. -1.
         13    1    5    5    0    0 -0.71084943791E+01  0.35703744568E+02  0.62805801116E+02  0.72593778812E+02  0.00000000000E+00 0. -1.
        -14    1    5    5    0    0  0.20583784309E+02 -0.21584091117E+02  0.23176367339E+03  0.23367491407E+03  0.00000000000E+00 0.  1.
          5    1    4    4  501    0  0.31625710430E+02  0.12814360534E+02 -0.21461262638E+02  0.40527171011E+02  0.41800000000E+01 0.  1.
         -5    1    4    4    0  501 -0.80981209146E+02 -0.53586254687E+02  0.23549917320E+02  0.10000756937E+03  0.41800000000E+01 0.  1.
</event>
<event>
11    1  0.1002087E-008  0.1748697E+03  0.7561462E-02  0.1073870E+00
         22   -1    0    0    0    0  0.00000000000E+00  0.00000000000E+00  0.69952037086E+02  0.69952037086E+02  0.00000000000E+00 0. -1.
         22   -1    0    0    0    0 -0.00000000000E+00 -0.00000000000E+00 -0.10008207085E+04  0.10008207085E+04  0.00000000000E+00 0.  1.
        -24    2    1    2    0    0  0.41665877853E+01 -0.97842133958E+02 -0.45997942239E+03  0.47675727523E+03  0.78268683625E+02 0.  0.
         25    2    1    2    0    0 -0.11699567668E+03  0.27262712325E+02 -0.36906224176E+03  0.40778137205E+03  0.12508982872E+03 0.  0.
         24    2    1    2    0    0  0.11282908889E+03  0.70579421633E+02 -0.10182700724E+03  0.18623409828E+03  0.81256026856E+02 0.  0.
        -13    1    5    5    0    0 -0.38531587095E+01  0.28341888652E+02 -0.35302569766E+02  0.45435458802E+02  0.00000000000E+00 0.  1.
         14    1    5    5    0    0  0.11668224760E+03  0.42237532981E+02 -0.66524437476E+02  0.14079863948E+03  0.00000000000E+00 0. -1.
         11    1    3    3    0    0  0.39134169550E+02 -0.66916700305E+02 -0.25462254871E+03  0.26616154928E+03  0.00000000000E+00 0. -1.
        -12    1    3    3    0    0 -0.34967581764E+02 -0.30925433653E+02 -0.20535687368E+03  0.21059572595E+03  0.00000000000E+00 0.  1.
          5    1    4    4  501    0 -0.13211864970E+03 -0.41323831494E+00 -0.23142828931E+03  0.26651835557E+03  0.41800000000E+01 0. -1.
         -5    1    4    4    0  501  0.15122973016E+02  0.27675950640E+02 -0.13763395245E+03  0.14126301648E+03  0.41800000000E+01 0. -1.
</event>
<event>
11    1  0.1002087E-008  0.1377298E+03  0.7561462E-02  0.1110120E+00
         22   -1    0    0    0    0  0.00000000000E+00  0.00000000000E+00  0.31337977413E+04  0.31337977413E+04  0.00000000000E+00 0. -1.
         22   -1    0    0    0    0 -0.00000000000E+00 -0.00000000000E+00 -0.12924871693E+03  0.12924871693E+03  0.00000000000E+00 0.  1.
        -24    2    1    2    0    0  0.29619854816E+02 -0.38341712014E+02 -0.20817622140E+02  0.96124244311E+02  0.80368366122E+02 0.  0.
         25    2    1    2    0    0 -0.61425324105E+02  0.47901856009E+02  0.72264893752E+01  0.14753680549E+03  0.12508888270E+03 0.  0.
         24    2    1    2    0    0  0.31805469289E+02 -0.95601439948E+01  0.30181401571E+04  0.30193854084E+04  0.80095270214E+02 0.  0.
        -11    1    5    5    0    0 -0.16525448974E+02  0.14409323517E+02  0.34229784091E+03  0.34299931627E+03  0.00000000000E+00 0.  1.
         12    1    5    5    0    0  0.48330918263E+02 -0.23969467512E+02  0.26758423162E+04  0.26763860922E+04  0.00000000000E+00 0. -1.
         11    1    3    3    0    0 -0.87785883307E+01  0.31796216620E+01  0.22842698182E+02  0.24677164895E+02  0.00000000000E+00 0. -1.
        -12    1    3    3    0    0  0.38398443147E+02 -0.41521333676E+02 -0.43660320323E+02  0.71447079416E+02  0.00000000000E+00 0.  1.
          5    1    4    4  501    0  0.28612196594E+02 -0.19197440860E+02  0.55992872385E+01  0.35157132237E+02  0.41800000000E+01 0. -1.
         -5    1    4    4    0  501 -0.90037520700E+02  0.67099296869E+02  0.16272021367E+01  0.11237967325E+03  0.41800000000E+01 0. -1.
</event>
<event>
11    1  0.1002087E-008  0.1498532E+03  0.7561462E-02  0.1097029E+00
         22   -1    0    0    0    0  0.00000000000E+00  0.00000000000E+00  0.23613616729E+03  0.23613616729E+03  0.00000000000E+00 0.  1.
         22   -1    0    0    0    0 -0.00000000000E+00 -0.00000000000E+00 -0.73096157284E+03  0.73096157284E+03  0.00000000000E+00 0. -1.
         24    2    1    2    0    0 -0.22929050635E+02  0.48528783650E+02 -0.49689934412E+03  0.50626324386E+03  0.80701485040E+02 0.  0.
         25    2    1    2    0    0 -0.17515700851E+02 -0.11744047931E+03 -0.17486343191E+03  0.24560981937E+03  0.12509155684E+03 0.  0.
        -24    2    1    2    0    0  0.40444751486E+02  0.68911695664E+02  0.17693737047E+03  0.21522467691E+03  0.92899024531E+02 0.  0.
        -11    1    3    3    0    0 -0.21875498262E+02  0.37878685423E+02 -0.99150502131E+02  0.10837044941E+03  0.00000000000E+00 0.  1.
         12    1    3    3    0    0 -0.10535523729E+01  0.10650098227E+02 -0.39774884199E+03  0.39789279444E+03  0.00000000000E+00 0. -1.
         11    1    5    5    0    0 -0.15296806733E+02 -0.14062236901E+02  0.18123642887E+02  0.27571819570E+02  0.00000000000E+00 0. -1.
        -12    1    5    5    0    0  0.55741558219E+02  0.82973932564E+02  0.15881372759E+03  0.18765285734E+03  0.00000000000E+00 0.  1.
          5    1    4    4  501    0  0.38376611854E+02 -0.69932532543E+02 -0.14647854706E+03  0.16684352128E+03  0.41800000000E+01 0. -1.
         -5    1    4    4    0  501 -0.55892312705E+02 -0.47507946770E+02 -0.28384884846E+02  0.78766298082E+02  0.41800000000E+01 0. -1.
</event>
<event>
11    1  0.1002087E-008  0.1419739E+03  0.7561462E-02  0.1105374E+00
         22   -1    0    0    0    0  0.00000000000E+00  0.00000000000E+00  0.39366427898E+03  0.39366427898E+03  0.00000000000E+00 0. -1.
         22   -1    0    0    0    0 -0.00000000000E+00 -0.00000000000E+00 -0.27138874692E+03  0.27138874692E+03  0.00000000000E+00 0. -1.
        -24    2    1    2    0    0 -0.28338313824E+02  0.62748015152E+02 -0.20673490949E+03  0.23245154729E+03  0.80956936716E+02 0.  0.
         25    2    1    2    0    0  0.31560940465E+01 -0.56472804536E+02  0.62077273180E+02  0.15066505430E+03  0.12508889703E+03 0.  0.
         24    2    1    2    0    0  0.25182219777E+02 -0.62752106164E+01  0.26693316837E+03  0.28193642431E+03  0.86955784804E+02 0.  0.
        -13    1    5    5    0    0 -0.17939180779E+02  0.27770538716E+02  0.68871374782E+02  0.76395571154E+02  0.00000000000E+00 0.  1.
         14    1    5    5    0    0  0.43121400556E+02 -0.34045749332E+02  0.19806179359E+03  0.20554085315E+03  0.00000000000E+00 0. -1.
         13    1    3    3    0    0  0.42846341384E+01  0.15820324217E+02 -0.15341611361E+03  0.15428915925E+03  0.00000000000E+00 0. -1.
        -14    1    3    3    0    0 -0.32622947962E+02  0.46927690935E+02 -0.53318795877E+02  0.78162388039E+02  0.00000000000E+00 0.  1.
          5    1    4    4  501    0  0.10367343508E+02 -0.88824522885E+02  0.73001532336E+02  0.11551611922E+03  0.41800000000E+01 0.  1.
         -5    1    4    4    0  501 -0.72112494616E+01  0.32351718349E+02 -0.10924259156E+02  0.35148935077E+02  0.41800000000E+01 0.  1.
</event>
<event>
11    1  0.1002087E-008  0.1448401E+03  0.7561462E-02  0.1102271E+00
         22   -1    0    0    0    0  0.00000000000E+00  0.00000000000E+00  0.14787780140E+03  0.14787780140E+03  0.00000000000E+00 0.  1.
         22   -1    0    0    0    0 -0.00000000000E+00 -0.00000000000E+00 -0.38056232875E+03  0.38056232875E+03  0.00000000000E+00 0.  1.
        -24    2    1    2    0    0 -0.26186582006E+02 -0.27006589048E+02 -0.18507889719E+03  0.20531985276E+03  0.80541609270E+02 0.  0.
         25    2    1    2    0    0 -0.20680149578E+02  0.81974429315E+02 -0.12029917507E+03  0.19304544708E+03  0.12508867842E+03 0.  0.
         24    2    1    2    0    0  0.46866731584E+02 -0.54967840267E+02  0.72693544904E+02  0.13007483031E+03  0.80107153341E+02 0.  0.
        -13    1    5    5    0    0  0.55296864368E+02 -0.62220631972E+02  0.34176206619E+02  0.89984239458E+02  0.00000000000E+00 0.  1.
         14    1    5    5    0    0 -0.84301327844E+01  0.72527917051E+01  0.38517338285E+02  0.40090590852E+02  0.00000000000E+00 0. -1.
         11    1    3    3    0    0  0.17183451244E+01 -0.30948743439E+01  0.80140802829E+01  0.87610752738E+01  0.00000000000E+00 0. -1.
        -12    1    3    3    0    0 -0.27904927130E+02 -0.23911714704E+02 -0.19309297747E+03  0.19655877749E+03  0.00000000000E+00 0.  1.
          5    1    4    4  501    0 -0.41419721705E+02  0.10814890183E+03 -0.81448645829E+02  0.14164438789E+03  0.41800000000E+01 0. -1.
         -5    1    4    4    0  501  0.20739572126E+02 -0.26174472519E+02 -0.38850529242E+02  0.51401059192E+02  0.41800000000E+01 0. -1.
</event>
<event>
11    1  0.1002087E-008  0.1935458E+03  0.7561462E-02  0.1059184E+00
         22   -1    0    0    0    0  0.00000000000E+00  0.00000000000E+00  0.16370945499E+04  0.16370945499E+04  0.00000000000E+00 0. -1.
         22   -1    0    0    0    0 -0.00000000000E+00 -0.00000000000E+00 -0.10159058050E+03  0.10159058050E+03  0.00000000000E+00 0.  1.
         24    2    1    2    0    0 -0.14823583849E+02  0.13087602772E+03  0.32868262180E+02  0.15784339411E+03  0.80535340919E+02 0.  0.
         25    2    1    2    0    0 -0.12084752757E+02 -0.23653247442E+03  0.48319577220E+03  0.55246663791E+03  0.12509028349E+03 0.  0.
        -24    2    1    2    0    0  0.26908336606E+02  0.10565644671E+03  0.10194399350E+04  0.10283750984E+04  0.80063840430E+02 0.  0.
        -13    1    3    3    0    0 -0.21317878166E+02  0.13337891918E+03  0.11719984444E+02  0.13557929800E+03  0.00000000000E+00 0.  1.
         14    1    3    3    0    0  0.64942943170E+01 -0.25028914642E+01  0.21148277736E+02  0.22264096109E+02  0.00000000000E+00 0. -1.
         11    1    5    5    0    0 -0.25756434485E+02  0.43434697908E+02  0.50475033084E+03  0.50727001034E+03  0.00000000000E+00 0. -1.
        -12    1    5    5    0    0  0.52664771091E+02  0.62221748798E+02  0.51468960416E+03  0.52110508803E+03  0.00000000000E+00 0.  1.
          5    1    4    4  501    0 -0.29918146095E+02 -0.23196726638E+03  0.37027052234E+03  0.43797447443E+03  0.41800000000E+01 0. -1.
         -5    1    4    4    0  501  0.17833393338E+02 -0.45652080436E+01  0.11292524985E+03  0.11449216347E+03  0.41800000000E+01 0. -1.
</event>
<event>
11    1  0.1002087E-008  0.2055777E+03  0.7561462E-02  0.1050648E+00
         22   -1    0    0    0    0  0.00000000000E+00  0.00000000000E+00  0.20184466230E+04  0.20184466230E+04  0.00000000000E+00 0.  1.
         22   -1    0    0    0    0 -0.00000000000E+00 -0.00000000000E+00 -0.51828367860E+03  0.51828367860E+03  0.00000000000E+00 0. -1.
        -24    2    1    2    0    0 -0.32381031200E+02 -0.16050873588E+03 -0.48933603006E+03  0.52216895213E+03  0.79994242170E+02 0.  0.
         25    2    1    2    0    0 -0.55593766021E+02  0.13054008389E+03  0.12574897377E+04  0.12716356777E+04  0.12508187732E+03 0.  0.
         24    2    1    2    0    0  0.87974797220E+02  0.29968651990E+02  0.73200923679E+03  0.74292567180E+03  0.86390659382E+02 0.  0.
        -11    1    5    5    0    0  0.79938247803E+02 -0.11806987902E+02  0.39018698807E+03  0.39846632742E+03  0.00000000000E+00 0.  1.
         12    1    5    5    0    0  0.80365494171E+01  0.41775639892E+02  0.34182224872E+03  0.34445934438E+03  0.00000000000E+00 0. -1.
         13    1    3    3    0    0 -0.33677186002E+02 -0.15068410188E+03 -0.48838849271E+03  0.51221398968E+03  0.00000000000E+00 0. -1.
        -14    1    3    3    0    0  0.12961548028E+01 -0.98246339942E+01 -0.94753735684E+00  0.99549624527E+01  0.00000000000E+00 0.  1.
          5    1    4    4  501    0  0.82084760593E+00  0.43419673402E+02  0.84985614293E+03  0.85097525105E+03  0.41800000000E+01 0. -1.
         -5    1    4    4    0  501 -0.56414613627E+02  0.87120410485E+02  0.40763359474E+03  0.42066042661E+03  0.41800000000E+01 0. -1.
</event>
<event>
11    1  0.1002087E-008  0.1703310E+03  0.7561462E-02  0.1077744E+00
         22   -1    0    0    0    0  0.00000000000E+00  0.00000000000E+00  0.15719272011E+04  0.15719272011E+04  0.00000000000E+00 0.  1.
         22   -1    0    0    0    0 -0.00000000000E+00 -0.00000000000E+00 -0.12821111156E+03  0.12821111156E+03  0.00000000000E+00 0.  1.
         24    2    1    2    0    0 -0.12446013242E+02  0.11937272320E+03 -0.59110467773E+02  0.15568978020E+03  0.79627319229E+02 0.  0.
         25    2    1    2    0    0  0.47111290275E+02 -0.80887727644E+02  0.30321301073E+03  0.34109819070E+03  0.12509015815E+03 0.  0.
        -24    2    1    2    0    0 -0.34665277032E+02 -0.38484995558E+02  0.11996135466E+04  0.12033503418E+04  0.79351166300E+02 0.  0.
        -11    1    3    3    0    0 -0.24936837469E+02  0.11820903854E+03 -0.69522801387E+02  0.13938666567E+03  0.00000000000E+00 0.  1.
         12    1    3    3    0    0  0.12490824227E+02  0.11636846634E+01  0.10412333615E+02  0.16303114524E+02  0.00000000000E+00 0. -1.
         11    1    5    5    0    0  0.19384139997E+01  0.23018461230E+02  0.27100119706E+03  0.27198392566E+03  0.00000000000E+00 0. -1.
        -12    1    5    5    0    0 -0.36603691032E+02 -0.61503456788E+02  0.92861234954E+03  0.93136641614E+03  0.00000000000E+00 0.  1.
          5    1    4    4  501    0 -0.30631081281E+02  0.10933384095E+02  0.96089698490E+02  0.10153080608E+03  0.41800000000E+01 0. -1.
         -5    1    4    4    0  501  0.77742371556E+02 -0.91821111739E+02  0.20712331224E+03  0.23956738461E+03  0.41800000000E+01 0. -1.
</event>
<event>
11    1  0.1002087E-008  0.1455302E+03  0.7561462E-02  0.1101536E+00
         22   -1    0    0    0    0  0.00000000000E+00  0.00000000000E+00  0.42388613333E+03  0.42388613333E+03  0.00000000000E+00 0.  1.
         22   -1    0    0    0    0 -0.00000000000E+00 -0.00000000000E+00 -0.18305092244E+03  0.18305092244E+03  0.00000000000E+00 0. -1.
        -24    2    1    2    0    0  0.52117799822E+02  0.48379703142E+02 -0.12103752268E+03  0.16150091082E+03  0.79847364156E+02 0.  0.
         25    2    1    2    0    0 -0.66073123522E+02 -0.90094156094E+02  0.18936928424E+03  0.25296589165E+03  0.12509357262E+03 0.  0.
         24    2    1    2    0    0  0.13955323700E+02  0.41714452952E+02  0.17250344933E+03  0.19247025330E+03  0.73160862014E+02 0.  0.
        -13    1    5    5    0    0  0.27091540104E+02 -0.11017304756E+02  0.80089971335E+02  0.85262747187E+02  0.00000000000E+00 0.  1.
         14    1    5    5    0    0 -0.13136216404E+02  0.52731757708E+02  0.92413477991E+02  0.10720750611E+03  0.00000000000E+00 0. -1.
         11    1    3    3    0    0  0.38274000789E+02  0.21125155224E+02 -0.80509632894E+01  0.44452101520E+02  0.00000000000E+00 0. -1.
        -12    1    3    3    0    0  0.13843799032E+02  0.27254547919E+02 -0.11298655939E+03  0.11704880930E+03  0.00000000000E+00 0.  1.
          5    1    4    4  501    0 -0.68089112896E+02  0.44804604932E+01  0.10951052761E+03  0.12909775319E+03  0.41800000000E+01 0. -1.
         -5    1    4    4    0  501  0.20159893741E+01 -0.94574616587E+02  0.79858756634E+02  0.12386813847E+03  0.41800000000E+01 0. -1.
</event>
<event>
11    1  0.1002087E-008  0.1497635E+03  0.7561462E-02  0.1097121E+00
         22   -1    0    0    0    0  0.00000000000E+00  0.00000000000E+00  0.37993239491E+03  0.37993239491E+03  0.00000000000E+00 0.  1.
         22   -1    0    0    0    0 -0.00000000000E+00 -0.00000000000E+00 -0.16569054732E+04  0.16569054732E+04  0.00000000000E+00 0. -1.
         24    2    1    2    0    0  0.57201376845E+02  0.59539325843E+02 -0.15565094454E+04  0.15608129931E+04  0.81231871596E+02 0.  0.
         25    2    1    2    0    0 -0.74351114662E+02 -0.33828534216E+02 -0.32377075126E+02  0.15287147673E+03  0.12509578500E+03 0.  0.
        -24    2    1    2    0    0  0.17149737816E+02 -0.25710791627E+02  0.31191344225E+03  0.32315339826E+03  0.78631832215E+02 0.  0.
        -13    1    3    3    0    0 -0.42892069129E+01 -0.43537334716E+01 -0.97066572603E+01  0.11470461466E+02  0.00000000000E+00 0.  1.
         14    1    3    3    0    0  0.61490583758E+02  0.63893059315E+02 -0.15468027881E+04  0.15493425316E+04  0.00000000000E+00 0. -1.
         11    1    5    5    0    0  0.14517714851E+01  0.42362554081E+01 -0.36539867864E+01  0.57797162355E+01  0.00000000000E+00 0. -1.
        -12    1    5    5    0    0  0.15697966331E+02 -0.29947047035E+02  0.31556742904E+03  0.31737368203E+03  0.00000000000E+00 0.  1.
          5    1    4    4  501    0 -0.41391869344E+02  0.44562451981E+02  0.21371037849E+01  0.61001135948E+02  0.41800000000E+01 0. -1.
         -5    1    4    4    0  501 -0.32959245317E+02 -0.78390986197E+02 -0.34514178911E+02  0.91870340779E+02  0.41800000000E+01 0. -1.
</event>
<event>
11    1  0.1002087E-008  0.7922838E+03  0.7561462E-02  0.8906371E-01
         22   -1    0    0    0    0  0.00000000000E+00  0.00000000000E+00  0.70285799666E+03  0.70285799666E+03  0.00000000000E+00 0.  1.
         22   -1    0    0    0    0 -0.00000000000E+00 -0.00000000000E+00 -0.13640061391E+04  0.13640061391E+04  0.00000000000E+00 0.  1.
        -24    2    1    2    0    0  0.70473819903E+03 -0.15087854868E+03 -0.22578989604E+03  0.75954406658E+03  0.80658826467E+02 0.  0.
         25    2    1    2    0    0 -0.84923067091E+03 -0.58652171674E+02 -0.54571258018E+03  0.10188636068E+04  0.12509204393E+03 0.  0.
         24    2    1    2    0    0  0.14449247187E+03  0.20953072036E+03  0.11035433374E+03  0.28845646242E+03  0.79043371239E+02 0.  0.
        -11    1    5    5    0    0  0.13456170361E+03  0.17886542162E+03  0.12108708498E+03  0.25448334578E+03  0.00000000000E+00 0.  1.
         12    1    5    5    0    0  0.99307682619E+01  0.30665298741E+02 -0.10732751247E+02  0.33973116643E+02  0.00000000000E+00 0. -1.
         13    1    3    3    0    0  0.31239772884E+03 -0.30546659657E+02 -0.11706318249E+03  0.33500631053E+03  0.00000000000E+00 0. -1.
        -14    1    3    3    0    0  0.39234047019E+03 -0.12033188903E+03 -0.10872671355E+03  0.42453775604E+03  0.00000000000E+00 0.  1.
          5    1    4    4  501    0 -0.44324845769E+03 -0.22385655257E+02 -0.21102921116E+03  0.49144797605E+03  0.41800000000E+01 0.  1.
         -5    1    4    4    0  501 -0.40598221322E+03 -0.36266516416E+02 -0.33468336902E+03  0.52741563075E+03  0.41800000000E+01 0.  1.
</event>
<event>
11    1  0.1002087E-008  0.1515344E+03  0.7561462E-02  0.1095321E+00
         22   -1    0    0    0    0  0.00000000000E+00  0.00000000000E+00  0.44644938002E+03  0.44644938002E+03  0.00000000000E+00 0. -1.
         22   -1    0    0    0    0 -0.00000000000E+00 -0.00000000000E+00 -0.24298289696E+03  0.24298289696E+03  0.00000000000E+00 0. -1.
         24    2    1    2    0    0 -0.20785980521E+02  0.60037602068E+02 -0.18022535609E+03  0.20717111645E+03  0.80013260565E+02 0.  0.
         25    2    1    2    0    0 -0.49826696326E+02 -0.99323615867E+02  0.15925963463E+03  0.23099915426E+03  0.12509635370E+03 0.  0.
        -24    2    1    2    0    0  0.70612676847E+02  0.39286013799E+02  0.22443220452E+03  0.25126200627E+03  0.78950873075E+02 0.  0.
        -13    1    3    3    0    0  0.76957490354E+01  0.16614960508E+02  0.13068306316E+01  0.18357267558E+02  0.00000000000E+00 0.  1.
         14    1    3    3    0    0 -0.28481729556E+02  0.43422641560E+02 -0.18153218672E+03  0.18881384889E+03  0.00000000000E+00 0. -1.
         13    1    5    5    0    0  0.73338053949E+02  0.50996272623E+02  0.22157658865E+03  0.23890432105E+03  0.00000000000E+00 0. -1.
        -14    1    5    5    0    0 -0.27253771026E+01 -0.11710258824E+02  0.28556158693E+01  0.12357685223E+02  0.00000000000E+00 0.  1.
          5    1    4    4  501    0 -0.78575955805E+02 -0.48738884701E+02  0.45460850211E+02  0.10312041997E+03  0.41800000000E+01 0.  1.
         -5    1    4    4    0  501  0.28749259479E+02 -0.50584731165E+02  0.11379878442E+03  0.12787873429E+03  0.41800000000E+01 0.  1.
</event>
<event>
11    1  0.1002087E-008  0.1330830E+03  0.7561462E-02  0.1115538E+00
         22   -1    0    0    0    0  0.00000000000E+00  0.00000000000E+00  0.46271898534E+03  0.46271898534E+03  0.00000000000E+00 0.  1.
         22   -1    0    0    0    0 -0.00000000000E+00 -0.00000000000E+00 -0.96797464298E+03  0.96797464298E+03  0.00000000000E+00 0.  1.
        -24    2    1    2    0    0  0.43726134000E+02 -0.12939231443E+02 -0.84753223823E+03  0.85241626031E+03  0.78887182056E+02 0.  0.
         25    2    1    2    0    0 -0.47140858248E+02 -0.10046812672E+02 -0.74544902581E+02  0.15338602490E+03  0.12508849337E+03 0.  0.
         24    2    1    2    0    0  0.34147242486E+01  0.22986044115E+02  0.41682148317E+03  0.42489134310E+03  0.79072663087E+02 0.  0.
        -11    1    5    5    0    0  0.14615111348E+02  0.84212457233E+01  0.39879500779E+03  0.39915157158E+03  0.00000000000E+00 0.  1.
         12    1    5    5    0    0 -0.11200387100E+02  0.14564798392E+02  0.18026475381E+02  0.25739771523E+02  0.00000000000E+00 0. -1.
         11    1    3    3    0    0 -0.68201738459E+01 -0.19607175487E+02 -0.65214209636E+02  0.68438653116E+02  0.00000000000E+00 0. -1.
        -12    1    3    3    0    0  0.50546307846E+02  0.66679440443E+01 -0.78231802860E+03  0.78397760719E+03  0.00000000000E+00 0.  1.
          5    1    4    4  501    0 -0.40844310653E+02  0.51495828735E+02 -0.61318325917E+02  0.89986041045E+02  0.41800000000E+01 0.  1.
         -5    1    4    4    0  501 -0.62965475955E+01 -0.61542641407E+02 -0.13226576664E+02  0.63399983858E+02  0.41800000000E+01 0.  1.
</event>
<event>
11    1  0.1002087E-008  0.1496127E+03  0.7561462E-02  0.1097275E+00
         22   -1    0    0    0    0  0.00000000000E+00  0.00000000000E+00  0.48521901606E+03  0.48521901606E+03  0.00000000000E+00 0. -1.
         22   -1    0    0    0    0 -0.00000000000E+00 -0.00000000000E+00 -0.60047228592E+03  0.60047228592E+03  0.00000000000E+00 0.  1.
        -24    2    1    2    0    0 -0.35723628907E+02 -0.69862629104E+02 -0.46580092197E+03  0.47888492518E+03  0.78761082073E+02 0.  0.
         25    2    1    2    0    0  0.77356101607E+02  0.89381553236E+02 -0.62948358270E+02  0.18325635314E+03  0.12508943457E+03 0.  0.
         24    2    1    2    0    0 -0.41632472700E+02 -0.19518924132E+02  0.41349601038E+03  0.42355002365E+03  0.79381488714E+02 0.  0.
        -11    1    5    5    0    0 -0.53632943617E+02 -0.28467335878E+02  0.18810095078E+03  0.19765841631E+03  0.00000000000E+00 0.  1.
         12    1    5    5    0    0  0.12000470917E+02  0.89484117467E+01  0.22539505960E+03  0.22589160734E+03  0.00000000000E+00 0. -1.
         11    1    3    3    0    0 -0.35098383023E+02 -0.54543623407E+02 -0.15926495010E+03  0.17196577472E+03  0.00000000000E+00 0. -1.
        -12    1    3    3    0    0 -0.62524588367E+00 -0.15319005697E+02 -0.30653597188E+03  0.30691915047E+03  0.00000000000E+00 0.  1.
          5    1    4    4  501    0  0.14915243681E+02  0.10474713249E+03 -0.51733171888E+02  0.11784829117E+03  0.41800000000E+01 0. -1.
         -5    1    4    4    0  501  0.62440857927E+02 -0.15365579255E+02 -0.11215186382E+02  0.65408061965E+02  0.41800000000E+01 0. -1.
</event>
<event>
11    1  0.1002087E-008  0.4379656E+03  0.7561462E-02  0.9543936E-01
         22   -1    0    0    0    0  0.00000000000E+00  0.00000000000E+00  0.11024058738E+04  0.11024058738E+04  0.00000000000E+00 0.  1.
         22   -1    0    0    0    0 -0.00000000000E+00 -0.00000000000E+00 -0.44929109803E+03  0.44929109803E+03  0.00000000000E+00 0.  1.
        -24    2    1    2    0    0 -0.29403524831E+03  0.32233413591E+03 -0.24697069864E+03  0.50802337475E+03  0.82080453738E+02 0.  0.
         25    2    1    2    0    0  0.23368806367E+03 -0.26203375301E+03  0.47622040671E+03  0.60473576164E+03  0.12509063444E+03 0.  0.
         24    2    1    2    0    0  0.60347184642E+02 -0.60300382901E+02  0.42386506775E+03  0.43893783548E+03  0.75676342981E+02 0.  0.
        -11    1    5    5    0    0  0.10205536608E+02 -0.20685734266E+01  0.26154342728E+01  0.10736501754E+02  0.00000000000E+00 0.  1.
         12    1    5    5    0    0  0.50141648035E+02 -0.58231809475E+02  0.42124963348E+03  0.42820133373E+03  0.00000000000E+00 0. -1.
         13    1    3    3    0    0 -0.22480759848E+03  0.26146973469E+03 -0.22946524200E+03  0.41419702532E+03  0.00000000000E+00 0. -1.
        -14    1    3    3    0    0 -0.69227649829E+02  0.60864401213E+02 -0.17505456644E+02  0.93826349435E+02  0.00000000000E+00 0.  1.
          5    1    4    4  501    0  0.23929941102E+03 -0.20480671986E+03  0.39850511243E+03  0.50797027241E+03  0.41800000000E+01 0.  1.
         -5    1    4    4    0  501 -0.56113473528E+01 -0.57227033144E+02  0.77715294277E+02  0.96765489232E+02  0.41800000000E+01 0.  1.
</event>
<event>
11    1  0.1002087E-008  0.1673709E+03  0.7561462E-02  0.1080343E+00
         22   -1    0    0    0    0  0.00000000000E+00  0.00000000000E+00  0.38385655042E+03  0.38385655042E+03  0.00000000000E+00 0.  1.
         22   -1    0    0    0    0 -0.00000000000E+00 -0.00000000000E+00 -0.62170402203E+03  0.62170402203E+03  0.00000000000E+00 0. -1.
         24    2    1    2    0    0  0.88938823051E+02  0.48250735675E+02 -0.52218602238E+03  0.53485828259E+03  0.56186232737E+02 0.  0.
         25    2    1    2    0    0 -0.14129609516E+03  0.47789800938E+02  0.51375965370E+02  0.20133657812E+03  0.12509386992E+03 0.  0.
        -24    2    1    2    0    0  0.52357272105E+02 -0.96040536614E+02  0.23296258539E+03  0.26936571174E+03  0.79506300718E+02 0.  0.
        -13    1    3    3    0    0  0.74978878522E+02  0.52581041085E+02 -0.34097775830E+03  0.35306150988E+03  0.00000000000E+00 0.  1.
         14    1    3    3    0    0  0.13959944529E+02 -0.43303054099E+01 -0.18120826408E+03  0.18179677271E+03  0.00000000000E+00 0. -1.
         13    1    5    5    0    0  0.18298605076E+02  0.12037373237E+02  0.36759281879E+02  0.42789976705E+02  0.00000000000E+00 0. -1.
        -14    1    5    5    0    0  0.34058667030E+02 -0.10807790985E+03  0.19620330351E+03  0.22657573504E+03  0.00000000000E+00 0.  1.
          5    1    4    4  501    0 -0.14136426917E+03  0.74756235505E+02  0.62666043695E+02  0.17180470534E+03  0.41800000000E+01 0.  1.
         -5    1    4    4    0  501  0.68174018442E-01 -0.26966434567E+02 -0.11290078325E+02  0.29531872774E+02  0.41800000000E+01 0.  1.
</event>
<event>
11    1  0.1002087E-008  0.1759183E+03  0.7561462E-02  0.1072993E+00
         22   -1    0    0    0    0  0.00000000000E+00  0.00000000000E+00  0.55888731630E+03  0.55888731630E+03  0.00000000000E+00 0. -1.
         22   -1    0    0    0    0 -0.00000000000E+00 -0.00000000000E+00 -0.15733701746E+04  0.15733701746E+04  0.00000000000E+00 0.  1.
        -24    2    1    2    0    0 -0.34293194916E+02 -0.72934593276E+02 -0.14392034756E+04  0.14443957388E+04  0.92070233968E+02 0.  0.
         25    2    1    2    0    0  0.15179112789E+03  0.38616505882E+02 -0.36428398372E+02  0.20373117893E+03  0.12509030349E+03 0.  0.
         24    2    1    2    0    0 -0.11749793297E+03  0.34318087394E+02  0.46114901571E+03  0.48413057312E+03  0.82100558845E+02 0.  0.
        -11    1    5    5    0    0 -0.98016722309E+02  0.50202203685E+02  0.27402169515E+03  0.29532258383E+03  0.00000000000E+00 0.  1.
         12    1    5    5    0    0 -0.19481210665E+02 -0.15884116291E+02  0.18712732057E+03  0.18880798929E+03  0.00000000000E+00 0. -1.
         11    1    3    3    0    0 -0.38708394769E+02  0.94236077798E+01 -0.48757684322E+03  0.48920171939E+03  0.00000000000E+00 0. -1.
        -12    1    3    3    0    0  0.44151998532E+01 -0.82358201056E+02 -0.95162663237E+03  0.95519401941E+03  0.00000000000E+00 0.  1.
          5    1    4    4  501    0  0.11147396521E+03  0.81697284793E+02 -0.41499673624E+02  0.14436269107E+03  0.41800000000E+01 0.  1.
         -5    1    4    4    0  501  0.40317162680E+02 -0.43080778911E+02  0.50712752525E+01  0.59368487860E+02  0.41800000000E+01 0.  1.
</event>
<event>
11    1  0.1002087E-008  0.1693060E+03  0.7561462E-02  0.1078637E+00
         22   -1    0    0    0    0  0.00000000000E+00  0.00000000000E+00  0.26312079025E+03  0.26312079025E+03  0.00000000000E+00 0. -1.
         22   -1    0    0    0    0 -0.00000000000E+00 -0.00000000000E+00 -0.18996588189E+04  0.18996588189E+04  0.00000000000E+00 0.  1.
         24    2    1    2    0    0 -0.19464785429E+01  0.74304923912E+02 -0.14342521925E+04  0.14384173698E+04  0.80250654886E+02 0.  0.
         25    2    1    2    0    0  0.97307624898E+02 -0.13354067777E+03 -0.41869909570E+03  0.46718134176E+03  0.12509031483E+03 0.  0.
        -24    2    1    2    0    0 -0.95361146355E+02  0.59235753855E+02  0.21641325955E+03  0.25718089756E+03  0.81882186046E+02 0.  0.
        -11    1    3    3    0    0 -0.28410067189E+02  0.48095956040E+02 -0.11929983766E+04  0.11943054381E+04  0.00000000000E+00 0.  1.
         12    1    3    3    0    0  0.26463588646E+02  0.26208967873E+02 -0.24125381583E+03  0.24411193165E+03  0.00000000000E+00 0. -1.
         13    1    5    5    0    0 -0.25065948742E+02  0.25425255797E+01  0.12920600951E+03  0.13163950439E+03  0.00000000000E+00 0. -1.
        -14    1    5    5    0    0 -0.70295197613E+02  0.56693228275E+02  0.87207250047E+02  0.12554139318E+03  0.00000000000E+00 0.  1.
          5    1    4    4  501    0 -0.30075083454E+02 -0.19751691546E+02 -0.80507729218E+02  0.88281407032E+02  0.41800000000E+01 0.  1.
         -5    1    4    4    0  501  0.12738270835E+03 -0.11378898622E+03 -0.33819136648E+03  0.37889993473E+03  0.41800000000E+01 0.  1.
</event>
<event>
11    1  0.1002087E-008  0.1457240E+03  0.7561462E-02  0.1101330E+00
         22   -1    0    0    0    0  0.00000000000E+00  0.00000000000E+00  0.46205378503E+03  0.46205378503E+03  0.00000000000E+00 0. -1.
         22   -1    0    0    0    0 -0.00000000000E+00 -0.00000000000E+00 -0.31774811704E+03  0.31774811704E+03  0.00000000000E+00 0. -1.
         24    2    1    2    0    0 -0.69028687745E+02  0.31984211096E+02 -0.27023841194E+03  0.29171962367E+03  0.79269098992E+02 0.  0.
         25    2    1    2    0    0  0.18863757180E+02 -0.74276321720E+02  0.18394110594E+03  0.23526618288E+03  0.12507211140E+03 0.  0.
        -24    2    1    2    0    0  0.50164930565E+02  0.42292110624E+02  0.23060297400E+03  0.25281609552E+03  0.80206631022E+02 0.  0.
        -11    1    3    3    0    0 -0.38472475511E+02 -0.24327856071E+02 -0.12268584716E+03  0.13085791167E+03  0.00000000000E+00 0.  1.
         12    1    3    3    0    0 -0.30556212233E+02  0.56312067167E+02 -0.14755256478E+03  0.16086171200E+03  0.00000000000E+00 0. -1.
         11    1    5    5    0    0  0.36093195422E+02  0.44326426458E+01  0.19684651879E+03  0.20017721908E+03  0.00000000000E+00 0. -1.
        -12    1    5    5    0    0  0.14071735143E+02  0.37859467978E+02  0.33756455202E+02  0.52638876444E+02  0.00000000000E+00 0.  1.
          5    1    4    4  501    0 -0.32638570365E+02 -0.86186618888E+02  0.13196452174E+03  0.16101402718E+03  0.41800000000E+01 0. -1.
         -5    1    4    4    0  501  0.51502327545E+02  0.11910297168E+02  0.51976584198E+02  0.74252155700E+02  0.41800000000E+01 0. -1.
</event>
<event>
11    1  0.1002087E-008  0.1463049E+03  0.7561462E-02  0.1100715E+00
         22   -1    0    0    0    0  0.00000000000E+00  0.00000000000E+00  0.12091021687E+04  0.12091021687E+04  0.00000000000E+00 0.  1.
         22   -1    0    0    0    0 -0.00000000000E+00 -0.00000000000E+00 -0.95063689774E+03  0.95063689774E+03  0.00000000000E+00 0. -1.
        -24    2    1    2    0    0 -0.67786029253E+02  0.33598271843E+02 -0.78048080801E+03  0.78898493255E+03  0.87310609275E+02 0.  0.
         25    2    1    2    0    0  0.61445568616E+02 -0.50323197869E+02 -0.13074599953E+03  0.19761055575E+03  0.12508970063E+03 0.  0.
         24    2    1    2    0    0  0.63404606371E+01  0.16724926026E+02  0.11696920785E+04  0.11731435781E+04  0.88127021053E+02 0.  0.
        -13    1    5    5    0    0  0.36598539081E+02  0.25102922251E+02  0.96851643331E+03  0.96953271804E+03  0.00000000000E+00 0.  1.
         14    1    5    5    0    0 -0.30258078444E+02 -0.83779962250E+01  0.20117564516E+03  0.20361086007E+03  0.00000000000E+00 0. -1.
         13    1    3    3    0    0 -0.69597339358E+02  0.37735107267E+02 -0.78046379073E+03  0.78446890098E+03  0.00000000000E+00 0. -1.
        -14    1    3    3    0    0  0.18113101052E+01 -0.41368354244E+01 -0.17017285797E-01  0.45160315780E+01  0.00000000000E+00 0.  1.
          5    1    4    4  501    0  0.50223281351E+02 -0.81625345498E+02 -0.13303834938E+03  0.16401752901E+03  0.41800000000E+01 0. -1.
         -5    1    4    4    0  501  0.11222287265E+02  0.31302147629E+02  0.22923498506E+01  0.33593026739E+02  0.41800000000E+01 0. -1.
</event>
<event>
11    1  0.1002087E-008  0.2699919E+03  0.7561462E-02  0.1013757E+00
         22   -1    0    0    0    0  0.00000000000E+00  0.00000000000E+00  0.14763155038E+04  0.14763155038E+04  0.00000000000E+00 0. -1.
         22   -1    0    0    0    0 -0.00000000000E+00 -0.00000000000E+00 -0.44856117702E+03  0.44856117702E+03  0.00000000000E+00 0. -1.
        -24    2    1    2    0    0 -0.17883634068E+03 -0.18275442214E+03 -0.26752801004E+03  0.37868076947E+03  0.80288688167E+02 0.  0.
         25    2    1    2    0    0  0.10980030766E+03  0.17616619721E+03 -0.41250141715E+01  0.24239573867E+03  0.12509213318E+03 0.  0.
         24    2    1    2    0    0  0.69036033017E+02  0.65882249363E+01  0.12994073510E+04  0.13038001727E+04  0.81400539989E+02 0.  0.
        -11    1    5    5    0    0 -0.91355363652E+01  0.10199365539E+02  0.47093153613E+02  0.49043350205E+02  0.00000000000E+00 0.  1.
         12    1    5    5    0    0  0.78171569382E+02 -0.36111406023E+01  0.12523141974E+04  0.12547568225E+04  0.00000000000E+00 0. -1.
         13    1    3    3    0    0 -0.10505576697E+03 -0.13486967982E+03 -0.22027955056E+03  0.27883619761E+03  0.00000000000E+00 0. -1.
        -14    1    3    3    0    0 -0.73780573709E+02 -0.47884742328E+02 -0.47248459484E+02  0.99844571852E+02  0.00000000000E+00 0.  1.
          5    1    4    4  501    0  0.97247158413E+02  0.41990935328E+02  0.11666186824E+02  0.10664811665E+03  0.41800000000E+01 0.  1.
         -5    1    4    4    0  501  0.12553149247E+02  0.13417526188E+03 -0.15791200995E+02  0.13574762202E+03  0.41800000000E+01 0.  1.
</event>
<event>
11    1  0.1002087E-008  0.1639409E+03  0.7561462E-02  0.1083428E+00
         22   -1    0    0    0    0  0.00000000000E+00  0.00000000000E+00  0.35780044423E+03  0.35780044423E+03  0.00000000000E+00 0.  1.
         22   -1    0    0    0    0 -0.00000000000E+00 -0.00000000000E+00 -0.11219613556E+04  0.11219613556E+04  0.00000000000E+00 0. -1.
        -24    2    1    2    0    0  0.10990891455E+03  0.62325271880E+01 -0.94883927258E+03  0.95848030967E+03  0.79181594803E+02 0.  0.
         25    2    1    2    0    0 -0.77425789562E+02  0.22480980784E+02 -0.12771074394E+03  0.19612614022E+03  0.12512106686E+03 0.  0.
         24    2    1    2    0    0 -0.32483124989E+02 -0.28713507972E+02  0.31238910519E+03  0.32515534990E+03  0.79116556884E+02 0.  0.
        -11    1    5    5    0    0 -0.20817978026E+02 -0.21321143303E+02  0.30964444990E+03  0.31107501461E+03  0.00000000000E+00 0.  1.
         12    1    5    5    0    0 -0.11665146962E+02 -0.73923646692E+01  0.27446552928E+01  0.14080335285E+02  0.00000000000E+00 0. -1.
         11    1    3    3    0    0  0.89035292380E+02  0.38235549420E+02 -0.71597158836E+03  0.72249882759E+03  0.00000000000E+00 0. -1.
        -12    1    3    3    0    0  0.20873622171E+02 -0.32003022232E+02 -0.23286768421E+03  0.23598148208E+03  0.00000000000E+00 0.  1.
          5    1    4    4  501    0 -0.76633174672E+02 -0.17204058144E+02 -0.13433641254E+03  0.15566748926E+03  0.41800000000E+01 0.  1.
         -5    1    4    4    0  501 -0.79261489005E+00  0.39685038928E+02  0.66256686009E+01  0.40458650960E+02  0.41800000000E+01 0.  1.
</event>
<event>
11    1  0.1002087E-008  0.1608102E+03  0.7561462E-02  0.1086318E+00
         22   -1    0    0    0    0  0.00000000000E+00  0.00000000000E+00  0.29158837875E+03  0.29158837875E+03  0.00000000000E+00 0.  1.
         22   -1    0    0    0    0 -0.00000000000E+00 -0.00000000000E+00 -0.33171369302E+03  0.33171369302E+03  0.00000000000E+00 0.  1.
        -24    2    1    2    0    0 -0.84239370159E+02 -0.60013543329E+02 -0.21684334488E+03  0.25403847982E+03  0.82562801197E+02 0.  0.
         25    2    1    2    0    0  0.76082164969E+01  0.12669455226E+03  0.45357622186E+02  0.18388228121E+03  0.12508391153E+03 0.  0.
         24    2    1    2    0    0  0.76631153662E+02 -0.66681008929E+02  0.13136040842E+03  0.18538131074E+03  0.82413486798E+02 0.  0.
        -13    1    5    5    0    0  0.54128249323E+02 -0.43040027949E+02  0.24049606484E+02  0.73216766882E+02  0.00000000000E+00 0.  1.
         14    1    5    5    0    0  0.22502904339E+02 -0.23640980980E+02  0.10731080194E+03  0.11216454385E+03  0.00000000000E+00 0. -1.
         11    1    3    3    0    0  0.33466711511E+01  0.13297587331E+02 -0.49985596967E+02  0.51832286664E+02  0.00000000000E+00 0. -1.
        -12    1    3    3    0    0 -0.87586041310E+02 -0.73311130660E+02 -0.16685774791E+03  0.20220619315E+03  0.00000000000E+00 0.  1.
          5    1    4    4  501    0  0.14627843879E+02 -0.61626983416E+01  0.48019567776E+02  0.50747452712E+02  0.41800000000E+01 0. -1.
         -5    1    4    4    0  501 -0.70196273818E+01  0.13285725060E+03 -0.26619455900E+01  0.13313482850E+03  0.41800000000E+01 0. -1.
</event>
<event>
11    1  0.1002087E-008  0.1560110E+03  0.7561462E-02  0.1090890E+00
         22   -1    0    0    0    0  0.00000000000E+00  0.00000000000E+00  0.23302955539E+03  0.23302955539E+03  0.00000000000E+00 0. -1.
         22   -1    0    0    0    0 -0.00000000000E+00 -0.00000000000E+00 -0.39188535455E+04  0.39188535455E+04  0.00000000000E+00 0.  1.
         24    2    1    2    0    0 -0.17498429254E+02 -0.67790681150E+02 -0.37213561523E+04  0.37228913756E+04  0.80788680930E+02 0.  0.
         25    2    1    2    0    0  0.14564298116E+02  0.15426065709E+03 -0.12115825309E+03  0.23309875102E+03  0.12508891369E+03 0.  0.
        -24    2    1    2    0    0  0.29341311381E+01 -0.86469975945E+02  0.15669041530E+03  0.19589297423E+03  0.79602168561E+02 0.  0.
        -13    1    3    3    0    0  0.14235170422E+02 -0.65225010959E+02 -0.31012406575E+04  0.31019591483E+04  0.00000000000E+00 0.  1.
         14    1    3    3    0    0 -0.31733599676E+02 -0.25656701905E+01 -0.62011549483E+03  0.62093222734E+03  0.00000000000E+00 0. -1.
         13    1    5    5    0    0  0.33197432382E+02 -0.46819277027E+02  0.12291066317E+03  0.13565082137E+03  0.00000000000E+00 0. -1.
        -14    1    5    5    0    0 -0.30263301243E+02 -0.39650698917E+02  0.33779752131E+02  0.60242152857E+02  0.00000000000E+00 0.  1.
          5    1    4    4  501    0  0.48825200087E+02  0.14184549229E+03 -0.59666326033E+02  0.16149794645E+03  0.41800000000E+01 0.  1.
         -5    1    4    4    0  501 -0.34260901971E+02  0.12415164804E+02 -0.61491927062E+02  0.71600804568E+02  0.41800000000E+01 0.  1.
</event>
<event>
11    1  0.1002087E-008  0.1508932E+03  0.7561462E-02  0.1095970E+00
         22   -1    0    0    0    0  0.00000000000E+00  0.00000000000E+00  0.61878816777E+03  0.61878816777E+03  0.00000000000E+00 0.  1.
         22   -1    0    0    0    0 -0.00000000000E+00 -0.00000000000E+00 -0.31412589822E+03  0.31412589822E+03  0.00000000000E+00 0.  1.
        -24    2    1    2    0    0  0.54726176227E+02 -0.64817814955E+02 -0.25928782791E+03  0.28439725449E+03  0.80344988391E+02 0.  0.
         25    2    1    2    0    0 -0.78639400350E+02  0.35300952624E+02  0.11422814661E+03  0.19009102314E+03  0.12512479792E+03 0.  0.
         24    2    1    2    0    0  0.23913224123E+02  0.29516862331E+02  0.44972195085E+03  0.45842578836E+03  0.80382105642E+02 0.  0.
        -11    1    5    5    0    0  0.49937609536E+02  0.35906471389E+02  0.33658324906E+03  0.34215686911E+03  0.00000000000E+00 0.  1.
         12    1    5    5    0    0 -0.26024385413E+02 -0.63896090581E+01  0.11313870180E+03  0.11626891925E+03  0.00000000000E+00 0. -1.
         11    1    3    3    0    0 -0.21085836388E+02 -0.16320529715E+02 -0.52863670952E+02  0.59207599959E+02  0.00000000000E+00 0. -1.
        -12    1    3    3    0    0  0.75812012615E+02 -0.48497285239E+02 -0.20642415696E+03  0.22518965453E+03  0.00000000000E+00 0.  1.
          5    1    4    4  501    0 -0.27229937247E+02  0.71737352578E+02  0.98648524555E+02  0.12504687535E+03  0.41800000000E+01 0.  1.
         -5    1    4    4    0  501 -0.51409463104E+02 -0.36436399954E+02  0.15579622055E+02  0.65044147789E+02  0.41800000000E+01 0.  1.
</event>
<event>
11    1  0.1002087E-008  0.1523180E+03  0.7561462E-02  0.1094534E+00
         22   -1    0    0    0    0  0.00000000000E+00  0.00000000000E+00  0.41225651410E+03  0.41225651410E+03  0.00000000000E+00 0. -1.
         22   -1    0    0    0    0 -0.00000000000E+00 -0.00000000000E+00 -0.74557991136E+03  0.74557991136E+03  0.00000000000E+00 0. -1.
         24    2    1    2    0    0  0.36226525744E+02  0.18971039621E+02 -0.55081097180E+03  0.55802585326E+03  0.79547877034E+02 0.  0.
         25    2    1    2    0    0  0.96651442234E+01  0.56941733520E+02 -0.15510131287E+03  0.20746184288E+03  0.12509285738E+03 0.  0.
        -24    2    1    2    0    0 -0.45891669968E+02 -0.75912773141E+02  0.37258888741E+03  0.39234872932E+03  0.85124919260E+02 0.  0.
        -13    1    3    3    0    0 -0.11552573106E+02 -0.20481173745E+02 -0.23646028292E+03  0.23762661009E+03  0.00000000000E+00 0.  1.
         14    1    3    3    0    0  0.47779098850E+02  0.39452213367E+02 -0.31435068888E+03  0.32039924317E+03  0.00000000000E+00 0. -1.
         11    1    5    5    0    0 -0.69733970884E+02 -0.68848698510E+02  0.29128094102E+03  0.30732321191E+03  0.00000000000E+00 0. -1.
        -12    1    5    5    0    0  0.23842300916E+02 -0.70640746309E+01  0.81307946392E+02  0.85025517404E+02  0.00000000000E+00 0.  1.
          5    1    4    4  501    0  0.35396030841E+02  0.31215970863E+02  0.72965095295E+00  0.47384814305E+02  0.41800000000E+01 0.  1.
         -5    1    4    4    0  501 -0.25730886617E+02  0.25725762657E+02 -0.15583096383E+03  0.16007702857E+03  0.41800000000E+01 0.  1.
</event>
<event>
11    1  0.1002087E-008  0.1349307E+03  0.7561462E-02  0.1113355E+00
         22   -1    0    0    0    0  0.00000000000E+00  0.00000000000E+00  0.89856100079E+03  0.89856100079E+03  0.00000000000E+00 0.  1.
         22   -1    0    0    0    0 -0.00000000000E+00 -0.00000000000E+00 -0.15753030657E+03  0.15753030657E+03  0.00000000000E+00 0.  1.
        -24    2    1    2    0    0  0.48609357497E+01 -0.15691085180E+01 -0.96277016414E+02  0.12667294927E+03  0.82162530328E+02 0.  0.
         25    2    1    2    0    0  0.45015431705E+02  0.11502588105E+02  0.59853161486E+02  0.14625013884E+03  0.12509198034E+03 0.  0.
         24    2    1    2    0    0 -0.49876367454E+02 -0.99334795867E+01  0.77745454915E+03  0.78316821925E+03  0.79564801288E+02 0.  0.
        -11    1    5    5    0    0 -0.54408554823E+02 -0.25365905594E+02  0.32942423691E+03  0.33484929128E+03  0.00000000000E+00 0.  1.
         12    1    5    5    0    0  0.45321873682E+01  0.15432426008E+02  0.44803031223E+03  0.44831892797E+03  0.00000000000E+00 0. -1.
         11    1    3    3    0    0 -0.15342252751E+00  0.77995726597E+01  0.13924209465E+02  0.15960591511E+02  0.00000000000E+00 0. -1.
        -12    1    3    3    0    0  0.50143582772E+01 -0.93686811777E+01 -0.11020122588E+03  0.11071235776E+03  0.00000000000E+00 0.  1.
          5    1    4    4  501    0  0.41838468976E+02 -0.51645711703E+02  0.14050338488E+02  0.68063363385E+02  0.41800000000E+01 0.  1.
         -5    1    4    4    0  501  0.31769627285E+01  0.63148299808E+02  0.45802822998E+02  0.78186775451E+02  0.41800000000E+01 0.  1.
</event>
<event>
11    1  0.1002087E-008  0.1680110E+03  0.7561462E-02  0.1079776E+00
         22   -1    0    0    0    0  0.00000000000E+00  0.00000000000E+00  0.31602260763E+04  0.31602260763E+04  0.00000000000E+00 0. -1.
         22   -1    0    0    0    0 -0.00000000000E+00 -0.00000000000E+00 -0.10195115948E+04  0.10195115948E+04  0.00000000000E+00 0.  1.
        -24    2    1    2    0    0 -0.29317839250E+02 -0.10894723823E+03 -0.98689147063E+03  0.99634190664E+03  0.77546010294E+02 0.  0.
         25    2    1    2    0    0  0.58927220465E+02  0.68203015745E+02  0.19200129308E+03  0.24624548285E+03  0.12509305582E+03 0.  0.
         24    2    1    2    0    0 -0.29609381215E+02  0.40744222480E+02  0.29356046591E+04  0.29371502816E+04  0.80871842810E+02 0.  0.
        -13    1    5    5    0    0  0.11246067483E+02 -0.72281002997E+01  0.16038816516E+04  0.16039373653E+04  0.00000000000E+00 0.  1.
         14    1    5    5    0    0 -0.40855448698E+02  0.47972322780E+02  0.13317230075E+04  0.13332129163E+04  0.00000000000E+00 0. -1.
         11    1    3    3    0    0 -0.78792395348E+01  0.83019797633E+01 -0.21475602269E+03  0.21506081597E+03  0.00000000000E+00 0. -1.
        -12    1    3    3    0    0 -0.21438599715E+02 -0.11724921799E+03 -0.77213544793E+03  0.78128109066E+03  0.00000000000E+00 0.  1.
          5    1    4    4  501    0  0.14695401139E+02  0.96162174168E+02  0.95469183031E+02  0.13636332302E+03  0.41800000000E+01 0.  1.
         -5    1    4    4    0  501  0.44231819326E+02 -0.27959158423E+02  0.96532110045E+02  0.10988215984E+03  0.41800000000E+01 0.  1.
</event>
<event>
11    1  0.1002087E-008  0.1610428E+03  0.7561462E-02  0.1086101E+00
         22   -1    0    0    0    0  0.00000000000E+00  0.00000000000E+00  0.22569652018E+04  0.22569652018E+04  0.00000000000E+00 0. -1.
         22   -1    0    0    0    0 -0.00000000000E+00 -0.00000000000E+00 -0.48779961992E+02  0.48779961992E+02  0.00000000000E+00 0.  1.
        -24    2    1    2    0    0 -0.52777128013E+02 -0.84621344493E+00  0.36669557880E+02  0.10871416912E+03  0.87681085613E+02 0.  0.
         25    2    1    2    0    0 -0.12590250125E+02 -0.85427571113E+02  0.57225169600E+03  0.59209443287E+03  0.12508968608E+03 0.  0.
         24    2    1    2    0    0  0.65367378138E+02  0.86273784558E+02  0.15992639859E+04  0.16049365618E+04  0.80374191570E+02 0.  0.
        -13    1    5    5    0    0  0.45133400687E+01  0.38579336077E+02  0.21263018424E+03  0.21614886227E+03  0.00000000000E+00 0.  1.
         14    1    5    5    0    0  0.60854038069E+02  0.47694448481E+02  0.13866338017E+04  0.13887876995E+04  0.00000000000E+00 0. -1.
         11    1    3    3    0    0  0.19048196510E+02 -0.13465581764E+02  0.26135658665E+02  0.35031818913E+02  0.00000000000E+00 0. -1.
        -12    1    3    3    0    0 -0.71825324523E+02  0.12619368319E+02  0.10533899215E+02  0.73682350208E+02  0.00000000000E+00 0.  1.
          5    1    4    4  501    0  0.19321698118E+02 -0.35955537170E+00  0.93128677598E+01  0.21855415900E+02  0.41800000000E+01 0.  1.
         -5    1    4    4    0  501 -0.31911948243E+02 -0.85068015742E+02  0.56293882824E+03  0.57023901697E+03  0.41800000000E+01 0.  1.
</event>
<event>
11    1  0.1221120E-008  0.1707981E+03  0.7561462E-02  0.1077339E+00
         22   -1    0    0    0    0  0.00000000000E+00  0.00000000000E+00  0.33880363857E+03  0.33880363857E+03  0.00000000000E+00 0. -1.
         22   -1    0    0    0    0 -0.00000000000E+00 -0.00000000000E+00 -0.11947297476E+04  0.11947297476E+04  0.00000000000E+00 0. -1.
        -24    2    1    2    0    0  0.29549786952E+02  0.30073729444E+02 -0.75310762133E+03  0.75851879206E+03  0.80012808332E+02 0.  0.
         25    2    1    2    0    0 -0.14465907996E+03 -0.34642078034E+02 -0.40104593810E+03  0.44565898930E+03  0.12509103599E+03 0.  0.
         24    2    1    2    0    0  0.11510929300E+03  0.45683485901E+01  0.29822745038E+03  0.32935560483E+03  0.79148487849E+02 0.  0.
        -13    1    5    5    0    0  0.16982072932E+01  0.84075338247E+01 -0.16424193382E+01  0.87331594687E+01  0.00000000000E+00 0.  1.
         14    1    5    5    0    0  0.11341108571E+03 -0.38391852346E+01  0.29986986971E+03  0.32062244536E+03  0.00000000000E+00 0. -1.
         13    1    3    3    0    0  0.56652363344E+02  0.12151625997E+02 -0.48741618866E+03  0.49084793292E+03  0.00000000000E+00 0. -1.
        -14    1    3    3    0    0 -0.27102576392E+02  0.17922103447E+02 -0.26569143267E+03  0.26767085914E+03  0.00000000000E+00 0.  1.
          5    1    4    4  501    0 -0.30980030911E+02  0.45496916582E+02 -0.11525351614E+03  0.12779114647E+03  0.41800000000E+01 0.  1.
         -5    1    4    4    0  501 -0.11367904905E+03 -0.80138994616E+02 -0.28579242197E+03  0.31786784283E+03  0.41800000000E+01 0.  1.
</event>
<event>
11    1  0.1002087E-008  0.1612265E+03  0.7561462E-02  0.1085929E+00
         22   -1    0    0    0    0  0.00000000000E+00  0.00000000000E+00  0.80023796491E+02  0.80023796491E+02  0.00000000000E+00 0.  1.
         22   -1    0    0    0    0 -0.00000000000E+00 -0.00000000000E+00 -0.71396358450E+03  0.71396358450E+03  0.00000000000E+00 0.  1.
         24    2    1    2    0    0  0.62780976990E+02  0.66491713992E+02 -0.35565081945E+03  0.37570215406E+03  0.79385162878E+02 0.  0.
         25    2    1    2    0    0  0.31998182084E+02 -0.11427923869E+03 -0.20249966844E+03  0.26596289762E+03  0.12508604694E+03 0.  0.
        -24    2    1    2    0    0 -0.94779159074E+02  0.47787524698E+02 -0.75789300116E+02  0.15232232931E+03  0.78685052475E+02 0.  0.
        -11    1    3    3    0    0  0.51834199068E+02  0.76105652041E+01 -0.97380021660E+02  0.11057835916E+03  0.00000000000E+00 0.  1.
         12    1    3    3    0    0  0.10946777922E+02  0.58881148788E+02 -0.25827079779E+03  0.26512379490E+03  0.00000000000E+00 0. -1.
         13    1    5    5    0    0 -0.18807084658E+02  0.36963924543E+02  0.39425891463E+01  0.41660318771E+02  0.00000000000E+00 0. -1.
        -14    1    5    5    0    0 -0.75972074416E+02  0.10823600156E+02 -0.79731889262E+02  0.11066201054E+03  0.00000000000E+00 0.  1.
          5    1    4    4  501    0  0.20187085916E+02 -0.13727936494E+03 -0.13533233356E+03  0.19386968660E+03  0.41800000000E+01 0. -1.
         -5    1    4    4    0  501  0.11811096168E+02  0.23000126248E+02 -0.67167334883E+02  0.72093211022E+02  0.41800000000E+01 0. -1.
</event>
<event>
11    1  0.1002087E-008  0.1322203E+03  0.7561462E-02  0.1116571E+00
         22   -1    0    0    0    0  0.00000000000E+00  0.00000000000E+00  0.75186913094E+03  0.75186913094E+03  0.00000000000E+00 0. -1.
         22   -1    0    0    0    0 -0.00000000000E+00 -0.00000000000E+00 -0.56964499499E+03  0.56964499499E+03  0.00000000000E+00 0. -1.
         24    2    1    2    0    0  0.29510842340E+02 -0.68769812200E+01 -0.52034256001E+03  0.52725885287E+03  0.79544550322E+02 0.  0.
         25    2    1    2    0    0 -0.60956341778E+02 -0.19887442602E+02  0.75497906942E+02  0.15955556438E+03  0.12508740223E+03 0.  0.
        -24    2    1    2    0    0  0.31445499438E+02  0.26764423822E+02  0.62706878902E+03  0.63469970867E+03  0.89012921541E+02 0.  0.
        -13    1    3    3    0    0  0.46948814619E+02 -0.90519310811E+00 -0.16813041785E+03  0.17456473864E+03  0.00000000000E+00 0.  1.
         14    1    3    3    0    0 -0.17437972279E+02 -0.59717881119E+01 -0.35221214216E+03  0.35269411423E+03  0.00000000000E+00 0. -1.
         11    1    5    5    0    0  0.63583526163E+01  0.57780643231E+02  0.38604810275E+03  0.39040001155E+03  0.00000000000E+00 0. -1.
        -12    1    5    5    0    0  0.25087146822E+02 -0.31016219409E+02  0.24102068627E+03  0.24429969712E+03  0.00000000000E+00 0.  1.
          5    1    4    4  501    0 -0.88655174527E+02  0.17289822007E+02  0.66254438211E+02  0.11209728319E+03  0.41800000000E+01 0.  1.
         -5    1    4    4    0  501  0.27698832749E+02 -0.37177264609E+02  0.92434687311E+01  0.47458281191E+02  0.41800000000E+01 0.  1.
</event>
<event>
11    1  0.1002087E-008  0.1407656E+03  0.7561462E-02  0.1106707E+00
         22   -1    0    0    0    0  0.00000000000E+00  0.00000000000E+00  0.12876342289E+04  0.12876342289E+04  0.00000000000E+00 0. -1.
         22   -1    0    0    0    0 -0.00000000000E+00 -0.00000000000E+00 -0.11693473453E+04  0.11693473453E+04  0.00000000000E+00 0. -1.
         24    2    1    2    0    0 -0.60605266468E+02  0.23242865563E+02 -0.11530814262E+04  0.11577467028E+04  0.81039640933E+02 0.  0.
         25    2    1    2    0    0  0.86601888420E+01 -0.11982487120E+02  0.33481292614E+03  0.35772264816E+03  0.12508884294E+03 0.  0.
        -24    2    1    2    0    0  0.51945077626E+02 -0.11260378442E+02  0.93655538356E+03  0.94151222320E+03  0.80524485454E+02 0.  0.
        -11    1    3    3    0    0  0.16623884468E+02  0.49068241609E+01 -0.42459220600E+03  0.42494584579E+03  0.00000000000E+00 0.  1.
         12    1    3    3    0    0 -0.77229150937E+02  0.18336041402E+02 -0.72848922017E+03  0.73280085703E+03  0.00000000000E+00 0. -1.
         13    1    5    5    0    0  0.27890326651E+02  0.32813149438E+02  0.55482279862E+03  0.55649160907E+03  0.00000000000E+00 0. -1.
        -14    1    5    5    0    0  0.24054750976E+02 -0.44073527880E+02  0.38173258494E+03  0.38502061414E+03  0.00000000000E+00 0.  1.
          5    1    4    4  501    0  0.23895254847E+02  0.53095079139E+02  0.17369140342E+03  0.18323822378E+03  0.41800000000E+01 0. -1.
         -5    1    4    4    0  501 -0.15235066005E+02 -0.65077566259E+02  0.16112152272E+03  0.17448442438E+03  0.41800000000E+01 0. -1.
</event>
<event>
11    1  0.1031044E-008  0.1550586E+03  0.7561462E-02  0.1091819E+00
         22   -1    0    0    0    0  0.00000000000E+00  0.00000000000E+00  0.10305086657E+04  0.10305086657E+04  0.00000000000E+00 0. -1.
         22   -1    0    0    0    0 -0.00000000000E+00 -0.00000000000E+00 -0.18074485960E+04  0.18074485960E+04  0.00000000000E+00 0. -1.
        -24    2    1    2    0    0 -0.50743664127E+02 -0.12459528783E+02 -0.16233916587E+04  0.16262165589E+04  0.80309772011E+02 0.  0.
         25    2    1    2    0    0 -0.41438512925E+02  0.22035677540E+02 -0.15377482243E+03  0.20370787327E+03  0.12508988841E+03 0.  0.
         24    2    1    2    0    0  0.92182177052E+02 -0.95761487572E+01  0.10002265508E+04  0.10080328295E+04  0.84188930570E+02 0.  0.
        -11    1    5    5    0    0  0.57672602876E+02 -0.43994947321E+02  0.46916934576E+03  0.47474367770E+03  0.00000000000E+00 0.  1.
         12    1    5    5    0    0  0.34509574175E+02  0.34418798564E+02  0.53105720504E+03  0.53328915180E+03  0.00000000000E+00 0. -1.
         13    1    3    3    0    0 -0.65888058388E+02  0.10675477543E+02 -0.10110074202E+04  0.10132083723E+04  0.00000000000E+00 0. -1.
        -14    1    3    3    0    0  0.15144394261E+02 -0.23135006327E+02 -0.61238423857E+03  0.61300818660E+03  0.00000000000E+00 0.  1.
          5    1    4    4  501    0 -0.23723807638E+02 -0.70687377524E+01  0.16477498311E+02  0.30029426449E+02  0.41800000000E+01 0. -1.
         -5    1    4    4    0  501 -0.17714705286E+02  0.29104415293E+02 -0.17025232074E+03  0.17367844682E+03  0.41800000000E+01 0. -1.
</event>
<event>
11    1  0.1002087E-008  0.1548387E+03  0.7561462E-02  0.1092035E+00
         22   -1    0    0    0    0  0.00000000000E+00  0.00000000000E+00  0.46079288001E+04  0.46079288001E+04  0.00000000000E+00 0. -1.
         22   -1    0    0    0    0 -0.00000000000E+00 -0.00000000000E+00 -0.19480357020E+03  0.19480357020E+03  0.00000000000E+00 0. -1.
        -24    2    1    2    0    0  0.65879121652E+02  0.22967954034E+02 -0.16840458876E+03  0.20085582587E+03  0.84352662609E+02 0.  0.
         25    2    1    2    0    0 -0.17617549811E+02  0.60227794741E+02  0.52256094753E+03  0.54097575232E+03  0.12508819048E+03 0.  0.
         24    2    1    2    0    0 -0.48261571841E+02 -0.83195748775E+02  0.40589688711E+04  0.40609007921E+04  0.80226146986E+02 0.  0.
        -13    1    5    5    0    0 -0.33184825538E+02 -0.27503654009E+02  0.64215570886E+03  0.64360052677E+03  0.00000000000E+00 0.  1.
         14    1    5    5    0    0 -0.15076746303E+02 -0.55692094765E+02  0.34168131622E+04  0.34173002653E+04  0.00000000000E+00 0. -1.
         11    1    3    3    0    0  0.68612028255E+02  0.45728904024E+02 -0.15109947579E+03  0.17213307256E+03  0.00000000000E+00 0. -1.
        -12    1    3    3    0    0 -0.27329066033E+01 -0.22760949990E+02 -0.17305112966E+02  0.28722753310E+02  0.00000000000E+00 0.  1.
          5    1    4    4  501    0  0.35068669159E+02 -0.16701404143E+02  0.24617698952E+03  0.24925755962E+03  0.41800000000E+01 0.  1.
         -5    1    4    4    0  501 -0.52686218970E+02  0.76929198884E+02  0.27638395801E+03  0.29171819270E+03  0.41800000000E+01 0.  1.
</event>
<event>
11    1  0.1002087E-008  0.1455532E+03  0.7561462E-02  0.1101511E+00
         22   -1    0    0    0    0  0.00000000000E+00  0.00000000000E+00  0.36627392464E+03  0.36627392464E+03  0.00000000000E+00 0.  1.
         22   -1    0    0    0    0 -0.00000000000E+00 -0.00000000000E+00 -0.30301791017E+03  0.30301791017E+03  0.00000000000E+00 0. -1.
         24    2    1    2    0    0 -0.25419225489E+02 -0.17176358596E+02 -0.20182113474E+03  0.21912437614E+03  0.79640175004E+02 0.  0.
         25    2    1    2    0    0  0.25948257081E+01 -0.56557062301E+02 -0.24034138120E+02  0.13939372705E+03  0.12509011523E+03 0.  0.
        -24    2    1    2    0    0  0.22824399781E+02  0.73733420896E+02  0.28911128732E+03  0.31077373162E+03  0.83889243786E+02 0.  0.
        -11    1    3    3    0    0  0.23563650420E+02 -0.24034093766E+01 -0.22579507250E+02  0.32723938416E+02  0.00000000000E+00 0.  1.
         12    1    3    3    0    0 -0.48982875910E+02 -0.14772949219E+02 -0.17924162748E+03  0.18640043773E+03  0.00000000000E+00 0. -1.
         13    1    5    5    0    0  0.28470572583E+02  0.10168327218E+02  0.25506241301E+02  0.39554225146E+02  0.00000000000E+00 0. -1.
        -14    1    5    5    0    0 -0.56461728020E+01  0.63565093679E+02  0.26360504602E+03  0.27121950647E+03  0.00000000000E+00 0.  1.
          5    1    4    4  501    0  0.23760134056E+02  0.14705704003E+02 -0.52549353012E+02  0.59663293594E+02  0.41800000000E+01 0.  1.
         -5    1    4    4    0  501 -0.21165308348E+02 -0.71262766304E+02  0.28515214892E+02  0.79730433456E+02  0.41800000000E+01 0.  1.
</event>
<event>
11    1  0.1002087E-008  0.3507358E+03  0.7561462E-02  0.9807458E-01
         22   -1    0    0    0    0  0.00000000000E+00  0.00000000000E+00  0.16158287144E+03  0.16158287144E+03  0.00000000000E+00 0.  1.
         22   -1    0    0    0    0 -0.00000000000E+00 -0.00000000000E+00 -0.18874866693E+04  0.18874866693E+04  0.00000000000E+00 0.  1.
        -24    2    1    2    0    0  0.56524441053E+02  0.95446324373E+02 -0.10687046267E+04  0.10775080168E+04  0.81172248419E+02 0.  0.
         25    2    1    2    0    0 -0.63404249857E+02  0.26710532822E+03 -0.46142176220E+03  0.55129139669E+03  0.12508719428E+03 0.  0.
         24    2    1    2    0    0  0.68798088040E+01 -0.36255165259E+03 -0.19577740904E+03  0.42027012730E+03  0.82505475232E+02 0.  0.
        -13    1    5    5    0    0  0.32436735474E+02 -0.31179967653E+03 -0.15116350250E+03  0.34802526429E+03  0.00000000000E+00 0.  1.
         14    1    5    5    0    0 -0.25556926670E+02 -0.50751976059E+02 -0.44613906544E+02  0.72244863014E+02  0.00000000000E+00 0. -1.
         11    1    3    3    0    0  0.13004230916E+02  0.92564018991E+02 -0.69100708280E+03  0.69730050632E+03  0.00000000000E+00 0. -1.
        -12    1    3    3    0    0  0.43520210137E+02  0.28823053817E+01 -0.37769754386E+03  0.38020751047E+03  0.00000000000E+00 0.  1.
          5    1    4    4  501    0 -0.86150362584E+02  0.20475623757E+03 -0.27607116537E+03  0.35437235014E+03  0.41800000000E+01 0. -1.
         -5    1    4    4    0  501  0.22746112727E+02  0.62349090650E+02 -0.18535059683E+03  0.19691904655E+03  0.41800000000E+01 0. -1.
</event>
<event>
11    1  0.1002087E-008  0.1514898E+03  0.7561462E-02  0.1095366E+00
         22   -1    0    0    0    0  0.00000000000E+00  0.00000000000E+00  0.13464367301E+03  0.13464367301E+03  0.00000000000E+00 0.  1.
         22   -1    0    0    0    0 -0.00000000000E+00 -0.00000000000E+00 -0.11793607663E+04  0.11793607663E+04  0.00000000000E+00 0.  1.
         24    2    1    2    0    0 -0.35863810581E+02  0.25035034506E+02 -0.81376320782E+03  0.81780253619E+03  0.68391987333E+02 0.  0.
         25    2    1    2    0    0 -0.21369735442E+02 -0.88963036347E+02 -0.31636547472E+03  0.35228575931E+03  0.12508818966E+03 0.  0.
        -24    2    1    2    0    0  0.57233546023E+02  0.63928001841E+02  0.85411589206E+02  0.14391614386E+03  0.77809052708E+02 0.  0.
        -13    1    3    3    0    0 -0.29702841042E+02  0.43909263835E+02 -0.72059378375E+03  0.72254112921E+03  0.00000000000E+00 0.  1.
         14    1    3    3    0    0 -0.61609695389E+01 -0.18874229329E+02 -0.93169424069E+02  0.95261406980E+02  0.00000000000E+00 0. -1.
         13    1    5    5    0    0  0.27196751818E+02 -0.51965195570E+01 -0.28714834011E+01  0.27837250976E+02  0.00000000000E+00 0. -1.
        -14    1    5    5    0    0  0.30036794205E+02  0.69124521398E+02  0.88283072607E+02  0.11607889289E+03  0.00000000000E+00 0.  1.
          5    1    4    4  501    0 -0.35666401568E+02  0.21651001270E+02 -0.10906577953E+03  0.11684893975E+03  0.41800000000E+01 0. -1.
         -5    1    4    4    0  501  0.14296666126E+02 -0.11061403762E+03 -0.20729969519E+03  0.23543681956E+03  0.41800000000E+01 0. -1.
</event>
<event>
11    1  0.1002087E-008  0.1337692E+03  0.7561462E-02  0.1114723E+00
         22   -1    0    0    0    0  0.00000000000E+00  0.00000000000E+00  0.85150798870E+03  0.85150798870E+03  0.00000000000E+00 0. -1.
         22   -1    0    0    0    0 -0.00000000000E+00 -0.00000000000E+00 -0.61054493717E+03  0.61054493717E+03  0.00000000000E+00 0.  1.
         24    2    1    2    0    0  0.77457867614E+01  0.36687895383E+02 -0.43344044982E+03  0.44222842069E+03  0.79305445251E+02 0.  0.
         25    2    1    2    0    0 -0.13040810714E+02  0.10956594535E+02 -0.14661514494E+03  0.19348018854E+03  0.12509385645E+03 0.  0.
        -24    2    1    2    0    0  0.52950239522E+01 -0.47644489918E+02  0.82101864630E+03  0.82634431664E+03  0.80469108218E+02 0.  0.
        -13    1    3    3    0    0  0.70954052337E+01  0.25907911928E+02 -0.43008004319E+03  0.43091809921E+03  0.00000000000E+00 0.  1.
         14    1    3    3    0    0  0.65038152766E+00  0.10779983454E+02 -0.33604066369E+01  0.11310321488E+02  0.00000000000E+00 0. -1.
         13    1    5    5    0    0  0.41966851373E+02 -0.20637059097E+02  0.48583027239E+03  0.48807597605E+03  0.00000000000E+00 0. -1.
        -14    1    5    5    0    0 -0.36671827421E+02 -0.27007430822E+02  0.33518837391E+03  0.33826834060E+03  0.00000000000E+00 0.  1.
          5    1    4    4  501    0 -0.19535787182E+02 -0.33622702814E+00 -0.16740455254E+03  0.16859275382E+03  0.41800000000E+01 0.  1.
         -5    1    4    4    0  501  0.64949764689E+01  0.11292821564E+02  0.20789407600E+02  0.24887434713E+02  0.41800000000E+01 0.  1.
</event>
<event>
11    1  0.1002087E-008  0.2851690E+03  0.7561462E-02  0.1006671E+00
         22   -1    0    0    0    0  0.00000000000E+00  0.00000000000E+00  0.96947980982E+03  0.96947980982E+03  0.00000000000E+00 0. -1.
         22   -1    0    0    0    0 -0.00000000000E+00 -0.00000000000E+00 -0.89946194380E+03  0.89946194380E+03  0.00000000000E+00 0. -1.
        -24    2    1    2    0    0  0.23998371353E+02 -0.77562833011E+02 -0.67239079071E+03  0.68212507558E+03  0.81199312831E+02 0.  0.
         25    2    1    2    0    0  0.20561562488E+03 -0.48074144775E+02 -0.12627355540E+03  0.27600882151E+03  0.12508776984E+03 0.  0.
         24    2    1    2    0    0 -0.22961399624E+03  0.12563697779E+03  0.86868221214E+03  0.91080785654E+03  0.80342568952E+02 0.  0.
        -13    1    5    5    0    0 -0.18751804526E+02  0.25571030243E+02  0.47587100805E+02  0.57184262902E+02  0.00000000000E+00 0.  1.
         14    1    5    5    0    0 -0.21086219171E+03  0.10006594754E+03  0.82109511134E+03  0.85362359364E+03  0.00000000000E+00 0. -1.
         13    1    3    3    0    0  0.22866174183E+02 -0.74267237716E+02 -0.67387274865E+03  0.67833838598E+03  0.00000000000E+00 0. -1.
        -14    1    3    3    0    0  0.11321971703E+01 -0.32955952948E+01  0.14819579380E+01  0.37866895977E+01  0.00000000000E+00 0.  1.
          5    1    4    4  501    0  0.27752483603E+00  0.26501493363E+02 -0.11410176388E+02  0.29155971871E+02  0.41800000000E+01 0. -1.
         -5    1    4    4    0  501  0.20533810005E+03 -0.74575638138E+02 -0.11486337901E+03  0.24685284963E+03  0.41800000000E+01 0. -1.
</event>
<event>
11    1  0.1002087E-008  0.2110657E+03  0.7561462E-02  0.1046963E+00
         22   -1    0    0    0    0  0.00000000000E+00  0.00000000000E+00  0.68560559857E+03  0.68560559857E+03  0.00000000000E+00 0. -1.
         22   -1    0    0    0    0 -0.00000000000E+00 -0.00000000000E+00 -0.14078119619E+04  0.14078119619E+04  0.00000000000E+00 0. -1.
        -24    2    1    2    0    0  0.13704572560E+03  0.84390832702E+02 -0.86679765240E+03  0.88548852888E+03  0.82755187291E+02 0.  0.
         25    2    1    2    0    0 -0.14335419130E+03 -0.13686110663E+03 -0.50313863171E+03  0.55504694198E+03  0.12508892198E+03 0.  0.
         24    2    1    2    0    0  0.63084657070E+01  0.52470273926E+02  0.64772992075E+03  0.65288208966E+03  0.62514369389E+02 0.  0.
        -13    1    5    5    0    0  0.26192700031E+02  0.26285834232E+02  0.16907447399E+03  0.17309875901E+03  0.00000000000E+00 0.  1.
         14    1    5    5    0    0 -0.19884234324E+02  0.26184439695E+02  0.47865544676E+03  0.47978333065E+03  0.00000000000E+00 0. -1.
         11    1    3    3    0    0  0.11451641709E+03  0.41472622856E+02 -0.73576976901E+03  0.74578223445E+03  0.00000000000E+00 0. -1.
        -12    1    3    3    0    0  0.22529308509E+02  0.42918209846E+02 -0.13102788339E+03  0.13970629443E+03  0.00000000000E+00 0.  1.
          5    1    4    4  501    0 -0.13328231899E+03 -0.12799878393E+03 -0.30660158019E+03  0.35800819351E+03  0.41800000000E+01 0. -1.
         -5    1    4    4    0  501 -0.10071872309E+02 -0.88623226940E+01 -0.19653705152E+03  0.19703874846E+03  0.41800000000E+01 0. -1.
</event>
<event>
11    1  0.1002087E-008  0.1455994E+03  0.7561462E-02  0.1101462E+00
         22   -1    0    0    0    0  0.00000000000E+00  0.00000000000E+00  0.25695391730E+04  0.25695391730E+04  0.00000000000E+00 0.  1.
         22   -1    0    0    0    0 -0.00000000000E+00 -0.00000000000E+00 -0.58916551455E+03  0.58916551455E+03  0.00000000000E+00 0.  1.
         24    2    1    2    0    0 -0.68213627063E+02  0.35332455176E+02 -0.50090193554E+03  0.51297594195E+03  0.79624661283E+02 0.  0.
         25    2    1    2    0    0  0.39035537631E+02 -0.38567554098E+02 -0.24231682849E+02  0.13873064164E+03  0.12509111499E+03 0.  0.
        -24    2    1    2    0    0  0.29178089432E+02  0.32350989214E+01  0.25055072769E+04  0.25069981040E+04  0.81307762209E+02 0.  0.
        -11    1    3    3    0    0 -0.16456465141E+02  0.36991529051E+02 -0.36992201795E+03  0.37213100896E+03  0.00000000000E+00 0.  1.
         12    1    3    3    0    0 -0.51757161922E+02 -0.16590738743E+01 -0.13097991759E+03  0.14084493299E+03  0.00000000000E+00 0. -1.
         13    1    5    5    0    0  0.17055948595E+02  0.28838391219E+01  0.10172657838E+03  0.10318681437E+03  0.00000000000E+00 0. -1.
        -14    1    5    5    0    0  0.12122140837E+02  0.35125979944E+00  0.24037806985E+04  0.24038112896E+04  0.00000000000E+00 0.  1.
          5    1    4    4  501    0  0.17921051223E+02  0.16632734992E+02 -0.63147608703E+02  0.67844711181E+02  0.41800000000E+01 0. -1.
         -5    1    4    4    0  501  0.21114486408E+02 -0.55200289090E+02  0.38915925855E+02  0.70885930459E+02  0.41800000000E+01 0. -1.
</event>
<event>
11    1  0.1002087E-008  0.1309922E+03  0.7561462E-02  0.1118056E+00
         22   -1    0    0    0    0  0.00000000000E+00  0.00000000000E+00  0.47510250189E+03  0.47510250189E+03  0.00000000000E+00 0. -1.
         22   -1    0    0    0    0 -0.00000000000E+00 -0.00000000000E+00 -0.32221462882E+03  0.32221462882E+03  0.00000000000E+00 0. -1.
        -24    2    1    2    0    0 -0.41107065476E+02  0.18736763812E+02 -0.19774349030E+03  0.21746723333E+03  0.78413343692E+02 0.  0.
         25    2    1    2    0    0  0.20704735056E+02  0.10049225697E+02 -0.74191512490E+02  0.14724743164E+03  0.12509097732E+03 0.  0.
         24    2    1    2    0    0  0.20402330419E+02 -0.28785989509E+02  0.42482287585E+03  0.43260246574E+03  0.73658191931E+02 0.  0.
        -13    1    5    5    0    0 -0.24088179814E+02 -0.21571514189E+02  0.24916279194E+03  0.25125219903E+03  0.00000000000E+00 0.  1.
         14    1    5    5    0    0  0.44490510233E+02 -0.72144753199E+01  0.17566008391E+03  0.18135026671E+03  0.00000000000E+00 0. -1.
         13    1    3    3    0    0  0.11457783229E+02 -0.89488803706E+01 -0.11324100759E+03  0.11417043862E+03  0.00000000000E+00 0. -1.
        -14    1    3    3    0    0 -0.52564848705E+02  0.27685644182E+02 -0.84502482712E+02  0.10329679471E+03  0.00000000000E+00 0.  1.
          5    1    4    4  501    0 -0.24556956994E+02  0.32930543019E+02 -0.85651178074E+02  0.95084496664E+02  0.41800000000E+01 0.  1.
         -5    1    4    4    0  501  0.45261692051E+02 -0.22881317322E+02  0.11459665583E+02  0.52162934973E+02  0.41800000000E+01 0.  1.
</event>
<event>
11    1  0.1002087E-008  0.2553162E+03  0.7561462E-02  0.1021105E+00
         22   -1    0    0    0    0  0.00000000000E+00  0.00000000000E+00  0.43451679093E+03  0.43451679093E+03  0.00000000000E+00 0. -1.
         22   -1    0    0    0    0 -0.00000000000E+00 -0.00000000000E+00 -0.27615794395E+03  0.27615794395E+03  0.00000000000E+00 0. -1.
         24    2    1    2    0    0 -0.14752745290E+03  0.13108592281E+03 -0.41329970200E+02  0.21721686343E+03  0.80790660355E+02 0.  0.
         25    2    1    2    0    0  0.20926908207E+03 -0.17459662513E+03  0.44692617257E+02  0.30318611051E+03  0.12508739885E+03 0.  0.
        -24    2    1    2    0    0 -0.61741629172E+02  0.43510702316E+02  0.15499619992E+03  0.19027176094E+03  0.80463103552E+02 0.  0.
        -13    1    3    3    0    0 -0.58393194570E+01 -0.98912536373E+01 -0.93261850629E+01  0.14795684441E+02  0.00000000000E+00 0.  1.
         14    1    3    3    0    0 -0.14168813344E+03  0.14097717645E+03 -0.32003785137E+02  0.20242117898E+03  0.00000000000E+00 0. -1.
         11    1    5    5    0    0 -0.30910932215E+02 -0.16280981700E+02  0.90778298332E+02  0.97268985517E+02  0.00000000000E+00 0. -1.
        -12    1    5    5    0    0 -0.30830696957E+02  0.59791684016E+02  0.64217901590E+02  0.93002775426E+02  0.00000000000E+00 0.  1.
          5    1    4    4  501    0  0.11375261773E+03 -0.86686130666E+02 -0.39466159625E+02  0.14842234820E+03  0.41800000000E+01 0.  1.
         -5    1    4    4    0  501  0.95516464339E+02 -0.87910494462E+02  0.84158776882E+02  0.15476376230E+03  0.41800000000E+01 0.  1.
</event>
<event>
11    1  0.1002087E-008  0.1842368E+03  0.7561462E-02  0.1066266E+00
         22   -1    0    0    0    0  0.00000000000E+00  0.00000000000E+00  0.11506595312E+04  0.11506595312E+04  0.00000000000E+00 0.  1.
         22   -1    0    0    0    0 -0.00000000000E+00 -0.00000000000E+00 -0.16399484521E+03  0.16399484521E+03  0.00000000000E+00 0.  1.
        -24    2    1    2    0    0  0.12265801109E+03  0.21036626651E+02 -0.44984659486E+02  0.15663308522E+03  0.83802007441E+02 0.  0.
         25    2    1    2    0    0 -0.16371164434E+03 -0.61423380653E+02  0.13302987062E+03  0.25282097526E+03  0.12508862807E+03 0.  0.
         24    2    1    2    0    0  0.41053633254E+02  0.40386754002E+02  0.89861947488E+03  0.90520031596E+03  0.92488705598E+02 0.  0.
        -11    1    5    5    0    0  0.40054890140E+02  0.56879967586E+02  0.86445617975E+03  0.86725095079E+03  0.00000000000E+00 0.  1.
         12    1    5    5    0    0  0.99874311377E+00 -0.16493213584E+02  0.34163295134E+02  0.37949365166E+02  0.00000000000E+00 0. -1.
         13    1    3    3    0    0  0.18769596136E+01  0.26762515061E+02  0.20138241341E+01  0.26903729805E+02  0.00000000000E+00 0. -1.
        -14    1    3    3    0    0  0.12078105147E+03 -0.57258884104E+01 -0.46998483621E+02  0.12972935541E+03  0.00000000000E+00 0.  1.
          5    1    4    4  501    0 -0.16965574160E+03 -0.18539911898E+02  0.97059383893E+02  0.19637921324E+03  0.41800000000E+01 0.  1.
         -5    1    4    4    0  501  0.59440972599E+01 -0.42883468755E+02  0.35970486730E+02  0.56441762023E+02  0.41800000000E+01 0.  1.
</event>
<event>
11    1  0.1002087E-008  0.3656121E+03  0.7561462E-02  0.9757051E-01
         22   -1    0    0    0    0  0.00000000000E+00  0.00000000000E+00  0.90363331765E+03  0.90363331765E+03  0.00000000000E+00 0. -1.
         22   -1    0    0    0    0 -0.00000000000E+00 -0.00000000000E+00 -0.12489914919E+04  0.12489914919E+04  0.00000000000E+00 0. -1.
        -24    2    1    2    0    0  0.88218416269E+02 -0.32885381579E+03 -0.10919353074E+04  0.11465171948E+04  0.79067321318E+02 0.  0.
         25    2    1    2    0    0 -0.77778626366E+02  0.37170323143E+03  0.19143178335E+03  0.44328983861E+03  0.12508775464E+03 0.  0.
         24    2    1    2    0    0 -0.10439789903E+02 -0.42849415634E+02  0.55514534980E+03  0.56281777615E+03  0.81439720762E+02 0.  0.
        -13    1    5    5    0    0 -0.29034326252E+02 -0.60293579327E+01  0.71346082148E+02  0.77263242851E+02  0.00000000000E+00 0.  1.
         14    1    5    5    0    0  0.18594536349E+02 -0.36820057702E+02  0.48379926765E+03  0.48555453330E+03  0.00000000000E+00 0. -1.
         11    1    3    3    0    0  0.56072881929E+02 -0.27309590724E+03 -0.96093240174E+03  0.10005581559E+04  0.00000000000E+00 0. -1.
        -12    1    3    3    0    0  0.32145534340E+02 -0.55757908559E+02 -0.13100290570E+03  0.14595903893E+03  0.00000000000E+00 0.  1.
          5    1    4    4  501    0 -0.97794323738E+00  0.21031476799E+03  0.15381718420E+03  0.26059634795E+03  0.41800000000E+01 0.  1.
         -5    1    4    4    0  501 -0.76800683129E+02  0.16138846343E+03  0.37614599143E+02  0.18269349065E+03  0.41800000000E+01 0.  1.
</event>
<event>
11    1  0.1002087E-008  0.2013405E+03  0.7561462E-02  0.1053580E+00
         22   -1    0    0    0    0  0.00000000000E+00  0.00000000000E+00  0.70000684955E+03  0.70000684955E+03  0.00000000000E+00 0. -1.
         22   -1    0    0    0    0 -0.00000000000E+00 -0.00000000000E+00 -0.30535729345E+03  0.30535729345E+03  0.00000000000E+00 0. -1.
        -24    2    1    2    0    0 -0.74007857700E+02  0.13547311929E+03 -0.23040453997E+03  0.28934484799E+03  0.82486726000E+02 0.  0.
         25    2    1    2    0    0  0.83011808829E+02 -0.17962213369E+03  0.30381680864E+03  0.38354265556E+03  0.12508095023E+03 0.  0.
         24    2    1    2    0    0 -0.90039511292E+01  0.44149014397E+02  0.32123728743E+03  0.33247663945E+03  0.72918545905E+02 0.  0.
        -11    1    5    5    0    0  0.13023472886E+02 -0.46674812245E+01  0.19313371013E+03  0.19362857799E+03  0.00000000000E+00 0.  1.
         12    1    5    5    0    0 -0.22027424015E+02  0.48816495621E+02  0.12810357729E+03  0.13884806145E+03  0.00000000000E+00 0. -1.
         11    1    3    3    0    0 -0.47243195275E+02  0.49159246049E+02 -0.16275975260E+03  0.17646327674E+03  0.00000000000E+00 0. -1.
        -12    1    3    3    0    0 -0.26764662424E+02  0.86313873242E+02 -0.67644787374E+02  0.11288157125E+03  0.00000000000E+00 0.  1.
          5    1    4    4  501    0  0.17937793129E+02 -0.16562887559E+02 -0.76962876396E+01  0.25938367529E+02  0.41800000000E+01 0. -1.
         -5    1    4    4    0  501  0.65074015700E+02 -0.16305924613E+03  0.31151309628E+03  0.35760428803E+03  0.41800000000E+01 0. -1.
</event>
<event>
11    1  0.1002087E-008  0.1832773E+03  0.7561462E-02  0.1067022E+00
         22   -1    0    0    0    0  0.00000000000E+00  0.00000000000E+00  0.37429743784E+03  0.37429743784E+03  0.00000000000E+00 0. -1.
         22   -1    0    0    0    0 -0.00000000000E+00 -0.00000000000E+00 -0.53078922483E+03  0.53078922483E+03  0.00000000000E+00 0.  1.
        -24    2    1    2    0    0  0.12161534949E+03 -0.34342247733E+02 -0.39408442570E+03  0.42154509698E+03  0.80175127042E+02 0.  0.
         25    2    1    2    0    0 -0.22848563805E+03  0.55654486121E+02  0.85538968068E+02  0.27975532397E+03  0.12507204966E+03 0.  0.
         24    2    1    2    0    0  0.10687028856E+03 -0.21312238388E+02  0.15205367064E+03  0.20378624172E+03  0.80827244644E+02 0.  0.
        -11    1    5    5    0    0 -0.21015250710E+01 -0.12030338885E+02 -0.43272344256E+01  0.12956481740E+02  0.00000000000E+00 0.  1.
         12    1    5    5    0    0  0.10897181363E+03 -0.92818995033E+01  0.15638090507E+03  0.19082975998E+03  0.00000000000E+00 0. -1.
         11    1    3    3    0    0  0.19491759317E+02  0.62029633819E+01 -0.11438950706E+02  0.23436190587E+02  0.00000000000E+00 0. -1.
        -12    1    3    3    0    0  0.10212359018E+03 -0.40545211115E+02 -0.38264547500E+03  0.39810890639E+03  0.00000000000E+00 0.  1.
          5    1    4    4  501    0 -0.16665485250E+03  0.24376678774E+02 -0.14209565069E+01  0.16848606426E+03  0.41800000000E+01 0. -1.
         -5    1    4    4    0  501 -0.61830785549E+02  0.31277807347E+02  0.86959924575E+02  0.11126925971E+03  0.41800000000E+01 0. -1.
</event>
<event>
11    1  0.1002087E-008  0.2160248E+03  0.7561462E-02  0.1043737E+00
         22   -1    0    0    0    0  0.00000000000E+00  0.00000000000E+00  0.60011204358E+03  0.60011204358E+03  0.00000000000E+00 0. -1.
         22   -1    0    0    0    0 -0.00000000000E+00 -0.00000000000E+00 -0.99091609487E+03  0.99091609487E+03  0.00000000000E+00 0.  1.
         24    2    1    2    0    0 -0.16567588846E+03 -0.19806006085E+02 -0.72390264536E+03  0.74706402685E+03  0.78923015410E+02 0.  0.
         25    2    1    2    0    0  0.22815230838E+03  0.12992643426E+03 -0.15761359481E+03  0.33079082422E+03  0.12508465126E+03 0.  0.
        -24    2    1    2    0    0 -0.62476419924E+02 -0.11012042817E+03  0.49071218887E+03  0.51317328740E+03  0.80737592478E+02 0.  0.
        -11    1    3    3    0    0 -0.14179611233E+03 -0.38701841064E+02 -0.50179974843E+03  0.52288331156E+03  0.00000000000E+00 0.  1.
         12    1    3    3    0    0 -0.23879776124E+02  0.18895834979E+02 -0.22210289692E+03  0.22418071529E+03  0.00000000000E+00 0. -1.
         13    1    5    5    0    0 -0.22021423636E+02 -0.38308505806E+02  0.32608820548E+03  0.32906838570E+03  0.00000000000E+00 0. -1.
        -14    1    5    5    0    0 -0.40454996288E+02 -0.71811922366E+02  0.16462398339E+03  0.18410490169E+03  0.00000000000E+00 0.  1.
          5    1    4    4  501    0  0.18050358269E+03  0.15373292157E+03 -0.13400362560E+03  0.27237804356E+03  0.41800000000E+01 0.  1.
         -5    1    4    4    0  501  0.47648725689E+02 -0.23806487315E+02 -0.23609969203E+02  0.58412780654E+02  0.41800000000E+01 0.  1.
</event>
<event>
11    1  0.1002087E-008  0.2197132E+03  0.7561462E-02  0.1041397E+00
         22   -1    0    0    0    0  0.00000000000E+00  0.00000000000E+00  0.13857183232E+04  0.13857183232E+04  0.00000000000E+00 0.  1.
         22   -1    0    0    0    0 -0.00000000000E+00 -0.00000000000E+00 -0.69632729619E+03  0.69632729619E+03  0.00000000000E+00 0.  1.
        -24    2    1    2    0    0  0.29869406739E+02  0.31053602239E+02 -0.50302964599E+03  0.51109654688E+03  0.79525768271E+02 0.  0.
         25    2    1    2    0    0 -0.16429191798E+03 -0.14920891122E+03 -0.92773375883E+02  0.27112558442E+03  0.12508816792E+03 0.  0.
         24    2    1    2    0    0  0.13442251124E+03  0.11815530898E+03  0.12851940489E+04  0.12998234881E+04  0.76074097610E+02 0.  0.
        -11    1    5    5    0    0  0.79322208584E+02  0.89179354708E+02  0.59662289957E+03  0.60844379722E+03  0.00000000000E+00 0.  1.
         12    1    5    5    0    0  0.55100302655E+02  0.28975954268E+02  0.68857114936E+03  0.69137969091E+03  0.00000000000E+00 0. -1.
         11    1    3    3    0    0  0.48510065244E+02 -0.49777584712E+01 -0.31387720061E+03  0.31764272630E+03  0.00000000000E+00 0. -1.
        -12    1    3    3    0    0 -0.18640658505E+02  0.36031360711E+02 -0.18915244539E+03  0.19345382059E+03  0.00000000000E+00 0.  1.
          5    1    4    4  501    0 -0.16978835397E+03 -0.10856723401E+03 -0.10611032752E+03  0.22779772486E+03  0.41800000000E+01 0. -1.
         -5    1    4    4    0  501  0.54964359922E+01 -0.40641677207E+02  0.13336951640E+02  0.43327859558E+02  0.41800000000E+01 0. -1.
</event>
<event>
11    1  0.1002087E-008  0.1406641E+03  0.7561462E-02  0.1106819E+00
         22   -1    0    0    0    0  0.00000000000E+00  0.00000000000E+00  0.12567727983E+03  0.12567727983E+03  0.00000000000E+00 0. -1.
         22   -1    0    0    0    0 -0.00000000000E+00 -0.00000000000E+00 -0.98018768176E+03  0.98018768176E+03  0.00000000000E+00 0. -1.
        -24    2    1    2    0    0 -0.35282918370E+02 -0.51485080195E+02 -0.80338659411E+03  0.80989517006E+03  0.81268499979E+02 0.  0.
         25    2    1    2    0    0  0.68921201060E+02  0.59221976849E+02 -0.10739029600E+03  0.18824998573E+03  0.12509199396E+03 0.  0.
         24    2    1    2    0    0 -0.33638282690E+02 -0.77368966536E+01  0.56266488186E+02  0.10771980580E+03  0.85124880245E+02 0.  0.
        -11    1    5    5    0    0  0.21912153085E+02 -0.14144597417E+01 -0.72296225975E+01  0.23117322338E+02  0.00000000000E+00 0.  1.
         12    1    5    5    0    0 -0.55550435775E+02 -0.63224369119E+01  0.63496110783E+02  0.84602483462E+02  0.00000000000E+00 0. -1.
         13    1    3    3    0    0 -0.53823690809E+02 -0.57114229371E+02 -0.72110034362E+03  0.72535834624E+03  0.00000000000E+00 0. -1.
        -14    1    3    3    0    0  0.18540772439E+02  0.56291491760E+01 -0.82286250487E+02  0.84536823824E+02  0.00000000000E+00 0.  1.
          5    1    4    4  501    0  0.63854789714E+02 -0.16236643909E+01  0.72405839654E+00  0.64016147307E+02  0.41800000000E+01 0. -1.
         -5    1    4    4    0  501  0.50664113460E+01  0.60845641240E+02 -0.10811435440E+03  0.12423383842E+03  0.41800000000E+01 0. -1.
</event>
<event>
11    1  0.1002087E-008  0.1360319E+03  0.7561462E-02  0.1112072E+00
         22   -1    0    0    0    0  0.00000000000E+00  0.00000000000E+00  0.16557100808E+04  0.16557100808E+04  0.00000000000E+00 0. -1.
         22   -1    0    0    0    0 -0.00000000000E+00 -0.00000000000E+00 -0.80104388545E+02  0.80104388545E+02  0.00000000000E+00 0.  1.
         24    2    1    2    0    0 -0.12339223315E+02  0.53822984611E+02 -0.33706328395E+02  0.10407060878E+03  0.81519353124E+02 0.  0.
         25    2    1    2    0    0  0.26400818230E+02 -0.25740581680E+02  0.43219589851E+03  0.45144254807E+03  0.12508996271E+03 0.  0.
        -24    2    1    2    0    0 -0.14061594915E+02 -0.28082402931E+02  0.11771161222E+04  0.11803013125E+04  0.80761831761E+02 0.  0.
        -11    1    3    3    0    0  0.66416658012E+00  0.71754465864E+02 -0.11440684145E+02  0.72663840680E+02  0.00000000000E+00 0.  1.
         12    1    3    3    0    0 -0.13003389895E+02 -0.17931481253E+02 -0.22265644250E+02  0.31406768101E+02  0.00000000000E+00 0. -1.
         11    1    5    5    0    0 -0.37322589760E+02 -0.25926769827E+02  0.10545560451E+04  0.10555347580E+04  0.00000000000E+00 0. -1.
        -12    1    5    5    0    0  0.23260994845E+02 -0.21556331045E+01  0.12256007705E+03  0.12476655450E+03  0.00000000000E+00 0.  1.
          5    1    4    4  501    0  0.49135534893E+02 -0.39289474800E+00  0.40410688517E+03  0.40710478036E+03  0.41800000000E+01 0. -1.
         -5    1    4    4    0  501 -0.22734716663E+02 -0.25347686932E+02  0.28089013343E+02  0.44337767706E+02  0.41800000000E+01 0. -1.
</event>
<event>
11    1  0.1002087E-008  0.1415607E+03  0.7561462E-02  0.1105828E+00
         22   -1    0    0    0    0  0.00000000000E+00  0.00000000000E+00  0.22712662957E+03  0.22712662957E+03  0.00000000000E+00 0. -1.
         22   -1    0    0    0    0 -0.00000000000E+00 -0.00000000000E+00 -0.31704605808E+04  0.31704605808E+04  0.00000000000E+00 0. -1.
        -24    2    1    2    0    0 -0.33746429708E+02 -0.15694522432E+02 -0.27021424223E+04  0.27035615267E+04  0.79285048522E+02 0.  0.
         25    2    1    2    0    0  0.33462604876E+02 -0.51001373976E+02 -0.44438490160E+03  0.46566691384E+03  0.12508736068E+03 0.  0.
         24    2    1    2    0    0  0.28382483216E+00  0.66695896408E+02  0.20319337267E+03  0.22835876979E+03  0.80073453088E+02 0.  0.
        -11    1    5    5    0    0 -0.31254161313E+02  0.56815941640E+02  0.93430745932E+02  0.11372852812E+03  0.00000000000E+00 0.  1.
         12    1    5    5    0    0  0.31537986146E+02  0.98799547671E+01  0.10976262673E+03  0.11463024166E+03  0.00000000000E+00 0. -1.
         11    1    3    3    0    0 -0.25934268233E+02 -0.33648261296E+02 -0.25220663243E+04  0.25224240992E+04  0.00000000000E+00 0. -1.
        -12    1    3    3    0    0 -0.78121614749E+01  0.17953738865E+02 -0.18007609798E+03  0.18113742758E+03  0.00000000000E+00 0.  1.
          5    1    4    4  501    0  0.60443096591E+02  0.11016440835E+02 -0.29887056253E+03  0.30514884145E+03  0.41800000000E+01 0. -1.
         -5    1    4    4    0  501 -0.26980491715E+02 -0.62017814811E+02 -0.14551433907E+03  0.16051807238E+03  0.41800000000E+01 0. -1.
</event>
<event>
11    1  0.1002087E-008  0.1624243E+03  0.7561462E-02  0.1084819E+00
         22   -1    0    0    0    0  0.00000000000E+00  0.00000000000E+00  0.99298578634E+02  0.99298578634E+02  0.00000000000E+00 0.  1.
         22   -1    0    0    0    0 -0.00000000000E+00 -0.00000000000E+00 -0.27138382791E+04  0.27138382791E+04  0.00000000000E+00 0.  1.
        -24    2    1    2    0    0 -0.96710754373E+01 -0.99274015369E+02 -0.21753424574E+04  0.21791405270E+04  0.81177397546E+02 0.  0.
         25    2    1    2    0    0  0.79125537156E+01  0.13802149669E+03 -0.49540070976E+03  0.52932098853E+03  0.12508518542E+03 0.  0.
         24    2    1    2    0    0  0.17585217217E+01 -0.38747481319E+02  0.56203466660E+02  0.10467534218E+03  0.79332451676E+02 0.  0.
        -13    1    5    5    0    0  0.29365142785E+01 -0.29560152894E+02  0.76662858164E+02  0.82216905665E+02  0.00000000000E+00 0.  1.
         14    1    5    5    0    0 -0.11779925568E+01 -0.91873284249E+01 -0.20459391504E+02  0.22458436517E+02  0.00000000000E+00 0. -1.
         13    1    3    3    0    0 -0.37966851483E+02 -0.47198658327E+02 -0.70269351706E+03  0.70529949247E+03  0.00000000000E+00 0. -1.
        -14    1    3    3    0    0  0.28295776046E+02 -0.52075357041E+02 -0.14726489403E+04  0.14738410345E+04  0.00000000000E+00 0.  1.
          5    1    4    4  501    0  0.25016432691E+02  0.25436401561E+02 -0.21394049824E+02  0.41809211866E+02  0.41800000000E+01 0. -1.
         -5    1    4    4    0  501 -0.17103878976E+02  0.11258509513E+03 -0.47400665994E+03  0.48751177667E+03  0.41800000000E+01 0. -1.
</event>
<event>
11    1  0.1002087E-008  0.1475027E+03  0.7561462E-02  0.1099458E+00
         22   -1    0    0    0    0  0.00000000000E+00  0.00000000000E+00  0.31884029066E+03  0.31884029066E+03  0.00000000000E+00 0.  1.
         22   -1    0    0    0    0 -0.00000000000E+00 -0.00000000000E+00 -0.53304702027E+03  0.53304702027E+03  0.00000000000E+00 0.  1.
        -24    2    1    2    0    0  0.80888782682E+02  0.69330724914E+01 -0.45025707032E+03  0.46467084125E+03  0.81218831999E+02 0.  0.
         25    2    1    2    0    0 -0.49835748716E+02  0.33664227163E+02  0.66072917172E+01  0.13895562561E+03  0.12509247597E+03 0.  0.
         24    2    1    2    0    0 -0.31053033966E+02 -0.40597299654E+02  0.22944304900E+03  0.24826084407E+03  0.79855508949E+02 0.  0.
        -11    1    5    5    0    0 -0.24335271495E+01 -0.55620186477E+02  0.18573491108E+03  0.19389941824E+03  0.00000000000E+00 0.  1.
         12    1    5    5    0    0 -0.28619506817E+02  0.15022886823E+02  0.43708137911E+02  0.54361425833E+02  0.00000000000E+00 0. -1.
         11    1    3    3    0    0  0.12456408631E+02 -0.17904058245E+02 -0.24784489261E+02  0.33014971233E+02  0.00000000000E+00 0. -1.
        -12    1    3    3    0    0  0.68432374051E+02  0.24837130736E+02 -0.42547258106E+03  0.43165587001E+03  0.00000000000E+00 0.  1.
          5    1    4    4  501    0 -0.64405278248E+02  0.70147241479E-01 -0.42706805555E+02  0.77391139205E+02  0.41800000000E+01 0.  1.
         -5    1    4    4    0  501  0.14569529532E+02  0.33594079921E+02  0.49314097272E+02  0.61564486405E+02  0.41800000000E+01 0.  1.
</event>
<event>
11    1  0.1002087E-008  0.1771022E+03  0.7561462E-02  0.1072011E+00
         22   -1    0    0    0    0  0.00000000000E+00  0.00000000000E+00  0.86151025952E+02  0.86151025952E+02  0.00000000000E+00 0. -1.
         22   -1    0    0    0    0 -0.00000000000E+00 -0.00000000000E+00 -0.18771534149E+04  0.18771534149E+04  0.00000000000E+00 0. -1.
        -24    2    1    2    0    0  0.12964541439E+03 -0.12304645847E+02 -0.16839139296E+04  0.16907385114E+04  0.77918251553E+02 0.  0.
         25    2    1    2    0    0 -0.61636706421E+02  0.36053162232E+02 -0.80339367714E+02  0.16493350681E+03  0.12509889520E+03 0.  0.
         24    2    1    2    0    0 -0.68008707965E+02 -0.23748516386E+02 -0.26749091657E+02  0.10763242264E+03  0.75366093895E+02 0.  0.
        -13    1    5    5    0    0 -0.35870684016E+02 -0.68449897956E+01 -0.51900441846E+02  0.63460347626E+02  0.00000000000E+00 0.  1.
         14    1    5    5    0    0 -0.32138023950E+02 -0.16903526590E+02  0.25151350189E+02  0.44172075012E+02  0.00000000000E+00 0. -1.
         11    1    3    3    0    0  0.59935144278E+02 -0.19694001121E+02 -0.12125850493E+04  0.12142250932E+04  0.00000000000E+00 0. -1.
        -12    1    3    3    0    0  0.69710270107E+02  0.73893552748E+01 -0.47132888032E+03  0.47651341823E+03  0.00000000000E+00 0.  1.
          5    1    4    4  501    0 -0.14619971458E+02  0.54838568249E+02 -0.96148668146E+02  0.11172757457E+03  0.41800000000E+01 0. -1.
         -5    1    4    4    0  501 -0.47016734963E+02 -0.18785406017E+02  0.15809300433E+02  0.53205932244E+02  0.41800000000E+01 0. -1.
</event>
<event>
11    1  0.1002087E-008  0.1382108E+03  0.7561462E-02  0.1109573E+00
         22   -1    0    0    0    0  0.00000000000E+00  0.00000000000E+00  0.19573449566E+04  0.19573449566E+04  0.00000000000E+00 0. -1.
         22   -1    0    0    0    0 -0.00000000000E+00 -0.00000000000E+00 -0.20807751051E+04  0.20807751051E+04  0.00000000000E+00 0.  1.
         24    2    1    2    0    0 -0.23184711672E+02  0.48150289401E+02 -0.20459148632E+04  0.20482184202E+04  0.81086917053E+02 0.  0.
         25    2    1    2    0    0 -0.34418914087E+02 -0.30520697626E+02  0.10507912641E+03  0.16972304762E+03  0.12509242765E+03 0.  0.
        -24    2    1    2    0    0  0.57603625759E+02 -0.17629591774E+02  0.18174055883E+04  0.18201785939E+04  0.80362062484E+02 0.  0.
        -11    1    3    3    0    0 -0.18804840130E+02  0.57155995969E+02 -0.20108908671E+04  0.20117908712E+04  0.00000000000E+00 0.  1.
         12    1    3    3    0    0 -0.43798715422E+01 -0.90057065683E+01 -0.35023996048E+02  0.36427548980E+02  0.00000000000E+00 0. -1.
         13    1    5    5    0    0  0.28802881550E+02  0.18218065772E+01  0.15779687387E+04  0.15782326398E+04  0.00000000000E+00 0. -1.
        -14    1    5    5    0    0  0.28800744209E+02 -0.19451398352E+02  0.23943684959E+03  0.24194595411E+03  0.00000000000E+00 0.  1.
          5    1    4    4  501    0  0.20207488150E+02 -0.57127708329E+02  0.87159422296E+02  0.10623631644E+03  0.41800000000E+01 0. -1.
         -5    1    4    4    0  501 -0.54626402237E+02  0.26607010703E+02  0.17919704115E+02  0.63486731177E+02  0.41800000000E+01 0. -1.
</event>
<event>
11    1  0.1002087E-008  0.1437721E+03  0.7561462E-02  0.1103418E+00
         22   -1    0    0    0    0  0.00000000000E+00  0.00000000000E+00  0.10905338979E+04  0.10905338979E+04  0.00000000000E+00 0.  1.
         22   -1    0    0    0    0 -0.00000000000E+00 -0.00000000000E+00 -0.33961432125E+03  0.33961432125E+03  0.00000000000E+00 0. -1.
        -24    2    1    2    0    0 -0.45873318274E+02 -0.67925987990E+01 -0.27465535881E+03  0.28954873935E+03  0.79072154430E+02 0.  0.
         25    2    1    2    0    0 -0.12475227257E+01  0.61263783614E+02  0.33727894130E+02  0.14331722439E+03  0.12508976165E+03 0.  0.
         24    2    1    2    0    0  0.47120841000E+02 -0.54471184815E+02  0.99184704132E+03  0.99728225538E+03  0.74992398943E+02 0.  0.
        -13    1    5    5    0    0  0.54802532266E+02 -0.41568678782E+02  0.44994879293E+03  0.45517599767E+03  0.00000000000E+00 0.  1.
         14    1    5    5    0    0 -0.76816912654E+01 -0.12902506034E+02  0.54189824839E+03  0.54210625771E+03  0.00000000000E+00 0. -1.
         11    1    3    3    0    0 -0.52234195046E+02 -0.21142875732E+02 -0.26542127653E+03  0.27133721890E+03  0.00000000000E+00 0. -1.
        -12    1    3    3    0    0  0.63608767719E+01  0.14350276933E+02 -0.92340822795E+01  0.18211520445E+02  0.00000000000E+00 0.  1.
          5    1    4    4  501    0 -0.75096413225E+01  0.69302174529E+02  0.73892537551E+02  0.10166988548E+03  0.41800000000E+01 0. -1.
         -5    1    4    4    0  501  0.62621185968E+01 -0.80383909142E+01 -0.40164643420E+02  0.41647338917E+02  0.41800000000E+01 0. -1.
</event>
<event>
11    1  0.1002087E-008  0.1470183E+03  0.7561462E-02  0.1099965E+00
         22   -1    0    0    0    0  0.00000000000E+00  0.00000000000E+00  0.47955258625E+03  0.47955258625E+03  0.00000000000E+00 0. -1.
         22   -1    0    0    0    0 -0.00000000000E+00 -0.00000000000E+00 -0.24508503641E+03  0.24508503641E+03  0.00000000000E+00 0.  1.
         24    2    1    2    0    0 -0.49095145167E+02  0.61382525564E+02 -0.19984612557E+03  0.22900315378E+03  0.79535041411E+02 0.  0.
         25    2    1    2    0    0  0.19828269136E+02 -0.58184020367E+02  0.18311324913E+03  0.23012332640E+03  0.12509093838E+03 0.  0.
        -24    2    1    2    0    0  0.29266876032E+02 -0.31985051979E+01  0.25120042628E+03  0.26551114248E+03  0.80794381906E+02 0.  0.
        -13    1    3    3    0    0  0.40355411619E+00  0.52466272738E+02 -0.14684287115E+03  0.15593492693E+03  0.00000000000E+00 0.  1.
         14    1    3    3    0    0 -0.49498699283E+02  0.89162528267E+01 -0.53003254427E+02  0.73068226850E+02  0.00000000000E+00 0. -1.
         11    1    5    5    0    0  0.35513667386E+02  0.30770364169E+02  0.18461134778E+03  0.19049773125E+03  0.00000000000E+00 0. -1.
        -12    1    5    5    0    0 -0.62467913548E+01 -0.33968869367E+02  0.66589078503E+02  0.75013411229E+02  0.00000000000E+00 0.  1.
          5    1    4    4  501    0  0.27782950349E+01  0.34278082143E+02  0.15624816355E+02  0.38004119840E+02  0.41800000000E+01 0. -1.
         -5    1    4    4    0  501  0.17049974101E+02 -0.92462102510E+02  0.16748843277E+03  0.19211920656E+03  0.41800000000E+01 0. -1.
</event>
<event>
11    1  0.1002087E-008  0.1425520E+03  0.7561462E-02  0.1104742E+00
         22   -1    0    0    0    0  0.00000000000E+00  0.00000000000E+00  0.15867905911E+03  0.15867905911E+03  0.00000000000E+00 0.  1.
         22   -1    0    0    0    0 -0.00000000000E+00 -0.00000000000E+00 -0.15104690641E+04  0.15104690641E+04  0.00000000000E+00 0.  1.
         24    2    1    2    0    0 -0.61621367062E+02  0.17483605148E+02 -0.78330852522E+03  0.79009094587E+03  0.81046824346E+02 0.  0.
         25    2    1    2    0    0  0.57545257496E+02 -0.67315502941E+02 -0.70006804152E+03  0.71664887934E+03  0.12509004723E+03 0.  0.
        -24    2    1    2    0    0  0.40761095659E+01  0.49831897793E+02  0.13158656174E+03  0.16240829801E+03  0.81003699468E+02 0.  0.
        -13    1    3    3    0    0 -0.44305561625E+02  0.21072233072E+02 -0.75578752803E+03  0.75737824719E+03  0.00000000000E+00 0.  1.
         14    1    3    3    0    0 -0.17315805437E+02 -0.35886279244E+01 -0.27520997187E+02  0.32712698673E+02  0.00000000000E+00 0. -1.
         13    1    5    5    0    0 -0.35788630075E+02  0.37436238201E+02  0.57630304110E+02  0.77482578203E+02  0.00000000000E+00 0. -1.
        -14    1    5    5    0    0  0.39864739641E+02  0.12395659593E+02  0.73956257626E+02  0.84925719811E+02  0.00000000000E+00 0.  1.
          5    1    4    4  501    0 -0.10303927624E+02 -0.81914963100E+02 -0.33768904185E+03  0.34766016955E+03  0.41800000000E+01 0.  1.
         -5    1    4    4    0  501  0.67849185120E+02  0.14599460159E+02 -0.36237899966E+03  0.36898870979E+03  0.41800000000E+01 0.  1.
</event>
<event>
11    1  0.1002087E-008  0.2736210E+03  0.7561462E-02  0.1012018E+00
         22   -1    0    0    0    0  0.00000000000E+00  0.00000000000E+00  0.11137859895E+04  0.11137859895E+04  0.00000000000E+00 0.  1.
         22   -1    0    0    0    0 -0.00000000000E+00 -0.00000000000E+00 -0.29852736667E+03  0.29852736667E+03  0.00000000000E+00 0.  1.
        -24    2    1    2    0    0 -0.22917854823E+03  0.67840933545E+02 -0.16460394014E+03  0.30112220991E+03  0.80342572521E+02 0.  0.
         25    2    1    2    0    0  0.25324993730E+03 -0.78051097677E+02  0.27670818524E+03  0.40304102518E+03  0.12508854309E+03 0.  0.
         24    2    1    2    0    0 -0.24071389075E+02  0.10210164132E+02  0.70315437772E+03  0.70815012106E+03  0.79792454691E+02 0.  0.
        -11    1    5    5    0    0  0.13030643399E+02  0.29363037930E+02  0.48326834348E+03  0.48433488154E+03  0.00000000000E+00 0.  1.
         12    1    5    5    0    0 -0.37102032474E+02 -0.19152873798E+02  0.21988603424E+03  0.22381523952E+03  0.00000000000E+00 0. -1.
         11    1    3    3    0    0 -0.15547231134E+03  0.54046733548E+02 -0.66219972904E+02  0.17741976726E+03  0.00000000000E+00 0. -1.
        -12    1    3    3    0    0 -0.73706236884E+02  0.13794199997E+02 -0.98383967240E+02  0.12370244266E+03  0.00000000000E+00 0.  1.
          5    1    4    4  501    0  0.13032568624E+00 -0.18097538642E+02 -0.53451204303E+01  0.19328233289E+02  0.41800000000E+01 0.  1.
         -5    1    4    4    0  501  0.25311961162E+03 -0.59953559035E+02  0.28205330567E+03  0.38371279190E+03  0.41800000000E+01 0.  1.
</event>
<event>
11    1  0.1002087E-008  0.4577703E+03  0.7561462E-02  0.9493174E-01
         22   -1    0    0    0    0  0.00000000000E+00  0.00000000000E+00  0.26174713830E+03  0.26174713830E+03  0.00000000000E+00 0. -1.
         22   -1    0    0    0    0 -0.00000000000E+00 -0.00000000000E+00 -0.12579954955E+04  0.12579954955E+04  0.00000000000E+00 0.  1.
        -24    2    1    2    0    0  0.23939389925E+03 -0.37741186133E+03 -0.86445553978E+03  0.97657471178E+03  0.81643342414E+02 0.  0.
         25    2    1    2    0    0 -0.19977675209E+03  0.37084103344E+03 -0.11479232124E+03  0.45415665594E+03  0.12508864203E+03 0.  0.
         24    2    1    2    0    0 -0.39617147154E+02  0.65708278889E+01 -0.17000496198E+02  0.89011266105E+02  0.77597000553E+02 0.  0.
        -13    1    5    5    0    0 -0.23805863688E+02 -0.35001524886E+02 -0.13344882353E+02  0.44383688166E+02  0.00000000000E+00 0.  1.
         14    1    5    5    0    0 -0.15811283466E+02  0.41572352775E+02 -0.36556138458E+01  0.44627577938E+02  0.00000000000E+00 0. -1.
         13    1    3    3    0    0  0.13260796056E+03 -0.24400894435E+03 -0.60775832114E+03  0.66820312259E+03  0.00000000000E+00 0. -1.
        -14    1    3    3    0    0  0.10678593869E+03 -0.13340291698E+03 -0.25669721864E+03  0.30837158918E+03  0.00000000000E+00 0.  1.
          5    1    4    4  501    0 -0.12233551989E+03  0.11641947016E+03 -0.13228411913E+02  0.16944596703E+03  0.41800000000E+01 0. -1.
         -5    1    4    4    0  501 -0.77441232198E+02  0.25442156328E+03 -0.10156390933E+03  0.28471068892E+03  0.41800000000E+01 0. -1.
</event>
<event>
11    1  0.1002087E-008  0.1796953E+03  0.7561462E-02  0.1069890E+00
         22   -1    0    0    0    0  0.00000000000E+00  0.00000000000E+00  0.68670606357E+03  0.68670606357E+03  0.00000000000E+00 0. -1.
         22   -1    0    0    0    0 -0.00000000000E+00 -0.00000000000E+00 -0.34303968624E+03  0.34303968624E+03  0.00000000000E+00 0.  1.
        -24    2    1    2    0    0 -0.12311855425E+03 -0.76967314330E+02 -0.23978566580E+03  0.29153673807E+03  0.80089688785E+02 0.  0.
         25    2    1    2    0    0  0.63181290755E+02  0.51785415046E+02  0.36013251435E+01  0.14944535550E+03  0.12508932818E+03 0.  0.
         24    2    1    2    0    0  0.59937263495E+02  0.25181899284E+02  0.57985071799E+03  0.58876365624E+03  0.78671368055E+02 0.  0.
        -13    1    5    5    0    0  0.29470219714E+02  0.22334711432E+02  0.81751051136E+02  0.89724954982E+02  0.00000000000E+00 0.  1.
         14    1    5    5    0    0  0.30467043780E+02  0.28471878525E+01  0.49809966685E+03  0.49903870126E+03  0.00000000000E+00 0. -1.
         11    1    3    3    0    0 -0.10461242328E+02 -0.37185827601E+02 -0.10253204002E+03  0.10956752528E+03  0.00000000000E+00 0. -1.
        -12    1    3    3    0    0 -0.11265731192E+03 -0.39781486730E+02 -0.13725362577E+03  0.18196921279E+03  0.00000000000E+00 0.  1.
          5    1    4    4  501    0  0.68006531184E+02  0.82840385414E+02 -0.21022860537E+02  0.10930165051E+03  0.41800000000E+01 0.  1.
         -5    1    4    4    0  501 -0.48252404290E+01 -0.31054970368E+02  0.24624185681E+02  0.40143704989E+02  0.41800000000E+01 0.  1.
</event>
<event>
11    1  0.1148436E-008  0.1455208E+03  0.7561462E-02  0.1101546E+00
         22   -1    0    0    0    0  0.00000000000E+00  0.00000000000E+00  0.60589332660E+03  0.60589332660E+03  0.00000000000E+00 0. -1.
         22   -1    0    0    0    0 -0.00000000000E+00 -0.00000000000E+00 -0.89886635535E+03  0.89886635535E+03  0.00000000000E+00 0.  1.
        -24    2    1    2    0    0  0.71047123455E+02 -0.20678267971E+02 -0.64687505025E+03  0.65605531385E+03  0.80535456059E+02 0.  0.
         25    2    1    2    0    0 -0.54008702065E+02  0.75190857331E+02 -0.21844915167E+03  0.26821350093E+03  0.12509134780E+03 0.  0.
         24    2    1    2    0    0 -0.17038421390E+02 -0.54512589360E+02  0.57235117317E+03  0.58049086717E+03  0.78242259857E+02 0.  0.
        -13    1    5    5    0    0 -0.11908868682E+02  0.14942813734E+02  0.50164902746E+02  0.53680781506E+02  0.00000000000E+00 0.  1.
         14    1    5    5    0    0 -0.51295527080E+01 -0.69455403094E+02  0.52218627043E+03  0.52681008566E+03  0.00000000000E+00 0. -1.
         11    1    3    3    0    0  0.37956499128E+02  0.24821265637E+02 -0.17274630310E+03  0.17860032555E+03  0.00000000000E+00 0. -1.
        -12    1    3    3    0    0  0.33090624327E+02 -0.45499533608E+02 -0.47412874715E+03  0.47745498830E+03  0.00000000000E+00 0.  1.
          5    1    4    4  501    0 -0.60023410765E+01  0.97218142421E+02 -0.10665760185E+03  0.14450159773E+03  0.41800000000E+01 0.  1.
         -5    1    4    4    0  501 -0.48006360988E+02 -0.22027285090E+02 -0.11179154981E+03  0.12371190320E+03  0.41800000000E+01 0.  1.
</event>
<event>
11    1  0.1002087E-008  0.1487916E+03  0.7561462E-02  0.1098120E+00
         22   -1    0    0    0    0  0.00000000000E+00  0.00000000000E+00  0.25884703731E+04  0.25884703731E+04  0.00000000000E+00 0. -1.
         22   -1    0    0    0    0 -0.00000000000E+00 -0.00000000000E+00 -0.15770256871E+04  0.15770256871E+04  0.00000000000E+00 0.  1.
        -24    2    1    2    0    0 -0.36512770317E+02 -0.25620984093E+02 -0.11133069651E+04  0.11173592828E+04  0.83962796612E+02 0.  0.
         25    2    1    2    0    0 -0.30626420247E+02  0.70236029774E+02 -0.44875118161E+03  0.47211923054E+03  0.12509143598E+03 0.  0.
         24    2    1    2    0    0  0.67139190564E+02 -0.44615045681E+02  0.25735028327E+04  0.25760175469E+04  0.80320599993E+02 0.  0.
        -11    1    5    5    0    0 -0.52437435437E+00  0.18971836528E+02  0.64708703637E+03  0.64736530505E+03  0.00000000000E+00 0.  1.
         12    1    5    5    0    0  0.67663564919E+02 -0.63586882209E+02  0.19264157963E+04  0.19286522418E+04  0.00000000000E+00 0. -1.
         13    1    3    3    0    0  0.20852376429E+01 -0.49101634796E+02 -0.50969131748E+03  0.51205522932E+03  0.00000000000E+00 0. -1.
        -14    1    3    3    0    0 -0.38598007960E+02  0.23480650703E+02 -0.60361564760E+03  0.60530405352E+03  0.00000000000E+00 0.  1.
          5    1    4    4  501    0 -0.64354472198E+02  0.10877237885E+02 -0.31694270465E+03  0.32362009027E+03  0.41800000000E+01 0.  1.
         -5    1    4    4    0  501  0.33728051951E+02  0.59358791889E+02 -0.13180847695E+03  0.14849914027E+03  0.41800000000E+01 0.  1.
</event>
<event>
11    1  0.1002087E-008  0.1669262E+03  0.7561462E-02  0.1080738E+00
         22   -1    0    0    0    0  0.00000000000E+00  0.00000000000E+00  0.77897312811E+02  0.77897312811E+02  0.00000000000E+00 0. -1.
         22   -1    0    0    0    0 -0.00000000000E+00 -0.00000000000E+00 -0.10837763446E+04  0.10837763446E+04  0.00000000000E+00 0. -1.
         24    2    1    2    0    0 -0.28991914650E+02  0.10040535200E+03 -0.71067756190E+03  0.72285414726E+03  0.80831648501E+02 0.  0.
         25    2    1    2    0    0 -0.25915017174E+02 -0.16058923634E+03 -0.22392584346E+03  0.30372863552E+03  0.12509120562E+03 0.  0.
        -24    2    1    2    0    0  0.54906931824E+02  0.60183884343E+02 -0.71275626472E+02  0.13509087467E+03  0.80823625211E+02 0.  0.
        -13    1    3    3    0    0 -0.16744162127E+02  0.13060764161E+01 -0.29009092126E+03  0.29057669453E+03  0.00000000000E+00 0.  1.
         14    1    3    3    0    0 -0.12247752523E+02  0.99099275584E+02 -0.42058664063E+03  0.43227745273E+03  0.00000000000E+00 0. -1.
         11    1    5    5    0    0  0.34079640466E+02  0.78265973631E+02 -0.63629343795E+02  0.10646914067E+03  0.00000000000E+00 0. -1.
        -12    1    5    5    0    0  0.20827291358E+02 -0.18082089288E+02 -0.76462826769E+01  0.28621733999E+02  0.00000000000E+00 0.  1.
          5    1    4    4  501    0 -0.66641088584E+02 -0.41743740566E+02 -0.99125416556E+02  0.12659737427E+03  0.41800000000E+01 0.  1.
         -5    1    4    4    0  501  0.40726071409E+02 -0.11884549578E+03 -0.12480042690E+03  0.17713126126E+03  0.41800000000E+01 0.  1.
</event>
<event>
11    1  0.1002087E-008  0.1673073E+03  0.7561462E-02  0.1080399E+00
         22   -1    0    0    0    0  0.00000000000E+00  0.00000000000E+00  0.40611184495E+03  0.40611184495E+03  0.00000000000E+00 0. -1.
         22   -1    0    0    0    0 -0.00000000000E+00 -0.00000000000E+00 -0.12779493891E+04  0.12779493891E+04  0.00000000000E+00 0.  1.
         24    2    1    2    0    0 -0.11017418246E+03  0.17288036545E+02 -0.12052368480E+04  0.12130171595E+04  0.79859519445E+02 0.  0.
         25    2    1    2    0    0  0.70824473768E+02 -0.12125656380E+03  0.14223751309E+03  0.23580208839E+03  0.12510737152E+03 0.  0.
        -24    2    1    2    0    0  0.39349708693E+02  0.10396852726E+03  0.19116179071E+03  0.23524198619E+03  0.80237819030E+02 0.  0.
        -11    1    3    3    0    0 -0.10074260522E+03  0.38648979748E+02 -0.81933439942E+03  0.82640890255E+03  0.00000000000E+00 0.  1.
         12    1    3    3    0    0 -0.94315772412E+01 -0.21360943204E+02 -0.38590244854E+03  0.38660825694E+03  0.00000000000E+00 0. -1.
         13    1    5    5    0    0  0.17651116409E+02  0.10947777678E+03  0.17662086027E+03  0.20854705417E+03  0.00000000000E+00 0. -1.
        -14    1    5    5    0    0  0.21698592284E+02 -0.55092495243E+01  0.14540930443E+02  0.26694932020E+02  0.00000000000E+00 0.  1.
          5    1    4    4  501    0  0.63927381204E+02 -0.10856071379E+03  0.16553822446E+03  0.20806853391E+03  0.41800000000E+01 0. -1.
         -5    1    4    4    0  501  0.68970925639E+01 -0.12695850014E+02 -0.23300711374E+02  0.27733554478E+02  0.41800000000E+01 0. -1.
</event>
<event>
11    1  0.1002087E-008  0.1590891E+03  0.7561462E-02  0.1087937E+00
         22   -1    0    0    0    0  0.00000000000E+00  0.00000000000E+00  0.13532073806E+03  0.13532073806E+03  0.00000000000E+00 0. -1.
         22   -1    0    0    0    0 -0.00000000000E+00 -0.00000000000E+00 -0.13730555798E+04  0.13730555798E+04  0.00000000000E+00 0. -1.
         24    2    1    2    0    0 -0.43272578885E+02  0.10308204560E+03 -0.79470059860E+03  0.80647711771E+03  0.79736288844E+02 0.  0.
         25    2    1    2    0    0  0.40424961725E+02 -0.65234282351E+02 -0.54602520069E+03  0.56540333847E+03  0.12509087192E+03 0.  0.
        -24    2    1    2    0    0  0.28476171602E+01 -0.37847763252E+02  0.10299095760E+03  0.13649586165E+03  0.81138281930E+02 0.  0.
        -11    1    3    3    0    0  0.97052166499E+01 -0.89128050855E+01 -0.63217458784E+02  0.64576128870E+02  0.00000000000E+00 0.  1.
         12    1    3    3    0    0 -0.52977795535E+02  0.11199485069E+03 -0.73148313982E+03  0.74190098884E+03  0.00000000000E+00 0. -1.
         13    1    5    5    0    0 -0.32042525327E+02 -0.52430503666E+01  0.73546040139E+02  0.80394235033E+02  0.00000000000E+00 0. -1.
        -14    1    5    5    0    0  0.34890142487E+02 -0.32604712886E+02  0.29444917457E+02  0.56101626618E+02  0.00000000000E+00 0.  1.
          5    1    4    4  501    0  0.43776621980E+02  0.43775095531E+01 -0.41125068128E+03  0.41361836332E+03  0.41800000000E+01 0.  1.
         -5    1    4    4    0  501 -0.33516602553E+01 -0.69611791904E+02 -0.13477451941E+03  0.15178497515E+03  0.41800000000E+01 0.  1.
</event>
<event>
11    1  0.1002087E-008  0.1674292E+03  0.7561462E-02  0.1080291E+00
         22   -1    0    0    0    0  0.00000000000E+00  0.00000000000E+00  0.10164962275E+04  0.10164962275E+04  0.00000000000E+00 0.  1.
         22   -1    0    0    0    0 -0.00000000000E+00 -0.00000000000E+00 -0.38761166433E+03  0.38761166433E+03  0.00000000000E+00 0.  1.
         24    2    1    2    0    0 -0.10787839805E+03 -0.16021259515E+02 -0.33396132893E+03  0.35886729660E+03  0.73219791210E+02 0.  0.
         25    2    1    2    0    0  0.18649769830E+03 -0.44539556816E+02  0.34074500155E+03  0.41050973978E+03  0.12508367910E+03 0.  0.
        -24    2    1    2    0    0 -0.78619300248E+02  0.60560816331E+02  0.62210089056E+03  0.63473085547E+03  0.77621736669E+02 0.  0.
        -13    1    3    3    0    0 -0.11145481316E+03 -0.69314565423E+01 -0.32990176075E+03  0.34828923643E+03  0.00000000000E+00 0.  1.
         14    1    3    3    0    0  0.35764151084E+01 -0.90898029727E+01 -0.40595681766E+01  0.10578060167E+02  0.00000000000E+00 0. -1.
         11    1    5    5    0    0 -0.24632861877E+01  0.17950319053E+02  0.22862069311E+02  0.29171149208E+02  0.00000000000E+00 0. -1.
        -12    1    5    5    0    0 -0.76156014061E+02  0.42610497279E+02  0.59923882125E+03  0.60555970627E+03  0.00000000000E+00 0.  1.
          5    1    4    4  501    0  0.13793747791E+03  0.13890106095E+02  0.28241358424E+03  0.31463405382E+03  0.41800000000E+01 0.  1.
         -5    1    4    4    0  501  0.48560220389E+02 -0.58429662911E+02  0.58331417309E+02  0.95875685956E+02  0.41800000000E+01 0.  1.
</event>
<event>
11    1  0.1002087E-008  0.1522985E+03  0.7561462E-02  0.1094553E+00
         22   -1    0    0    0    0  0.00000000000E+00  0.00000000000E+00  0.11014437811E+03  0.11014437811E+03  0.00000000000E+00 0.  1.
         22   -1    0    0    0    0 -0.00000000000E+00 -0.00000000000E+00 -0.79736843557E+03  0.79736843557E+03  0.00000000000E+00 0. -1.
        -24    2    1    2    0    0  0.70978252945E+02 -0.32264940559E+02 -0.40148899287E+03  0.41674588327E+03  0.80029875963E+02 0.  0.
         25    2    1    2    0    0 -0.78626711580E+02  0.86456394204E+02 -0.33861409860E+03  0.37942515808E+03  0.12508826859E+03 0.  0.
         24    2    1    2    0    0  0.76484586349E+01 -0.54191453645E+02  0.52879034018E+02  0.11134177233E+03  0.81274752902E+02 0.  0.
        -13    1    5    5    0    0  0.26186758221E+02 -0.35115492345E+02  0.67892348686E+02  0.80797370742E+02  0.00000000000E+00 0.  1.
         14    1    5    5    0    0 -0.18538299586E+02 -0.19075961301E+02 -0.15013314668E+02  0.30544401589E+02  0.00000000000E+00 0. -1.
         13    1    3    3    0    0  0.84751658133E+02 -0.98081262149E+01 -0.31285820547E+03  0.32428274642E+03  0.00000000000E+00 0. -1.
        -14    1    3    3    0    0 -0.13773405188E+02 -0.22456814344E+02 -0.88630787400E+02  0.92463136849E+02  0.00000000000E+00 0.  1.
          5    1    4    4  501    0  0.21219804996E+02  0.37802146369E+02 -0.34264806081E+02  0.55415085762E+02  0.41800000000E+01 0. -1.
         -5    1    4    4    0  501 -0.99846516576E+02  0.48654247835E+02 -0.30434929252E+03  0.32401007232E+03  0.41800000000E+01 0. -1.
</event>
<event>
11    1  0.1002087E-008  0.1370044E+03  0.7561462E-02  0.1110950E+00
         22   -1    0    0    0    0  0.00000000000E+00  0.00000000000E+00  0.28247566822E+03  0.28247566822E+03  0.00000000000E+00 0. -1.
         22   -1    0    0    0    0 -0.00000000000E+00 -0.00000000000E+00 -0.12981259843E+04  0.12981259843E+04  0.00000000000E+00 0. -1.
        -24    2    1    2    0    0  0.54148185752E+02 -0.11716648473E+02 -0.11699355420E+04  0.11740328972E+04  0.80837894870E+02 0.  0.
         25    2    1    2    0    0 -0.63087352174E+02  0.18902529547E+02 -0.77445666450E+02  0.16119166461E+03  0.12509037477E+03 0.  0.
         24    2    1    2    0    0  0.89391664224E+01 -0.71858810735E+01  0.23173089241E+03  0.24537709072E+03  0.79869672404E+02 0.  0.
        -11    1    5    5    0    0  0.33569637643E+02  0.66308586914E+01  0.45049398597E+02  0.56571522627E+02  0.00000000000E+00 0.  1.
         12    1    5    5    0    0 -0.24630471221E+02 -0.13816739765E+02  0.18668149382E+03  0.18880556810E+03  0.00000000000E+00 0. -1.
         13    1    3    3    0    0  0.22022529189E+02 -0.34628259129E+02 -0.25794016816E+03  0.26118429982E+03  0.00000000000E+00 0. -1.
        -14    1    3    3    0    0  0.32125656563E+02  0.22911610656E+02 -0.91199537386E+03  0.91284859733E+03  0.00000000000E+00 0.  1.
          5    1    4    4  501    0  0.41064070510E+00 -0.45273071168E+02 -0.48055635589E+02  0.66156149454E+02  0.41800000000E+01 0.  1.
         -5    1    4    4    0  501 -0.63497992879E+02  0.64175600715E+02 -0.29390030861E+02  0.95035515155E+02  0.41800000000E+01 0.  1.
</event>
<event>
11    1  0.1002087E-008  0.2254099E+03  0.7561462E-02  0.1037881E+00
         22   -1    0    0    0    0  0.00000000000E+00  0.00000000000E+00  0.10690122924E+04  0.10690122924E+04  0.00000000000E+00 0.  1.
         22   -1    0    0    0    0 -0.00000000000E+00 -0.00000000000E+00 -0.50734386993E+03  0.50734386993E+03  0.00000000000E+00 0. -1.
         24    2    1    2    0    0 -0.53365548174E+02  0.25981442814E+02 -0.45562020589E+03  0.46653067999E+03  0.80859051777E+02 0.  0.
         25    2    1    2    0    0  0.21401354293E+03 -0.65653852007E+02  0.54322160785E+03  0.60070698931E+03  0.12508775694E+03 0.  0.
        -24    2    1    2    0    0 -0.16064799476E+03  0.39672409194E+02  0.47406702052E+03  0.50911849304E+03  0.84145241902E+02 0.  0.
        -11    1    3    3    0    0  0.82561374258E+01 -0.13361678218E+02 -0.23476175485E+02  0.28245868112E+02  0.00000000000E+00 0.  1.
         12    1    3    3    0    0 -0.61621685600E+02  0.39343121032E+02 -0.43214403040E+03  0.43828481188E+03  0.00000000000E+00 0. -1.
         13    1    5    5    0    0 -0.25037559464E+01  0.19522156837E+01 -0.34468512625E+01  0.46862270048E+01  0.00000000000E+00 0. -1.
        -14    1    5    5    0    0 -0.15814423881E+03  0.37720193510E+02  0.47751387178E+03  0.50443226603E+03  0.00000000000E+00 0.  1.
          5    1    4    4  501    0  0.37318402244E+02 -0.61097527349E+02  0.96187275635E+02  0.11997931234E+03  0.41800000000E+01 0.  1.
         -5    1    4    4    0  501  0.17669514068E+03 -0.45563246583E+01  0.44703433221E+03  0.48072767698E+03  0.41800000000E+01 0.  1.
</event>
<event>
11    1  0.1002087E-008  0.1619310E+03  0.7561462E-02  0.1085275E+00
         22   -1    0    0    0    0  0.00000000000E+00  0.00000000000E+00  0.24693633364E+03  0.24693633364E+03  0.00000000000E+00 0. -1.
         22   -1    0    0    0    0 -0.00000000000E+00 -0.00000000000E+00 -0.54136315014E+03  0.54136315014E+03  0.00000000000E+00 0. -1.
        -24    2    1    2    0    0  0.94160804430E+02  0.42574584625E+02 -0.47033064392E+03  0.48877569804E+03  0.83737184340E+02 0.  0.
         25    2    1    2    0    0 -0.81296939265E+02 -0.51248120304E+02  0.93590984783E+02  0.18341708224E+03  0.12508793489E+03 0.  0.
         24    2    1    2    0    0 -0.12863865165E+02  0.86735356787E+01  0.82312842638E+02  0.11610670349E+03  0.80403067629E+02 0.  0.
        -11    1    5    5    0    0 -0.36125513133E+02  0.25301853028E+02  0.21843471640E+02  0.49217615943E+02  0.00000000000E+00 0.  1.
         12    1    5    5    0    0  0.23261647968E+02 -0.16628317350E+02  0.60469370999E+02  0.66889087548E+02  0.00000000000E+00 0. -1.
         13    1    3    3    0    0  0.32315173131E+02  0.62305299630E+00 -0.31227505983E+03  0.31394326175E+03  0.00000000000E+00 0. -1.
        -14    1    3    3    0    0  0.61845631299E+02  0.41951531629E+02 -0.15805558409E+03  0.17483243629E+03  0.00000000000E+00 0.  1.
          5    1    4    4  501    0 -0.43750814614E+02 -0.82551829455E+02  0.21081895457E+02  0.95868957655E+02  0.41800000000E+01 0.  1.
         -5    1    4    4    0  501 -0.37546124652E+02  0.31303709152E+02  0.72509089326E+02  0.87548124583E+02  0.41800000000E+01 0.  1.
</event>
<event>
11    1  0.1002087E-008  0.1534332E+03  0.7561462E-02  0.1093422E+00
         22   -1    0    0    0    0  0.00000000000E+00  0.00000000000E+00  0.14247282644E+04  0.14247282644E+04  0.00000000000E+00 0. -1.
         22   -1    0    0    0    0 -0.00000000000E+00 -0.00000000000E+00 -0.30792017734E+03  0.30792017734E+03  0.00000000000E+00 0.  1.
        -24    2    1    2    0    0 -0.55951770623E+02  0.71205053479E+02 -0.25175987966E+03  0.27922287272E+03  0.79885013384E+02 0.  0.
         25    2    1    2    0    0 -0.12505702812E+02 -0.95532013493E+02  0.11580081609E+03  0.19580298432E+03  0.12508485702E+03 0.  0.
         24    2    1    2    0    0  0.68457473435E+02  0.24326960014E+02  0.12527671507E+04  0.12576225847E+04  0.83131252744E+02 0.  0.
        -11    1    5    5    0    0  0.39723656388E+02 -0.17438093548E+02  0.26266913186E+03  0.26622758838E+03  0.00000000000E+00 0.  1.
         12    1    5    5    0    0  0.28733817047E+02  0.41765053562E+02  0.99009801880E+03  0.99139499634E+03  0.00000000000E+00 0. -1.
         11    1    3    3    0    0 -0.34493372263E+02  0.29354068492E+02 -0.34514256601E+02  0.56944604449E+02  0.00000000000E+00 0. -1.
        -12    1    3    3    0    0 -0.21458398360E+02  0.41850984987E+02 -0.21724562306E+03  0.22227826827E+03  0.00000000000E+00 0.  1.
          5    1    4    4  501    0 -0.61531305046E+02 -0.34485052708E+02  0.87446269757E+02  0.11242616624E+03  0.41800000000E+01 0.  1.
         -5    1    4    4    0  501  0.49025602234E+02 -0.61046960785E+02  0.28354546337E+02  0.83376818082E+02  0.41800000000E+01 0.  1.
</event>
<event>
11    1  0.1002087E-008  0.1254907E+04  0.7561462E-02  0.8468378E-01
         22   -1    0    0    0    0  0.00000000000E+00  0.00000000000E+00  0.66063842234E+03  0.66063842234E+03  0.00000000000E+00 0. -1.
         22   -1    0    0    0    0 -0.00000000000E+00 -0.00000000000E+00 -0.59593557917E+03  0.59593557917E+03  0.00000000000E+00 0. -1.
         24    2    1    2    0    0  0.36829347015E+03  0.51989070254E+01  0.12496460263E+03  0.39735562624E+03  0.81291038893E+02 0.  0.
         25    2    1    2    0    0 -0.52605984257E+03  0.74605523772E+01 -0.25308506792E+03  0.59707154511E+03  0.12509100914E+03 0.  0.
        -24    2    1    2    0    0  0.15776637243E+03 -0.12659459403E+02  0.19282330846E+03  0.26214683016E+03  0.80558314876E+02 0.  0.
        -13    1    3    3    0    0  0.14107351311E+03  0.38185921876E+02  0.65636210353E+02  0.16021239915E+03  0.00000000000E+00 0.  1.
         14    1    3    3    0    0  0.22721995704E+03 -0.32987014850E+02  0.59328392272E+02  0.23714322709E+03  0.00000000000E+00 0. -1.
         13    1    5    5    0    0  0.37096255937E+02  0.31848136387E+02  0.49490429540E+02  0.69568229903E+02  0.00000000000E+00 0. -1.
        -14    1    5    5    0    0  0.12067011649E+03 -0.44507595790E+02  0.14333287892E+03  0.19257860025E+03  0.00000000000E+00 0.  1.
          5    1    4    4  501    0 -0.28827532777E+03  0.49642097574E+02 -0.18496452166E+03  0.34611609198E+03  0.41800000000E+01 0. -1.
         -5    1    4    4    0  501 -0.23778451480E+03 -0.42181545197E+02 -0.68120546259E+02  0.25095545313E+03  0.41800000000E+01 0. -1.
</event>
<event>
11    1  0.1002087E-008  0.1818657E+03  0.7561462E-02  0.1068144E+00
         22   -1    0    0    0    0  0.00000000000E+00  0.00000000000E+00  0.52028173315E+03  0.52028173315E+03  0.00000000000E+00 0. -1.
         22   -1    0    0    0    0 -0.00000000000E+00 -0.00000000000E+00 -0.56468951849E+03  0.56468951849E+03  0.00000000000E+00 0. -1.
         24    2    1    2    0    0  0.93287766956E+01  0.22237193451E+01 -0.49149056575E+03  0.49772016174E+03  0.77912849892E+02 0.  0.
         25    2    1    2    0    0  0.42464456119E+02  0.12062370564E+03  0.94812416491E+02  0.20245943319E+03  0.12508844618E+03 0.  0.
        -24    2    1    2    0    0 -0.51793232814E+02 -0.12284742499E+03  0.35227036392E+03  0.38479165672E+03  0.78715824295E+02 0.  0.
        -11    1    3    3    0    0 -0.15298966810E+02  0.12617351727E+02 -0.33350559435E+02  0.38800976336E+02  0.00000000000E+00 0.  1.
         12    1    3    3    0    0  0.24627743506E+02 -0.10393632382E+02 -0.45814000632E+03  0.45891918540E+03  0.00000000000E+00 0. -1.
         11    1    5    5    0    0 -0.57052153296E+02 -0.65709888366E+02  0.13947371021E+03  0.16439480973E+03  0.00000000000E+00 0. -1.
        -12    1    5    5    0    0  0.52589204819E+01 -0.57137536624E+02  0.21279665371E+03  0.22039684699E+03  0.00000000000E+00 0.  1.
          5    1    4    4  501    0 -0.34988551953E+02  0.25881649501E+02 -0.56391798349E+01  0.44083231481E+02  0.41800000000E+01 0.  1.
         -5    1    4    4    0  501  0.77453008071E+02  0.94742056144E+02  0.10045159633E+03  0.15837620170E+03  0.41800000000E+01 0.  1.
</event>
<event>
11    1  0.1002087E-008  0.1297476E+03  0.7561462E-02  0.1119579E+00
         22   -1    0    0    0    0  0.00000000000E+00  0.00000000000E+00  0.36318782573E+03  0.36318782573E+03  0.00000000000E+00 0. -1.
         22   -1    0    0    0    0 -0.00000000000E+00 -0.00000000000E+00 -0.88928988860E+03  0.88928988860E+03  0.00000000000E+00 0.  1.
        -24    2    1    2    0    0 -0.18698061390E+02 -0.20184885606E+02 -0.71203636506E+03  0.71702451050E+03  0.79820526070E+02 0.  0.
         25    2    1    2    0    0  0.40734167312E+02  0.45476638562E+02 -0.14042576226E+03  0.19772497446E+03  0.12509346017E+03 0.  0.
         24    2    1    2    0    0 -0.22036105921E+02 -0.25291752956E+02  0.32636006445E+03  0.33772822937E+03  0.80151122975E+02 0.  0.
        -11    1    5    5    0    0 -0.43146814043E+02  0.80661039184E+01  0.12364687337E+03  0.13120693156E+03  0.00000000000E+00 0.  1.
         12    1    5    5    0    0  0.21110708121E+02 -0.33357856875E+02  0.20271319108E+03  0.20652129782E+03  0.00000000000E+00 0. -1.
         13    1    3    3    0    0 -0.19595689858E+02  0.19489276870E+02 -0.10136758482E+03  0.10506764595E+03  0.00000000000E+00 0. -1.
        -14    1    3    3    0    0  0.89762846754E+00 -0.39674162476E+02 -0.61066878024E+03  0.61195686454E+03  0.00000000000E+00 0.  1.
          5    1    4    4  501    0  0.74892551393E+02  0.34940554611E+02 -0.13892778597E+03  0.16170386120E+03  0.41800000000E+01 0.  1.
         -5    1    4    4    0  501 -0.34158384081E+02  0.10536083951E+02 -0.14979762897E+01  0.36021113267E+02  0.41800000000E+01 0.  1.
</event>
<event>
11    1  0.1002087E-008  0.1294662E+03  0.7561462E-02  0.1119927E+00
         22   -1    0    0    0    0  0.00000000000E+00  0.00000000000E+00  0.36278797552E+03  0.36278797552E+03  0.00000000000E+00 0. -1.
         22   -1    0    0    0    0 -0.00000000000E+00 -0.00000000000E+00 -0.54272225105E+03  0.54272225105E+03  0.00000000000E+00 0. -1.
         24    2    1    2    0    0 -0.98075058199E+01 -0.11402770522E+02 -0.50376032551E+03  0.51028904162E+03  0.79963929952E+02 0.  0.
         25    2    1    2    0    0  0.79451199850E+01  0.41713137082E+02  0.14057397317E+03  0.19290548732E+03  0.12509346253E+03 0.  0.
        -24    2    1    2    0    0  0.18623858349E+01 -0.30310366561E+02  0.18325207680E+03  0.20231569763E+03  0.80175626295E+02 0.  0.
        -11    1    3    3    0    0  0.35369148837E+02 -0.41772111857E+01 -0.21982848092E+03  0.22269482887E+03  0.00000000000E+00 0.  1.
         12    1    3    3    0    0 -0.45176654657E+02 -0.72255593359E+01 -0.28393184459E+03  0.28759421275E+03  0.00000000000E+00 0. -1.
         13    1    5    5    0    0  0.35194385156E+02 -0.13562344627E+02  0.14097924032E+03  0.14593741172E+03  0.00000000000E+00 0. -1.
        -14    1    5    5    0    0 -0.33331999322E+02 -0.16748021934E+02  0.42272836479E+02  0.56378285904E+02  0.00000000000E+00 0.  1.
          5    1    4    4  501    0  0.80991437035E+01  0.49071368207E+02  0.16218768695E+03  0.16969358710E+03  0.41800000000E+01 0.  1.
         -5    1    4    4    0  501 -0.15402371850E+00 -0.73582311244E+01 -0.21613713776E+02  0.23211900219E+02  0.41800000000E+01 0.  1.
</event>
<event>
11    1  0.1002087E-008  0.1358970E+03  0.7561462E-02  0.1112229E+00
         22   -1    0    0    0    0  0.00000000000E+00  0.00000000000E+00  0.13943404197E+04  0.13943404197E+04  0.00000000000E+00 0. -1.
         22   -1    0    0    0    0 -0.00000000000E+00 -0.00000000000E+00 -0.65982346287E+02  0.65982346287E+02  0.00000000000E+00 0.  1.
        -24    2    1    2    0    0 -0.17024689034E+02  0.50046703916E+01  0.84708145746E+01  0.82064871962E+02  0.79674348119E+02 0.  0.
         25    2    1    2    0    0  0.33812886699E+02 -0.54552994672E+02  0.15623157657E+03  0.21018110995E+03  0.12509377653E+03 0.  0.
         24    2    1    2    0    0 -0.16788197665E+02  0.49548324281E+02  0.11636556823E+04  0.11680767841E+04  0.87016932894E+02 0.  0.
        -11    1    5    5    0    0 -0.49911243301E+01  0.66175009982E+02  0.53635809882E+03  0.54044801178E+03  0.00000000000E+00 0.  1.
         12    1    5    5    0    0 -0.11797073334E+02 -0.16626685701E+02  0.62729758348E+03  0.62762877233E+03  0.00000000000E+00 0. -1.
         11    1    3    3    0    0 -0.28881768201E+02 -0.24083025577E+02  0.26353107680E+02  0.45919875215E+02  0.00000000000E+00 0. -1.
        -12    1    3    3    0    0  0.11857079167E+02  0.29087695969E+02 -0.17882293105E+02  0.36144996747E+02  0.00000000000E+00 0.  1.
          5    1    4    4  501    0  0.78693585146E+02 -0.26406632715E+02  0.11958299437E+03  0.14562814130E+03  0.41800000000E+01 0.  1.
         -5    1    4    4    0  501 -0.44880698447E+02 -0.28146361958E+02  0.36648582202E+02  0.64552968653E+02  0.41800000000E+01 0.  1.
</event>
<event>
11    1  0.1002087E-008  0.1730814E+03  0.7561462E-02  0.1075381E+00
         22   -1    0    0    0    0  0.00000000000E+00  0.00000000000E+00  0.50491890469E+03  0.50491890469E+03  0.00000000000E+00 0. -1.
         22   -1    0    0    0    0 -0.00000000000E+00 -0.00000000000E+00 -0.48171839575E+03  0.48171839575E+03  0.00000000000E+00 0.  1.
         24    2    1    2    0    0 -0.33946777500E+02 -0.10910485405E+03 -0.34445949223E+03  0.37170689009E+03  0.80358057930E+02 0.  0.
         25    2    1    2    0    0 -0.16659969570E+02  0.16675553342E+03 -0.21389280212E+02  0.21023034687E+03  0.12511728468E+03 0.  0.
        -24    2    1    2    0    0  0.50606747070E+02 -0.57650679367E+02  0.38904928138E+03  0.40470006348E+03  0.80858854512E+02 0.  0.
        -13    1    3    3    0    0 -0.11490292232E+02 -0.13775497398E+02 -0.17549735431E+03  0.17641176977E+03  0.00000000000E+00 0.  1.
         14    1    3    3    0    0 -0.22456485268E+02 -0.95329356652E+02 -0.16896213792E+03  0.19529512032E+03  0.00000000000E+00 0. -1.
         13    1    5    5    0    0  0.40261312314E+02 -0.52888274264E+02  0.38755474267E+03  0.39321345525E+03  0.00000000000E+00 0. -1.
        -14    1    5    5    0    0  0.10345434756E+02 -0.47624051037E+01  0.14945387170E+01  0.11486608231E+02  0.00000000000E+00 0.  1.
          5    1    4    4  501    0  0.96418740596E+01  0.17931928467E+03 -0.20206547546E+02  0.18075991965E+03  0.41800000000E+01 0.  1.
         -5    1    4    4    0  501 -0.26301843630E+02 -0.12563751250E+02 -0.11827326659E+01  0.29470427217E+02  0.41800000000E+01 0.  1.
</event>
<event>
11    1  0.1002087E-008  0.3210722E+03  0.7561462E-02  0.9916474E-01
         22   -1    0    0    0    0  0.00000000000E+00  0.00000000000E+00  0.62869304455E+03  0.62869304455E+03  0.00000000000E+00 0.  1.
         22   -1    0    0    0    0 -0.00000000000E+00 -0.00000000000E+00 -0.94918002742E+03  0.94918002742E+03  0.00000000000E+00 0. -1.
        -24    2    1    2    0    0  0.15695214909E+03 -0.24474408034E+03 -0.70939218652E+03  0.77104658689E+03  0.82109213275E+02 0.  0.
         25    2    1    2    0    0 -0.29691607291E+03  0.18936331989E+03 -0.89919745085E+01  0.37382630813E+03  0.12509049432E+03 0.  0.
         24    2    1    2    0    0  0.13996392382E+03  0.55380760450E+02  0.39789717816E+03  0.43300017696E+03  0.80684944424E+02 0.  0.
        -13    1    5    5    0    0  0.14992135106E+03  0.57498640105E+02  0.37615102276E+03  0.40898911604E+03  0.00000000000E+00 0.  1.
         14    1    5    5    0    0 -0.99574272407E+01 -0.21178796549E+01  0.21746155400E+02  0.24011060913E+02  0.00000000000E+00 0. -1.
         13    1    3    3    0    0  0.15806395324E+03 -0.19157102176E+03 -0.60150305334E+03  0.65076078006E+03  0.00000000000E+00 0. -1.
        -14    1    3    3    0    0 -0.11118041489E+01 -0.53173058581E+02 -0.10788913318E+03  0.12028580683E+03  0.00000000000E+00 0.  1.
          5    1    4    4  501    0 -0.25097658488E+03  0.14535384887E+03 -0.54969017550E+02  0.29522203988E+03  0.41800000000E+01 0.  1.
         -5    1    4    4    0  501 -0.45939488035E+02  0.44009471017E+02  0.45977043041E+02  0.78604268249E+02  0.41800000000E+01 0.  1.
</event>
<event>
11    1  0.1002087E-008  0.1412424E+03  0.7561462E-02  0.1106179E+00
         22   -1    0    0    0    0  0.00000000000E+00  0.00000000000E+00  0.26950310986E+03  0.26950310986E+03  0.00000000000E+00 0.  1.
         22   -1    0    0    0    0 -0.00000000000E+00 -0.00000000000E+00 -0.35524291017E+03  0.35524291017E+03  0.00000000000E+00 0. -1.
         24    2    1    2    0    0 -0.49628019046E+02 -0.89768528430E+01 -0.27435681754E+03  0.29044110845E+03  0.80875521539E+02 0.  0.
         25    2    1    2    0    0  0.21073162859E+02  0.70137515336E+02  0.35114951584E+02  0.14915406341E+03  0.12510206057E+03 0.  0.
        -24    2    1    2    0    0  0.28554856187E+02 -0.61160662493E+02  0.15350206564E+03  0.18515084817E+03  0.78498063496E+02 0.  0.
        -13    1    3    3    0    0 -0.10674036608E+02  0.34088271432E+02 -0.13065895388E+03  0.13545370994E+03  0.00000000000E+00 0.  1.
         14    1    3    3    0    0 -0.38953982438E+02 -0.43065124275E+02 -0.14369786365E+03  0.15498739851E+03  0.00000000000E+00 0. -1.
         11    1    5    5    0    0  0.70083848573E+01 -0.13188718791E+02 -0.68239734476E+01  0.16420303751E+02  0.00000000000E+00 0. -1.
        -12    1    5    5    0    0  0.21546471330E+02 -0.47971943702E+02  0.16032603909E+03  0.16873054442E+03  0.00000000000E+00 0.  1.
          5    1    4    4  501    0  0.11892516933E+01 -0.30944871642E+02 -0.14830799427E+02  0.34589368484E+02  0.41800000000E+01 0.  1.
         -5    1    4    4    0  501  0.19883911166E+02  0.10108238698E+03  0.49945751011E+02  0.11456469493E+03  0.41800000000E+01 0.  1.
</event>
<event>
11    1  0.1002087E-008  0.1312502E+03  0.7561462E-02  0.1117742E+00
         22   -1    0    0    0    0  0.00000000000E+00  0.00000000000E+00  0.33999337741E+03  0.33999337741E+03  0.00000000000E+00 0. -1.
         22   -1    0    0    0    0 -0.00000000000E+00 -0.00000000000E+00 -0.50177117864E+03  0.50177117864E+03  0.00000000000E+00 0. -1.
         24    2    1    2    0    0  0.19960635844E+02  0.34021043457E+02 -0.45950352209E+03  0.46814817117E+03  0.80395055663E+02 0.  0.
         25    2    1    2    0    0  0.26097843084E+02 -0.31272661572E+02  0.16234273737E+03  0.20895425301E+03  0.12509052203E+03 0.  0.
        -24    2    1    2    0    0 -0.46058478928E+02 -0.27483818848E+01  0.13538298350E+03  0.16466213186E+03  0.81585098907E+02 0.  0.
        -13    1    3    3    0    0  0.26658940396E+02 -0.21052030175E+02 -0.16377135095E+03  0.16725711486E+03  0.00000000000E+00 0.  1.
         14    1    3    3    0    0 -0.66983045514E+01  0.55073073632E+02 -0.29573217114E+03  0.30089105632E+03  0.00000000000E+00 0. -1.
         11    1    5    5    0    0 -0.65707287713E+02 -0.12361334465E+02  0.12171229329E+03  0.13886732008E+03  0.00000000000E+00 0. -1.
        -12    1    5    5    0    0  0.19648808785E+02  0.96129525799E+01  0.13670690206E+02  0.25794811778E+02  0.00000000000E+00 0.  1.
          5    1    4    4  501    0 -0.15399360196E+02  0.41214841971E+02  0.81094374197E+02  0.92355689698E+02  0.41800000000E+01 0.  1.
         -5    1    4    4    0  501  0.41497203279E+02 -0.72487503542E+02  0.81248363168E+02  0.11659856332E+03  0.41800000000E+01 0.  1.
</event>
<event>
11    1  0.1002087E-008  0.1350295E+03  0.7561462E-02  0.1113239E+00
         22   -1    0    0    0    0  0.00000000000E+00  0.00000000000E+00  0.96191163236E+03  0.96191163236E+03  0.00000000000E+00 0.  1.
         22   -1    0    0    0    0 -0.00000000000E+00 -0.00000000000E+00 -0.25791159028E+03  0.25791159028E+03  0.00000000000E+00 0.  1.
         24    2    1    2    0    0 -0.40899833817E+02 -0.17272474012E+02 -0.15558213319E+03  0.18041859815E+03  0.79836931451E+02 0.  0.
         25    2    1    2    0    0  0.74735477233E+02  0.53682452490E+02 -0.18387856122E+02  0.15637422001E+03  0.12509031205E+03 0.  0.
        -24    2    1    2    0    0 -0.33835643417E+02 -0.36409978478E+02  0.87797003139E+03  0.88303040448E+03  0.80254482262E+02 0.  0.
        -11    1    3    3    0    0 -0.57033829763E+02 -0.14507676040E+02 -0.62259864268E+02  0.85671588640E+02  0.00000000000E+00 0.  1.
         12    1    3    3    0    0  0.16133995946E+02 -0.27647979728E+01 -0.93322268926E+02  0.94747009507E+02  0.00000000000E+00 0. -1.
         11    1    5    5    0    0 -0.37919941302E+02  0.15279756123E+02  0.30685060604E+03  0.30956208961E+03  0.00000000000E+00 0. -1.
        -12    1    5    5    0    0  0.40842978855E+01 -0.51689734601E+02  0.57111942535E+03  0.57346831488E+03  0.00000000000E+00 0.  1.
          5    1    4    4  501    0 -0.27109596874E+00  0.27956286158E+02 -0.60291833138E+02  0.66589826339E+02  0.41800000000E+01 0. -1.
         -5    1    4    4    0  501  0.75006573202E+02  0.25726166332E+02  0.41903977016E+02  0.89784393674E+02  0.41800000000E+01 0. -1.
</event>
<event>
11    1  0.1002087E-008  0.1398249E+03  0.7561462E-02  0.1107754E+00
         22   -1    0    0    0    0  0.00000000000E+00  0.00000000000E+00  0.16654590056E+04  0.16654590056E+04  0.00000000000E+00 0.  1.
         22   -1    0    0    0    0 -0.00000000000E+00 -0.00000000000E+00 -0.76675538063E+02  0.76675538063E+02  0.00000000000E+00 0.  1.
        -24    2    1    2    0    0  0.47803624483E+02  0.16844431623E+02 -0.25061949712E+02  0.10264119779E+03  0.85663252152E+02 0.  0.
         25    2    1    2    0    0 -0.62780255054E+02  0.44024554905E+02  0.50541539804E+03  0.52628126296E+03  0.12509085224E+03 0.  0.
         24    2    1    2    0    0  0.14976630571E+02 -0.60868986528E+02  0.11084300192E+04  0.11132120829E+04  0.81821152941E+02 0.  0.
        -13    1    5    5    0    0 -0.32857796118E+02 -0.37338138546E+02  0.54776647020E+03  0.55001988804E+03  0.00000000000E+00 0.  1.
         14    1    5    5    0    0  0.47834426689E+02 -0.23530847982E+02  0.56066354900E+03  0.56319219487E+03  0.00000000000E+00 0. -1.
         11    1    3    3    0    0 -0.47460946718E+01  0.39979231073E+02 -0.69005513638E+00  0.40265872745E+02  0.00000000000E+00 0. -1.
        -12    1    3    3    0    0  0.52549719155E+02 -0.23134799450E+02 -0.24371894576E+02  0.62375325041E+02  0.00000000000E+00 0.  1.
          5    1    4    4  501    0 -0.51449042778E+01 -0.24631423568E+02  0.19390363733E+02  0.32041155921E+02  0.41800000000E+01 0. -1.
         -5    1    4    4    0  501 -0.57635350776E+02  0.68655978474E+02  0.48602503430E+03  0.49424010704E+03  0.41800000000E+01 0. -1.
</event>
<event>
11    1  0.1002087E-008  0.2364257E+03  0.7561462E-02  0.1031390E+00
         22   -1    0    0    0    0  0.00000000000E+00  0.00000000000E+00  0.19202170049E+04  0.19202170049E+04  0.00000000000E+00 0. -1.
         22   -1    0    0    0    0 -0.00000000000E+00 -0.00000000000E+00 -0.61403375462E+02  0.61403375462E+02  0.00000000000E+00 0.  1.
        -24    2    1    2    0    0 -0.12582521829E+03 -0.18413341692E+02  0.39650647788E+03  0.42394057894E+03  0.79606474351E+02 0.  0.
         25    2    1    2    0    0  0.23389986208E+03 -0.13197344770E+03  0.56414689605E+03  0.63721080843E+03  0.12509899150E+03 0.  0.
         24    2    1    2    0    0 -0.10807464379E+03  0.15038678939E+03  0.89816025552E+03  0.92046899301E+03  0.79214944580E+02 0.  0.
        -13    1    5    5    0    0  0.67467648508E+01  0.51063604833E+01  0.13112599123E+03  0.13139870369E+03  0.00000000000E+00 0.  1.
         14    1    5    5    0    0 -0.11482140864E+03  0.14528042891E+03  0.76703426429E+03  0.78907028933E+03  0.00000000000E+00 0. -1.
         11    1    3    3    0    0 -0.57483566169E+02 -0.48305754315E+02  0.21335084686E+03  0.22617778435E+03  0.00000000000E+00 0. -1.
        -12    1    3    3    0    0 -0.68341652119E+02  0.29892412623E+02  0.18315563103E+03  0.19776279459E+03  0.00000000000E+00 0.  1.
          5    1    4    4  501    0 -0.28742548207E+01 -0.20927385582E+02  0.86276706057E+01  0.23197540994E+02  0.41800000000E+01 0. -1.
         -5    1    4    4    0  501  0.23677411690E+03 -0.11104606211E+03  0.55551922545E+03  0.61401326743E+03  0.41800000000E+01 0. -1.
</event>
<event>
11    1  0.1002087E-008  0.1573766E+03  0.7561462E-02  0.1089571E+00
         22   -1    0    0    0    0  0.00000000000E+00  0.00000000000E+00  0.17442547873E+04  0.17442547873E+04  0.00000000000E+00 0.  1.
         22   -1    0    0    0    0 -0.00000000000E+00 -0.00000000000E+00 -0.79619780681E+03  0.79619780681E+03  0.00000000000E+00 0. -1.
         24    2    1    2    0    0 -0.88412009880E+02 -0.35658316976E+02 -0.77065227861E+03  0.78068482671E+03  0.80471517087E+02 0.  0.
         25    2    1    2    0    0  0.11205097912E+03  0.86249002941E+01  0.34988436533E+03  0.38819793676E+03  0.12509499663E+03 0.  0.
        -24    2    1    2    0    0 -0.23638969242E+02  0.27033416682E+02  0.13688248937E+04  0.13715698306E+04  0.78946842816E+02 0.  0.
        -13    1    3    3    0    0 -0.38587861455E+02 -0.57680288664E+02 -0.38505232815E+03  0.39125609793E+03  0.00000000000E+00 0.  1.
         14    1    3    3    0    0 -0.49824148425E+02  0.22021971688E+02 -0.38559995046E+03  0.38942872878E+03  0.00000000000E+00 0. -1.
         13    1    5    5    0    0 -0.10820606211E+02  0.49791172365E+01  0.27096157954E+02  0.29598630089E+02  0.00000000000E+00 0. -1.
        -14    1    5    5    0    0 -0.12818363031E+02  0.22054299445E+02  0.13417287358E+04  0.13419712005E+04  0.00000000000E+00 0.  1.
          5    1    4    4  501    0  0.54807008144E+02  0.48545163811E+02  0.76326414706E+02  0.10584722506E+03  0.41800000000E+01 0.  1.
         -5    1    4    4    0  501  0.57243970978E+02 -0.39920263517E+02  0.27355795062E+03  0.28235071170E+03  0.41800000000E+01 0.  1.
</event>
<event>
11    1  0.1002087E-008  0.1384491E+03  0.7561462E-02  0.1109303E+00
         22   -1    0    0    0    0  0.00000000000E+00  0.00000000000E+00  0.20181001570E+04  0.20181001570E+04  0.00000000000E+00 0.  1.
         22   -1    0    0    0    0 -0.00000000000E+00 -0.00000000000E+00 -0.79246834187E+03  0.79246834187E+03  0.00000000000E+00 0. -1.
         24    2    1    2    0    0  0.20324148895E+02  0.55083404927E+02 -0.76222811758E+03  0.76860472670E+03  0.79462381933E+02 0.  0.
         25    2    1    2    0    0 -0.50731578765E+02 -0.10236253839E+03  0.25383206822E+03  0.30517258680E+03  0.12509119283E+03 0.  0.
        -24    2    1    2    0    0  0.30407429869E+02  0.47279133460E+02  0.17340278645E+04  0.17367911854E+04  0.80193880974E+02 0.  0.
        -11    1    3    3    0    0 -0.12523944721E+02 -0.15382383530E+02 -0.11173569333E+03  0.11348273912E+03  0.00000000000E+00 0.  1.
         12    1    3    3    0    0  0.32848093616E+02  0.70465788457E+02 -0.65049242425E+03  0.65512198757E+03  0.00000000000E+00 0. -1.
         13    1    5    5    0    0 -0.12204074073E+01  0.64641290715E+01  0.98761249501E+01  0.11866431769E+02  0.00000000000E+00 0. -1.
        -14    1    5    5    0    0  0.31627837277E+02  0.40815004389E+02  0.17241517395E+04  0.17249247536E+04  0.00000000000E+00 0.  1.
          5    1    4    4  501    0 -0.46805592804E+02 -0.53861680973E+02  0.32508693073E+02  0.78524720440E+02  0.41800000000E+01 0.  1.
         -5    1    4    4    0  501 -0.39259859604E+01 -0.48500857414E+02  0.22132337515E+03  0.22664786635E+03  0.41800000000E+01 0.  1.
</event>
<event>
11    1  0.1002087E-008  0.3887800E+03  0.7561462E-02  0.9683456E-01
         22   -1    0    0    0    0  0.00000000000E+00  0.00000000000E+00  0.21016014647E+04  0.21016014647E+04  0.00000000000E+00 0. -1.
         22   -1    0    0    0    0 -0.00000000000E+00 -0.00000000000E+00 -0.10894159588E+03  0.10894159588E+03  0.00000000000E+00 0.  1.
         24    2    1    2    0    0 -0.62631537909E+02 -0.74659329756E+02  0.89777650622E+02  0.15509233949E+03  0.80603239112E+02 0.  0.
         25    2    1    2    0    0  0.79886737156E+02  0.40818478092E+03  0.10367530042E+04  0.11240549454E+04  0.12508406176E+03 0.  0.
        -24    2    1    2    0    0 -0.17255199248E+02 -0.33352545116E+03  0.86612921403E+03  0.93139577569E+03  0.76034907118E+02 0.  0.
        -13    1    3    3    0    0 -0.77390006447E+02 -0.62335330536E+02  0.92392210855E+02  0.13568797720E+03  0.00000000000E+00 0.  1.
         14    1    3    3    0    0  0.14758468538E+02 -0.12323999220E+02 -0.26145602328E+01  0.19404362282E+02  0.00000000000E+00 0. -1.
         13    1    5    5    0    0 -0.40965577610E+02 -0.26465172171E+03  0.71821026212E+03  0.76651463976E+03  0.00000000000E+00 0. -1.
        -14    1    5    5    0    0  0.23710378362E+02 -0.68873729450E+02  0.14791895191E+03  0.16488113592E+03  0.00000000000E+00 0.  1.
          5    1    4    4  501    0  0.91906403835E+02  0.16072211543E+03  0.48769918679E+03  0.52167648466E+03  0.41800000000E+01 0.  1.
         -5    1    4    4    0  501 -0.12019666678E+02  0.24746266549E+03  0.54905381738E+03  0.60237846075E+03  0.41800000000E+01 0.  1.
</event>
<event>
11    1  0.1002087E-008  0.1268670E+03  0.7561462E-02  0.1123179E+00
         22   -1    0    0    0    0  0.00000000000E+00  0.00000000000E+00  0.31806265406E+03  0.31806265406E+03  0.00000000000E+00 0. -1.
         22   -1    0    0    0    0 -0.00000000000E+00 -0.00000000000E+00 -0.34577467387E+03  0.34577467387E+03  0.00000000000E+00 0.  1.
         24    2    1    2    0    0 -0.38103645471E+01  0.91762422962E+01 -0.30522069052E+03  0.31552359503E+03  0.79352043462E+02 0.  0.
         25    2    1    2    0    0 -0.17664911521E+02  0.11312446796E+01  0.15946648605E+03  0.20344582365E+03  0.12508922485E+03 0.  0.
        -24    2    1    2    0    0  0.21475276068E+02 -0.10307486976E+02  0.11804218467E+03  0.14486790925E+03  0.80531496933E+02 0.  0.
        -11    1    3    3    0    0 -0.10417142059E+02  0.17983345095E+02 -0.30369890793E+03  0.30440917237E+03  0.00000000000E+00 0.  1.
         12    1    3    3    0    0  0.66067775124E+01 -0.88071027986E+01 -0.15217825919E+01  0.11114422660E+02  0.00000000000E+00 0. -1.
         13    1    5    5    0    0  0.31889990116E+02  0.27979837496E+02  0.45685019508E+02  0.62345519353E+02  0.00000000000E+00 0. -1.
        -14    1    5    5    0    0 -0.10414714048E+02 -0.38287324471E+02  0.72357165158E+02  0.82522389893E+02  0.00000000000E+00 0.  1.
          5    1    4    4  501    0 -0.53060790696E+02  0.21670869401E+02  0.15083738801E+03  0.16141395266E+03  0.41800000000E+01 0.  1.
         -5    1    4    4    0  501  0.35395879175E+02 -0.20539624721E+02  0.86290980356E+01  0.42031870993E+02  0.41800000000E+01 0.  1.
</event>
<event>
11    1  0.1002087E-008  0.2555339E+03  0.7561462E-02  0.1020992E+00
         22   -1    0    0    0    0  0.00000000000E+00  0.00000000000E+00  0.87423536707E+03  0.87423536707E+03  0.00000000000E+00 0.  1.
         22   -1    0    0    0    0 -0.00000000000E+00 -0.00000000000E+00 -0.14145925001E+04  0.14145925001E+04  0.00000000000E+00 0.  1.
        -24    2    1    2    0    0 -0.33020969327E+02  0.52431385996E+01 -0.13140813190E+04  0.13168582518E+04  0.78664269935E+02 0.  0.
         25    2    1    2    0    0 -0.10764930617E+03  0.17418121661E+03  0.10657641871E+03  0.26255198405E+03  0.12509013537E+03 0.  0.
         24    2    1    2    0    0  0.14067027549E+03 -0.17942435521E+03  0.66714776729E+03  0.70941763134E+03  0.78778211523E+02 0.  0.
        -13    1    5    5    0    0  0.11040510459E+03 -0.10266023920E+03  0.33823525016E+03  0.37031270068E+03  0.00000000000E+00 0.  1.
         14    1    5    5    0    0  0.30265170900E+02 -0.76764116009E+02  0.32891251713E+03  0.33910493066E+03  0.00000000000E+00 0. -1.
         11    1    3    3    0    0 -0.31966361616E+02 -0.13837149826E+02 -0.23128109500E+03  0.23388941809E+03  0.00000000000E+00 0. -1.
        -12    1    3    3    0    0 -0.10546077108E+01  0.19080288426E+02 -0.10828002240E+04  0.10829688337E+04  0.00000000000E+00 0.  1.
          5    1    4    4  501    0 -0.50275722520E+02  0.86154015843E+02  0.12049020246E+03  0.15647850974E+03  0.41800000000E+01 0.  1.
         -5    1    4    4    0  501 -0.57373583647E+02  0.88027200767E+02 -0.13913783750E+02  0.10607347432E+03  0.41800000000E+01 0.  1.
</event>
<event>
11    1  0.1002087E-008  0.1440144E+03  0.7561462E-02  0.1103157E+00
         22   -1    0    0    0    0  0.00000000000E+00  0.00000000000E+00  0.70929285899E+03  0.70929285899E+03  0.00000000000E+00 0.  1.
         22   -1    0    0    0    0 -0.00000000000E+00 -0.00000000000E+00 -0.11754018131E+04  0.11754018131E+04  0.00000000000E+00 0. -1.
        -24    2    1    2    0    0 -0.68661150447E+02  0.20202115055E+02 -0.11168628464E+04  0.11220108282E+04  0.80020009779E+02 0.  0.
         25    2    1    2    0    0  0.67083868100E+02 -0.24076734860E+01  0.40887290566E+02  0.14771631162E+03  0.12506916461E+03 0.  0.
         24    2    1    2    0    0  0.15772823474E+01 -0.17794441569E+02  0.60986660170E+03  0.61496753228E+03  0.76997817642E+02 0.  0.
        -13    1    5    5    0    0 -0.22144213907E+02 -0.27955347009E+02  0.52630368695E+03  0.52751060514E+03  0.00000000000E+00 0.  1.
         14    1    5    5    0    0  0.23721496254E+02  0.10160905440E+02  0.83562914741E+02  0.87456927135E+02  0.00000000000E+00 0. -1.
         11    1    3    3    0    0 -0.83938384497E+02  0.18144059623E+02 -0.76398170747E+03  0.76879315075E+03  0.00000000000E+00 0. -1.
        -12    1    3    3    0    0  0.15277234050E+02  0.20580554313E+01 -0.35288113890E+03  0.35321767745E+03  0.00000000000E+00 0.  1.
          5    1    4    4  501    0  0.66583020416E+02 -0.50396968512E+02 -0.13909014616E+01  0.83621528626E+02  0.41800000000E+01 0. -1.
         -5    1    4    4    0  501  0.50084768379E+00  0.47989295026E+02  0.42278192028E+02  0.64094782991E+02  0.41800000000E+01 0. -1.
</event>
<event>
11    1  0.1002087E-008  0.6257646E+03  0.7561462E-02  0.9149474E-01
         22   -1    0    0    0    0  0.00000000000E+00  0.00000000000E+00  0.54924476064E+03  0.54924476064E+03  0.00000000000E+00 0. -1.
         22   -1    0    0    0    0 -0.00000000000E+00 -0.00000000000E+00 -0.13163543250E+04  0.13163543250E+04  0.00000000000E+00 0. -1.
         24    2    1    2    0    0  0.50419444282E+03 -0.49814202960E+02 -0.19495294593E+03  0.54879320397E+03  0.80460167827E+02 0.  0.
         25    2    1    2    0    0 -0.65952137145E+03  0.36228987929E+03 -0.58058798955E+03  0.95862013182E+03  0.12509095683E+03 0.  0.
        -24    2    1    2    0    0  0.15532692863E+03 -0.31247567633E+03  0.84313710906E+01  0.35818574988E+03  0.80364422116E+02 0.  0.
        -13    1    3    3    0    0  0.38782019147E+03 -0.70181729138E+02 -0.13745451907E+03  0.41740115097E+03  0.00000000000E+00 0.  1.
         14    1    3    3    0    0  0.11637425135E+03  0.20367526177E+02 -0.57498426866E+02  0.13139205300E+03  0.00000000000E+00 0. -1.
         11    1    5    5    0    0  0.11249232122E+03 -0.18153109718E+03 -0.28742953327E+02  0.21548600637E+03  0.00000000000E+00 0. -1.
        -12    1    5    5    0    0  0.42834607416E+02 -0.13094457915E+03  0.37174324418E+02  0.14269974351E+03  0.00000000000E+00 0.  1.
          5    1    4    4  501    0 -0.54321442056E+03  0.34863174001E+03 -0.49802736085E+03  0.81527585601E+03  0.41800000000E+01 0. -1.
         -5    1    4    4    0  501 -0.11630695090E+03  0.13658139284E+02 -0.82560628707E+02  0.14334427581E+03  0.41800000000E+01 0. -1.
</event>
<event>
11    1  0.1002087E-008  0.1511956E+03  0.7561462E-02  0.1095663E+00
         22   -1    0    0    0    0  0.00000000000E+00  0.00000000000E+00  0.12703828381E+04  0.12703828381E+04  0.00000000000E+00 0. -1.
         22   -1    0    0    0    0 -0.00000000000E+00 -0.00000000000E+00 -0.22804732280E+03  0.22804732280E+03  0.00000000000E+00 0.  1.
        -24    2    1    2    0    0  0.37251017385E+02  0.71823373961E+02 -0.13752684585E+03  0.17941080728E+03  0.82026636505E+02 0.  0.
         25    2    1    2    0    0 -0.31115080383E+02 -0.10034143373E+03  0.30175120271E+02  0.16611635997E+03  0.12509018993E+03 0.  0.
         24    2    1    2    0    0 -0.61359370028E+01  0.28518059769E+02  0.11496872409E+04  0.11529029937E+04  0.80954502377E+02 0.  0.
        -11    1    5    5    0    0 -0.37017212106E+02  0.19352881506E+02  0.33718724578E+03  0.33976469317E+03  0.00000000000E+00 0.  1.
         12    1    5    5    0    0  0.30881275103E+02  0.91651782629E+01  0.81249999512E+03  0.81313830049E+03  0.00000000000E+00 0. -1.
         11    1    3    3    0    0 -0.15766288046E+02 -0.92988297440E+01 -0.22086548568E+02  0.28685531213E+02  0.00000000000E+00 0. -1.
        -12    1    3    3    0    0  0.53017305431E+02  0.81122203705E+02 -0.11544029729E+03  0.15072527607E+03  0.00000000000E+00 0.  1.
          5    1    4    4  501    0 -0.65071016658E+02 -0.10359377845E+03  0.42547800270E+02  0.12959049290E+03  0.41800000000E+01 0. -1.
         -5    1    4    4    0  501  0.33955936275E+02  0.32523447243E+01 -0.12372680000E+02  0.36525867066E+02  0.41800000000E+01 0. -1.
</event>
<event>
11    1  0.1002087E-008  0.1359990E+03  0.7561462E-02  0.1112110E+00
         22   -1    0    0    0    0  0.00000000000E+00  0.00000000000E+00  0.19200883069E+04  0.19200883069E+04  0.00000000000E+00 0.  1.
         22   -1    0    0    0    0 -0.00000000000E+00 -0.00000000000E+00 -0.15650752510E+03  0.15650752510E+03  0.00000000000E+00 0. -1.
         24    2    1    2    0    0 -0.66500294276E+01 -0.24438404292E+02 -0.11620016076E+03  0.14306703547E+03  0.79525095301E+02 0.  0.
         25    2    1    2    0    0  0.81137003141E+01 -0.30133847338E+02  0.13737005549E+03  0.18839427539E+03  0.12509192606E+03 0.  0.
        -24    2    1    2    0    0 -0.14636708866E+01  0.54572251630E+02  0.17424108870E+04  0.17451345211E+04  0.80737380044E+02 0.  0.
        -13    1    3    3    0    0  0.44298676290E+01 -0.28320310266E+02 -0.25122674148E+01  0.28774558004E+02  0.00000000000E+00 0.  1.
         14    1    3    3    0    0 -0.11079897057E+02  0.38819059741E+01 -0.11368789334E+03  0.11429247747E+03  0.00000000000E+00 0. -1.
         13    1    5    5    0    0 -0.19843015584E+02 -0.12322822199E+02  0.24312379457E+03  0.24424327360E+03  0.00000000000E+00 0. -1.
        -14    1    5    5    0    0  0.18379344697E+02  0.66895073828E+02  0.14992870925E+04  0.15008912475E+04  0.00000000000E+00 0.  1.
          5    1    4    4  501    0  0.63160973177E+02  0.51950322791E+00  0.50381618333E+02  0.80903388570E+02  0.41800000000E+01 0. -1.
         -5    1    4    4    0  501 -0.55047272862E+02 -0.30653350566E+02  0.86988437155E+02  0.10749088682E+03  0.41800000000E+01 0. -1.
</event>
<event>
11    1  0.1051701E-008  0.1996821E+03  0.7561462E-02  0.1054749E+00
         22   -1    0    0    0    0  0.00000000000E+00  0.00000000000E+00  0.12686313602E+04  0.12686313602E+04  0.00000000000E+00 0. -1.
         22   -1    0    0    0    0 -0.00000000000E+00 -0.00000000000E+00 -0.27432063100E+03  0.27432063100E+03  0.00000000000E+00 0.  1.
         24    2    1    2    0    0 -0.35385918287E+02  0.17485917212E+02 -0.16462430068E+03  0.18786926457E+03  0.81460295112E+02 0.  0.
         25    2    1    2    0    0 -0.10750013944E+03  0.50793882139E+02 -0.98035327259E+01  0.17285548338E+03  0.12508641188E+03 0.  0.
        -24    2    1    2    0    0  0.14288605772E+03 -0.68279799350E+02  0.11687385626E+04  0.11822272433E+04  0.81442436623E+02 0.  0.
        -13    1    3    3    0    0  0.49985007912E+01  0.10922596658E+00 -0.13445776676E+03  0.13455068927E+03  0.00000000000E+00 0.  1.
         14    1    3    3    0    0 -0.40384419078E+02  0.17376691245E+02 -0.30166533922E+02  0.53318575298E+02  0.00000000000E+00 0. -1.
         11    1    5    5    0    0  0.10213859839E+03 -0.53587790346E+02  0.10404433538E+04  0.10468172319E+04  0.00000000000E+00 0. -1.
        -12    1    5    5    0    0  0.40747459340E+02 -0.14692009004E+02  0.12829520886E+03  0.13541001140E+03  0.00000000000E+00 0.  1.
          5    1    4    4  501    0 -0.10284032550E+03  0.45797053006E+02 -0.56114957393E+02  0.12585651933E+03  0.41800000000E+01 0.  1.
         -5    1    4    4    0  501 -0.46598139357E+01  0.49968291326E+01  0.46311424667E+02  0.46998964052E+02  0.41800000000E+01 0.  1.
</event>
<event>
11    1  0.1002087E-008  0.1506429E+03  0.7561462E-02  0.1096224E+00
         22   -1    0    0    0    0  0.00000000000E+00  0.00000000000E+00  0.83128781578E+03  0.83128781578E+03  0.00000000000E+00 0.  1.
         22   -1    0    0    0    0 -0.00000000000E+00 -0.00000000000E+00 -0.93661731557E+02  0.93661731557E+02  0.00000000000E+00 0. -1.
        -24    2    1    2    0    0  0.13306009594E+02  0.26585347679E+02 -0.19856857720E+02  0.87946299278E+02  0.80351889559E+02 0.  0.
         25    2    1    2    0    0 -0.74703937695E+02  0.32294776038E+02  0.12788477620E+03  0.19652749724E+03  0.12507961594E+03 0.  0.
         24    2    1    2    0    0  0.61397928101E+02 -0.58880123717E+02  0.62959816575E+03  0.64047575082E+03  0.81109571127E+02 0.  0.
        -11    1    5    5    0    0  0.42874446138E+02 -0.72467244713E+02  0.35207766139E+03  0.36200607638E+03  0.00000000000E+00 0.  1.
         12    1    5    5    0    0  0.18523481963E+02  0.13587120996E+02  0.27752050436E+03  0.27846967443E+03  0.00000000000E+00 0. -1.
         11    1    3    3    0    0  0.21211555559E+02  0.40639496702E+02 -0.40899961305E+02  0.61435377562E+02  0.00000000000E+00 0. -1.
        -12    1    3    3    0    0 -0.79055459646E+01 -0.14054149023E+02  0.21043103585E+02  0.26510921717E+02  0.00000000000E+00 0.  1.
          5    1    4    4  501    0 -0.94118248845E+02  0.29236287123E+02  0.40116504349E+02  0.10648855136E+03  0.41800000000E+01 0.  1.
         -5    1    4    4    0  501  0.19414311150E+02  0.30584889152E+01  0.87768271848E+02  0.90038945880E+02  0.41800000000E+01 0.  1.
</event>
<event>
11    1  0.1002087E-008  0.1480183E+03  0.7561462E-02  0.1098921E+00
         22   -1    0    0    0    0  0.00000000000E+00  0.00000000000E+00  0.16080443654E+04  0.16080443654E+04  0.00000000000E+00 0. -1.
         22   -1    0    0    0    0 -0.00000000000E+00 -0.00000000000E+00 -0.13427069244E+03  0.13427069244E+03  0.00000000000E+00 0.  1.
        -24    2    1    2    0    0 -0.68161787825E+02  0.23089669444E+02 -0.58305421006E+02  0.12264826996E+03  0.80398469210E+02 0.  0.
         25    2    1    2    0    0  0.12178790376E+03 -0.10800579543E+02  0.13974712565E+03  0.22388901539E+03  0.12509231017E+03 0.  0.
         24    2    1    2    0    0 -0.53626115940E+02 -0.12289089901E+02  0.13923319683E+04  0.13957777725E+04  0.81120269457E+02 0.  0.
        -13    1    5    5    0    0 -0.56912747235E+00 -0.15473891104E+02  0.48862938426E+02  0.51257701505E+02  0.00000000000E+00 0.  1.
         14    1    5    5    0    0 -0.53056988468E+02  0.31848012029E+01  0.13434690299E+04  0.13445200710E+04  0.00000000000E+00 0. -1.
         13    1    3    3    0    0 -0.14235720568E+01  0.27574988928E+02 -0.47429085238E+02  0.54881004895E+02  0.00000000000E+00 0. -1.
        -14    1    3    3    0    0 -0.66738215768E+02 -0.44853194844E+01 -0.10876335768E+02  0.67767265066E+02  0.00000000000E+00 0.  1.
          5    1    4    4  501    0 -0.10627605400E+02 -0.13687781534E+02  0.73706355318E+02  0.75831395702E+02  0.41800000000E+01 0.  1.
         -5    1    4    4    0  501  0.13241550916E+03  0.28872019909E+01  0.66040770332E+02  0.14805761969E+03  0.41800000000E+01 0.  1.
</event>
<event>
11    1  0.1002087E-008  0.1475911E+03  0.7561462E-02  0.1099366E+00
         22   -1    0    0    0    0  0.00000000000E+00  0.00000000000E+00  0.38372578063E+03  0.38372578063E+03  0.00000000000E+00 0. -1.
         22   -1    0    0    0    0 -0.00000000000E+00 -0.00000000000E+00 -0.56884305823E+03  0.56884305823E+03  0.00000000000E+00 0.  1.
         24    2    1    2    0    0  0.12668618199E+01  0.27640032100E+02 -0.35317095347E+03  0.36329556235E+03  0.80550399969E+02 0.  0.
         25    2    1    2    0    0  0.51726813812E+02  0.31307219494E+02 -0.17737650760E+03  0.22531320119E+03  0.12509119843E+03 0.  0.
        -24    2    1    2    0    0 -0.52993675632E+02 -0.58947251594E+02  0.34543018347E+03  0.36396007532E+03  0.82836083022E+02 0.  0.
        -11    1    3    3    0    0  0.78113686773E+01 -0.16945480289E+02 -0.25021167362E+03  0.25090645348E+03  0.00000000000E+00 0.  1.
         12    1    3    3    0    0 -0.65445068574E+01  0.44585512390E+02 -0.10295927984E+03  0.11238910886E+03  0.00000000000E+00 0. -1.
         13    1    5    5    0    0 -0.19391566328E+02  0.17991362609E+01  0.21782405651E+03  0.21869291102E+03  0.00000000000E+00 0. -1.
        -14    1    5    5    0    0 -0.33602109304E+02 -0.60746387855E+02  0.12760612696E+03  0.14526716430E+03  0.00000000000E+00 0.  1.
          5    1    4    4  501    0  0.62925115954E+02  0.68889150009E+02 -0.15205319023E+03  0.17844587489E+03  0.41800000000E+01 0. -1.
         -5    1    4    4    0  501 -0.11198302142E+02 -0.37581930515E+02 -0.25323317373E+02  0.46867326304E+02  0.41800000000E+01 0. -1.
</event>
<event>
11    1  0.1002087E-008  0.1477499E+03  0.7561462E-02  0.1099200E+00
         22   -1    0    0    0    0  0.00000000000E+00  0.00000000000E+00  0.51193978507E+03  0.51193978507E+03  0.00000000000E+00 0. -1.
         22   -1    0    0    0    0 -0.00000000000E+00 -0.00000000000E+00 -0.11823412602E+03  0.11823412602E+03  0.00000000000E+00 0.  1.
        -24    2    1    2    0    0  0.21152157323E+02 -0.85149377772E+01 -0.13538180113E+02  0.87210479189E+02  0.83081089514E+02 0.  0.
         25    2    1    2    0    0 -0.26773975713E+02 -0.70721393427E+02  0.30023953845E+02  0.14922272204E+03  0.12509045409E+03 0.  0.
         24    2    1    2    0    0  0.56218183899E+01  0.79236331204E+02  0.37721988532E+03  0.39374070987E+03  0.80167971774E+02 0.  0.
        -13    1    5    5    0    0  0.37222557449E+01  0.26017436228E+02  0.21218697878E+02  0.33778622165E+02  0.00000000000E+00 0.  1.
         14    1    5    5    0    0  0.18995626450E+01  0.53218894977E+02  0.35600118744E+03  0.35996208770E+03  0.00000000000E+00 0. -1.
         11    1    3    3    0    0  0.90715855749E+01 -0.23826549869E+02  0.30079665081E+02  0.39430754430E+02  0.00000000000E+00 0. -1.
        -12    1    3    3    0    0  0.12080571748E+02  0.15311612092E+02 -0.43617845195E+02  0.47779724759E+02  0.00000000000E+00 0.  1.
          5    1    4    4  501    0 -0.39635297728E+02 -0.10249112113E+03  0.13023194799E+02  0.11073600471E+03  0.41800000000E+01 0.  1.
         -5    1    4    4    0  501  0.12861322014E+02  0.31769727704E+02  0.17000759046E+02  0.38486717325E+02  0.41800000000E+01 0.  1.
</event>
<event>
11    1  0.1002087E-008  0.1362719E+03  0.7561462E-02  0.1111794E+00
         22   -1    0    0    0    0  0.00000000000E+00  0.00000000000E+00  0.88425991303E+03  0.88425991303E+03  0.00000000000E+00 0.  1.
         22   -1    0    0    0    0 -0.00000000000E+00 -0.00000000000E+00 -0.96668996710E+03  0.96668996710E+03  0.00000000000E+00 0.  1.
         24    2    1    2    0    0  0.39373715515E+02 -0.38677636731E+02 -0.91966434681E+03  0.92485773980E+03  0.80827464512E+02 0.  0.
         25    2    1    2    0    0 -0.27666456346E+02 -0.14212582217E+02  0.58909074829E+02  0.14172548834E+03  0.12509358356E+03 0.  0.
        -24    2    1    2    0    0 -0.11707259169E+02  0.52890218948E+02  0.77832521790E+03  0.78436665199E+03  0.80662660179E+02 0.  0.
        -11    1    3    3    0    0  0.18134504796E+02 -0.61246237588E+02 -0.50241958016E+03  0.50646361805E+03  0.00000000000E+00 0.  1.
         12    1    3    3    0    0  0.21239210719E+02  0.22568600857E+02 -0.41724476665E+03  0.41839412175E+03  0.00000000000E+00 0. -1.
         11    1    5    5    0    0 -0.30263581329E+02 -0.97739408651E+01  0.25940941244E+03  0.26135159754E+03  0.00000000000E+00 0. -1.
        -12    1    5    5    0    0  0.18556322160E+02  0.62664159813E+02  0.51891580547E+03  0.52301505445E+03  0.00000000000E+00 0.  1.
          5    1    4    4  501    0  0.49094533187E+02 -0.12795039200E+02  0.14486718771E+02  0.52927531945E+02  0.41800000000E+01 0.  1.
         -5    1    4    4    0  501 -0.76760989534E+02 -0.14175430167E+01  0.44422356058E+02  0.88797956396E+02  0.41800000000E+01 0.  1.
</event>
<event>
11    1  0.1002087E-008  0.1425569E+03  0.7561462E-02  0.1104736E+00
         22   -1    0    0    0    0  0.00000000000E+00  0.00000000000E+00  0.20786135222E+04  0.20786135222E+04  0.00000000000E+00 0.  1.
         22   -1    0    0    0    0 -0.00000000000E+00 -0.00000000000E+00 -0.94092203981E+03  0.94092203981E+03  0.00000000000E+00 0.  1.
        -24    2    1    2    0    0 -0.38629041051E+02 -0.33878659726E+02 -0.90781550246E+03  0.91278766081E+03  0.80077217932E+02 0.  0.
         25    2    1    2    0    0 -0.17535852776E+02 -0.91741480427E+01  0.10818019315E+03  0.16656014670E+03  0.12509059579E+03 0.  0.
         24    2    1    2    0    0  0.56164893826E+02  0.43052807769E+02  0.19373267917E+04  0.19401877545E+04  0.78008879673E+02 0.  0.
        -11    1    5    5    0    0  0.27796349963E+02 -0.16343636364E+02  0.10165154764E+04  0.10170267771E+04  0.00000000000E+00 0.  1.
         12    1    5    5    0    0  0.28368543864E+02  0.59396444132E+02  0.92081131531E+03  0.92316097744E+03  0.00000000000E+00 0. -1.
         13    1    3    3    0    0 -0.13654576628E+01 -0.47559102252E+02 -0.30728341988E+03  0.31094506398E+03  0.00000000000E+00 0. -1.
        -14    1    3    3    0    0 -0.37263583388E+02  0.13680442526E+02 -0.60053208257E+03  0.60184259683E+03  0.00000000000E+00 0.  1.
          5    1    4    4  501    0 -0.18744610106E+02 -0.33937947172E+02  0.12846595535E+03  0.13425393384E+03  0.41800000000E+01 0. -1.
         -5    1    4    4    0  501  0.12087573303E+01  0.24763799129E+02 -0.20285762202E+02  0.32306212866E+02  0.41800000000E+01 0. -1.
</event>
<event>
11    1  0.1002087E-008  0.1836354E+03  0.7561462E-02  0.1066740E+00
         22   -1    0    0    0    0  0.00000000000E+00  0.00000000000E+00  0.87897121675E+02  0.87897121675E+02  0.00000000000E+00 0.  1.
         22   -1    0    0    0    0 -0.00000000000E+00 -0.00000000000E+00 -0.93501149221E+03  0.93501149221E+03  0.00000000000E+00 0. -1.
         24    2    1    2    0    0 -0.39382754506E+02 -0.42058173479E+02 -0.29720679015E+03  0.31361387882E+03  0.81865118152E+02 0.  0.
         25    2    1    2    0    0  0.16345362430E+03  0.69144609692E+02 -0.50986853740E+03  0.55417618884E+03  0.12508900234E+03 0.  0.
        -24    2    1    2    0    0 -0.12407086980E+03 -0.27086436213E+02 -0.40039042987E+02  0.15511854622E+03  0.79569985913E+02 0.  0.
        -11    1    3    3    0    0 -0.17808377294E+00 -0.43171103666E+02 -0.64432217915E+02  0.77558278804E+02  0.00000000000E+00 0.  1.
         12    1    3    3    0    0 -0.39204670733E+02  0.11129301879E+01 -0.23277457224E+03  0.23605560002E+03  0.00000000000E+00 0. -1.
         13    1    5    5    0    0 -0.36369190492E+02  0.10950556751E+02 -0.45618862967E+02  0.59360874056E+02  0.00000000000E+00 0. -1.
        -14    1    5    5    0    0 -0.87701679306E+02 -0.38036992965E+02  0.55798199809E+01  0.95757672162E+02  0.00000000000E+00 0.  1.
          5    1    4    4  501    0  0.17225751532E+02  0.32065245232E+02 -0.25775532473E+03  0.26034628151E+03  0.41800000000E+01 0. -1.
         -5    1    4    4    0  501  0.14622787277E+03  0.37079364460E+02 -0.25211321266E+03  0.29382990733E+03  0.41800000000E+01 0. -1.
</event>
<event>
11    1  0.1002087E-008  0.3083948E+03  0.7561462E-02  0.9966997E-01
         22   -1    0    0    0    0  0.00000000000E+00  0.00000000000E+00  0.52939962233E+03  0.52939962233E+03  0.00000000000E+00 0. -1.
         22   -1    0    0    0    0 -0.00000000000E+00 -0.00000000000E+00 -0.34537589314E+03  0.34537589314E+03  0.00000000000E+00 0.  1.
         24    2    1    2    0    0 -0.15845201726E+02 -0.91106729846E+02 -0.12848457754E+03  0.17814157205E+03  0.81698386680E+02 0.  0.
         25    2    1    2    0    0  0.20548774175E+03 -0.14648301391E+03  0.47783574465E+02  0.28568031908E+03  0.12508992503E+03 0.  0.
        -24    2    1    2    0    0 -0.18964254003E+03  0.23758974375E+03  0.26472473226E+03  0.41095362435E+03  0.79940716572E+02 0.  0.
        -13    1    3    3    0    0  0.10640003206E+01 -0.10249015003E+03 -0.11287956785E+03  0.15247019312E+03  0.00000000000E+00 0.  1.
         14    1    3    3    0    0 -0.16909202046E+02  0.11383420187E+02 -0.15605009684E+02  0.25671378931E+02  0.00000000000E+00 0. -1.
         11    1    5    5    0    0 -0.16300396802E+03  0.23137551705E+03  0.21978615876E+03  0.35834463728E+03  0.00000000000E+00 0. -1.
        -12    1    5    5    0    0 -0.26638572011E+02  0.62142267004E+01  0.44938573500E+02  0.52608987070E+02  0.00000000000E+00 0.  1.
          5    1    4    4  501    0  0.18634434542E+02  0.14821644944E+02  0.29474549520E+02  0.38120136135E+02  0.41800000000E+01 0. -1.
         -5    1    4    4    0  501  0.18685330721E+03 -0.16130465885E+03  0.18309024945E+02  0.24756018294E+03  0.41800000000E+01 0. -1.
</event>
<event>
11    1  0.1002087E-008  0.1698442E+03  0.7561462E-02  0.1078167E+00
         22   -1    0    0    0    0  0.00000000000E+00  0.00000000000E+00  0.11717376793E+04  0.11717376793E+04  0.00000000000E+00 0.  1.
         22   -1    0    0    0    0 -0.00000000000E+00 -0.00000000000E+00 -0.37125665192E+03  0.37125665192E+03  0.00000000000E+00 0.  1.
         24    2    1    2    0    0 -0.13487164393E+02  0.26575467576E+02 -0.30710496651E+03  0.31922624318E+03  0.81876582717E+02 0.  0.
         25    2    1    2    0    0 -0.75178679840E+02 -0.98649396605E+02  0.92919547388E+02  0.19919635842E+03  0.12514635260E+03 0.  0.
        -24    2    1    2    0    0  0.88665844234E+02  0.72073929029E+02  0.10146664465E+04  0.10245717296E+04  0.84515964746E+02 0.  0.
        -11    1    3    3    0    0  0.12165349629E+02 -0.22264165327E+01 -0.25006229105E+03  0.25036793338E+03  0.00000000000E+00 0.  1.
         12    1    3    3    0    0 -0.25652514022E+02  0.28801884109E+02 -0.57042675465E+02  0.68858309797E+02  0.00000000000E+00 0. -1.
         13    1    5    5    0    0  0.37962408763E+02 -0.15088448647E+02  0.25751523467E+03  0.26073530994E+03  0.00000000000E+00 0. -1.
        -14    1    5    5    0    0  0.50703435470E+02  0.87162377676E+02  0.75715121181E+03  0.76383641966E+03  0.00000000000E+00 0.  1.
          5    1    4    4  501    0 -0.23083997447E+02 -0.10906188327E+03  0.94024945513E+02  0.14589560686E+03  0.41800000000E+01 0.  1.
         -5    1    4    4    0  501 -0.52094682393E+02  0.10412486668E+02 -0.11053981250E+01  0.53300751564E+02  0.41800000000E+01 0.  1.
</event>
<event>
11    1  0.1002087E-008  0.1293226E+03  0.7561462E-02  0.1120104E+00
         22   -1    0    0    0    0  0.00000000000E+00  0.00000000000E+00  0.36436098001E+03  0.36436098001E+03  0.00000000000E+00 0. -1.
         22   -1    0    0    0    0 -0.00000000000E+00 -0.00000000000E+00 -0.79312931624E+03  0.79312931624E+03  0.00000000000E+00 0. -1.
         24    2    1    2    0    0 -0.22559306260E+02  0.23379684877E+02 -0.75013675712E+03  0.75519619199E+03  0.80997543521E+02 0.  0.
         25    2    1    2    0    0  0.35432337049E+02 -0.35009674143E+02  0.98049086125E+02  0.16656031987E+03  0.12509032365E+03 0.  0.
        -24    2    1    2    0    0 -0.12873030789E+02  0.11629989266E+02  0.22331933476E+03  0.23573378439E+03  0.73470540048E+02 0.  0.
        -13    1    3    3    0    0 -0.49185320991E+02  0.22176442703E+01 -0.32588356273E+03  0.32958187178E+03  0.00000000000E+00 0.  1.
         14    1    3    3    0    0  0.26626014731E+02  0.21162040606E+02 -0.42425319438E+03  0.42561432021E+03  0.00000000000E+00 0. -1.
         13    1    5    5    0    0 -0.27463510032E+02  0.12103755320E+01  0.21355733256E+03  0.21531939922E+03  0.00000000000E+00 0. -1.
        -14    1    5    5    0    0  0.14590479243E+02  0.10419613734E+02  0.97620022002E+01  0.20414385170E+02  0.00000000000E+00 0.  1.
          5    1    4    4  501    0  0.81646725251E+02 -0.15780137333E+02  0.71481518585E+02  0.10973732445E+03  0.41800000000E+01 0.  1.
         -5    1    4    4    0  501 -0.46214388202E+02 -0.19229536809E+02  0.26567567540E+02  0.56822995414E+02  0.41800000000E+01 0.  1.
</event>
<event>
11    1  0.1002087E-008  0.1793201E+03  0.7561462E-02  0.1070194E+00
         22   -1    0    0    0    0  0.00000000000E+00  0.00000000000E+00  0.18774029925E+03  0.18774029925E+03  0.00000000000E+00 0.  1.
         22   -1    0    0    0    0 -0.00000000000E+00 -0.00000000000E+00 -0.10845111878E+04  0.10845111878E+04  0.00000000000E+00 0.  1.
         24    2    1    2    0    0  0.27283375654E+02 -0.12182178659E+03 -0.81080476308E+03  0.82776550059E+03  0.11048271296E+03 0.  0.
         25    2    1    2    0    0 -0.52985158367E+02  0.13554444428E+03 -0.21573453118E+03  0.28873332141E+03  0.12508325055E+03 0.  0.
        -24    2    1    2    0    0  0.25701782713E+02 -0.13722657688E+02  0.12976840569E+03  0.15575266507E+03  0.81056527144E+02 0.  0.
        -11    1    3    3    0    0 -0.17106625968E+02 -0.44800776134E+01 -0.34222110620E+03  0.34267768133E+03  0.00000000000E+00 0.  1.
         12    1    3    3    0    0  0.44390001621E+02 -0.11734170898E+03 -0.46858365688E+03  0.48508781927E+03  0.00000000000E+00 0. -1.
         13    1    5    5    0    0  0.16740677309E+02  0.33597192656E+02  0.49154718983E+02  0.61848266180E+02  0.00000000000E+00 0. -1.
        -14    1    5    5    0    0  0.89611054042E+01 -0.47319850344E+02  0.80613686705E+02  0.93904398890E+02  0.00000000000E+00 0.  1.
          5    1    4    4  501    0 -0.19968110410E+02  0.11271418491E+03 -0.62940130891E+02  0.13069868167E+03  0.41800000000E+01 0.  1.
         -5    1    4    4    0  501 -0.33017047957E+02  0.22830259366E+02 -0.15279440029E+03  0.15803463974E+03  0.41800000000E+01 0.  1.
</event>
<event>
11    1  0.1301472E-008  0.1734743E+03  0.7561462E-02  0.1075047E+00
         22   -1    0    0    0    0  0.00000000000E+00  0.00000000000E+00  0.32348898995E+03  0.32348898995E+03  0.00000000000E+00 0.  1.
         22   -1    0    0    0    0 -0.00000000000E+00 -0.00000000000E+00 -0.10058738220E+04  0.10058738220E+04  0.00000000000E+00 0.  1.
         24    2    1    2    0    0  0.83426720139E+02 -0.21730292701E+02 -0.51863944437E+03  0.53186401697E+03  0.80375593547E+02 0.  0.
         25    2    1    2    0    0 -0.13311988036E+03  0.12866661923E+03 -0.43401334907E+03  0.48815351086E+03  0.12510100536E+03 0.  0.
        -24    2    1    2    0    0  0.49693160221E+02 -0.10693632653E+03  0.27026796142E+03  0.30934528409E+03  0.93514414476E+02 0.  0.
        -11    1    3    3    0    0 -0.14448295645E+02  0.30202092169E+01 -0.10762228821E+03  0.10862979255E+03  0.00000000000E+00 0.  1.
         12    1    3    3    0    0  0.97875015785E+02 -0.24750501918E+02 -0.41101715617E+03  0.42323422442E+03  0.00000000000E+00 0. -1.
         13    1    5    5    0    0  0.73629926013E+02 -0.92816746563E+02  0.18520132574E+03  0.21985414598E+03  0.00000000000E+00 0. -1.
        -14    1    5    5    0    0 -0.23936765793E+02 -0.14119579968E+02  0.85066635683E+02  0.89491138117E+02  0.00000000000E+00 0.  1.
          5    1    4    4  501    0 -0.51040851633E+02 -0.81018371398E+01 -0.18725241505E+03  0.19429808965E+03  0.41800000000E+01 0. -1.
         -5    1    4    4    0  501 -0.82079028727E+02  0.13676845637E+03 -0.24676093402E+03  0.29385542121E+03  0.41800000000E+01 0. -1.
</event>
<event>
11    1  0.1002087E-008  0.1609759E+03  0.7561462E-02  0.1086163E+00
         22   -1    0    0    0    0  0.00000000000E+00  0.00000000000E+00  0.30982155462E+03  0.30982155462E+03  0.00000000000E+00 0. -1.
         22   -1    0    0    0    0 -0.00000000000E+00 -0.00000000000E+00 -0.29776282094E+04  0.29776282094E+04  0.00000000000E+00 0.  1.
        -24    2    1    2    0    0 -0.10077302524E+03  0.32200743746E+01 -0.28824687969E+04  0.28853151742E+04  0.79067805384E+02 0.  0.
         25    2    1    2    0    0  0.17390800233E+03 -0.49069270604E+02  0.15539244880E+03  0.26915758370E+03  0.12508878898E+03 0.  0.
         24    2    1    2    0    0 -0.73134977092E+02  0.45849196229E+02  0.59269693271E+02  0.13297700618E+03  0.81970201682E+02 0.  0.
        -11    1    5    5    0    0 -0.21991543506E+02  0.51503543444E+02  0.59241747951E+02  0.81521945962E+02  0.00000000000E+00 0.  1.
         12    1    5    5    0    0 -0.51143433586E+02 -0.56543472148E+01  0.27945319774E-01  0.51455060221E+02  0.00000000000E+00 0. -1.
         13    1    3    3    0    0 -0.20388689905E+02 -0.33916696636E+02 -0.90578993421E+03  0.90665398356E+03  0.00000000000E+00 0. -1.
        -14    1    3    3    0    0 -0.80384335338E+02  0.37136771011E+02 -0.19766788627E+04  0.19786611906E+04  0.00000000000E+00 0.  1.
          5    1    4    4  501    0 -0.13253492820E+02 -0.25679243563E+02  0.33986084099E+02  0.44806304627E+02  0.41800000000E+01 0. -1.
         -5    1    4    4    0  501  0.18716149515E+03 -0.23390027041E+02  0.12140636470E+03  0.22435127908E+03  0.41800000000E+01 0. -1.
</event>
<event>
11    1  0.1002087E-008  0.2130585E+03  0.7561462E-02  0.1045655E+00
         22   -1    0    0    0    0  0.00000000000E+00  0.00000000000E+00  0.23520336554E+03  0.23520336554E+03  0.00000000000E+00 0. -1.
         22   -1    0    0    0    0 -0.00000000000E+00 -0.00000000000E+00 -0.11506253958E+04  0.11506253958E+04  0.00000000000E+00 0.  1.
        -24    2    1    2    0    0 -0.64211405002E+02  0.62464717461E+01 -0.85599814083E+03  0.86242255509E+03  0.82932041333E+02 0.  0.
         25    2    1    2    0    0  0.76701803400E+02  0.16569778611E+03 -0.19248772196E+03  0.29332366104E+03  0.12509326141E+03 0.  0.
         24    2    1    2    0    0 -0.12490398398E+02 -0.17194425786E+03  0.13306383256E+03  0.23008254518E+03  0.74237161847E+02 0.  0.
        -11    1    5    5    0    0 -0.24289615047E+02 -0.17940192469E+02  0.38683536884E+02  0.49073943502E+02  0.00000000000E+00 0.  1.
         12    1    5    5    0    0  0.11799216649E+02 -0.15400406539E+03  0.94380295672E+02  0.18100860168E+03  0.00000000000E+00 0. -1.
         11    1    3    3    0    0 -0.44753515708E+02  0.28108303235E+02 -0.24091177324E+03  0.24664029753E+03  0.00000000000E+00 0. -1.
        -12    1    3    3    0    0 -0.19457889294E+02 -0.21861831489E+02 -0.61508636759E+03  0.61578225756E+03  0.00000000000E+00 0.  1.
          5    1    4    4  501    0 -0.11128821364E+02  0.10111025579E+03 -0.13767138885E+03  0.17122505132E+03  0.41800000000E+01 0.  1.
         -5    1    4    4    0  501  0.87830624764E+02  0.64587530322E+02 -0.54816333113E+02  0.12209860972E+03  0.41800000000E+01 0.  1.
</event>
<event>
11    1  0.1002087E-008  0.1317569E+03  0.7561462E-02  0.1117129E+00
         22   -1    0    0    0    0  0.00000000000E+00  0.00000000000E+00  0.72286493136E+03  0.72286493136E+03  0.00000000000E+00 0.  1.
         22   -1    0    0    0    0 -0.00000000000E+00 -0.00000000000E+00 -0.23480923698E+04  0.23480923698E+04  0.00000000000E+00 0. -1.
        -24    2    1    2    0    0  0.40270674008E+02  0.91322034796E+01 -0.23021037029E+04  0.23037694375E+04  0.77246603836E+02 0.  0.
         25    2    1    2    0    0 -0.56010842518E+02  0.24908617941E+01  0.69212299902E+02  0.15355999763E+03  0.12508761546E+03 0.  0.
         24    2    1    2    0    0  0.15740168509E+02 -0.11623065274E+02  0.60766396460E+03  0.61362786602E+03  0.83071147466E+02 0.  0.
        -13    1    5    5    0    0 -0.43939929169E+01  0.31036478551E+02  0.37014471338E+03  0.37146962058E+03  0.00000000000E+00 0.  1.
         14    1    5    5    0    0  0.20134161426E+02 -0.42659543824E+02  0.23751925122E+03  0.24215824544E+03  0.00000000000E+00 0. -1.
         13    1    3    3    0    0  0.37106576234E+02 -0.26648584404E+02 -0.16865088306E+04  0.16871274643E+04  0.00000000000E+00 0. -1.
        -14    1    3    3    0    0  0.31640977745E+01  0.35780787884E+02 -0.61559487231E+03  0.61664197320E+03  0.00000000000E+00 0.  1.
          5    1    4    4  501    0  0.23898111147E+02  0.58294782960E+00  0.69398032950E+02  0.73518833790E+02  0.41800000000E+01 0. -1.
         -5    1    4    4    0  501 -0.79908953665E+02  0.19079139645E+01 -0.18573304776E+00  0.80041163837E+02  0.41800000000E+01 0. -1.
</event>
<event>
11    1  0.1002087E-008  0.1561421E+03  0.7561462E-02  0.1090763E+00
         22   -1    0    0    0    0  0.00000000000E+00  0.00000000000E+00  0.37504959395E+03  0.37504959395E+03  0.00000000000E+00 0. -1.
         22   -1    0    0    0    0 -0.00000000000E+00 -0.00000000000E+00 -0.27315590033E+04  0.27315590033E+04  0.00000000000E+00 0.  1.
         24    2    1    2    0    0 -0.11249587168E+02  0.11697353942E+02 -0.23033810947E+04  0.23048543207E+04  0.80781129671E+02 0.  0.
         25    2    1    2    0    0  0.69180575709E+02  0.61693289423E+02 -0.40186350959E+03  0.43096978300E+03  0.12509460222E+03 0.  0.
        -24    2    1    2    0    0 -0.57930988540E+02 -0.73390643365E+02  0.34873519494E+03  0.37078449354E+03  0.84396199502E+02 0.  0.
        -11    1    3    3    0    0 -0.20002571155E+02 -0.11767889076E+02 -0.20705635038E+04  0.20706935575E+04  0.00000000000E+00 0.  1.
         12    1    3    3    0    0  0.87529839863E+01  0.23465243018E+02 -0.23281759089E+03  0.23416076312E+03  0.00000000000E+00 0. -1.
         11    1    5    5    0    0  0.26822357594E+01 -0.46486043878E+02  0.23110016418E+03  0.23574442209E+03  0.00000000000E+00 0. -1.
        -12    1    5    5    0    0 -0.60613224300E+02 -0.26904599486E+02  0.11763503077E+03  0.13504007145E+03  0.00000000000E+00 0.  1.
          5    1    4    4  501    0  0.40963001400E+02 -0.35502969965E+02 -0.14443312749E+03  0.15432701992E+03  0.41800000000E+01 0. -1.
         -5    1    4    4    0  501  0.28217574308E+02  0.97196259388E+02 -0.25743038210E+03  0.27664276308E+03  0.41800000000E+01 0. -1.
</event>
<event>
11    1  0.1002087E-008  0.1386998E+03  0.7561462E-02  0.1109019E+00
         22   -1    0    0    0    0  0.00000000000E+00  0.00000000000E+00  0.53493697612E+03  0.53493697612E+03  0.00000000000E+00 0.  1.
         22   -1    0    0    0    0 -0.00000000000E+00 -0.00000000000E+00 -0.57357468822E+03  0.57357468822E+03  0.00000000000E+00 0.  1.
         24    2    1    2    0    0 -0.44335611953E+02  0.23138458504E+02 -0.49684609216E+03  0.50500514688E+03  0.75320145571E+02 0.  0.
         25    2    1    2    0    0 -0.49732720981E+01  0.19476900384E+02 -0.28551993268E+01  0.12672591697E+03  0.12508885956E+03 0.  0.
        -24    2    1    2    0    0  0.49308884051E+02 -0.42615358888E+02  0.46106357939E+03  0.47678060049E+03  0.10243379278E+03 0.  0.
        -11    1    3    3    0    0 -0.49596057112E+02  0.16645792042E+02 -0.16588842530E+03  0.17394200448E+03  0.00000000000E+00 0.  1.
         12    1    3    3    0    0  0.52604451591E+01  0.64926664624E+01 -0.33095766686E+03  0.33106314240E+03  0.00000000000E+00 0. -1.
         13    1    5    5    0    0  0.58646306994E+02 -0.25834969385E+02  0.12783046446E+03  0.14299462441E+03  0.00000000000E+00 0. -1.
        -14    1    5    5    0    0 -0.93374229435E+01 -0.16780389503E+02  0.33323311493E+03  0.33378597608E+03  0.00000000000E+00 0.  1.
          5    1    4    4  501    0 -0.64060625510E+02  0.87815997890E+01  0.88783025191E+01  0.65400129138E+02  0.41800000000E+01 0. -1.
         -5    1    4    4    0  501  0.59087353412E+02  0.10695300595E+02 -0.11733501846E+02  0.61325787835E+02  0.41800000000E+01 0. -1.
</event>
<event>
11    1  0.1002087E-008  0.1496416E+03  0.7561462E-02  0.1097246E+00
         22   -1    0    0    0    0  0.00000000000E+00  0.00000000000E+00  0.17651821040E+03  0.17651821040E+03  0.00000000000E+00 0. -1.
         22   -1    0    0    0    0 -0.00000000000E+00 -0.00000000000E+00 -0.55772077525E+03  0.55772077525E+03  0.00000000000E+00 0.  1.
         24    2    1    2    0    0 -0.70840117659E+02 -0.96822559852E+01 -0.25916687738E+03  0.28050361122E+03  0.80017105838E+02 0.  0.
         25    2    1    2    0    0  0.10547270960E+03  0.16198183776E+02 -0.24947263998E+03  0.29878199904E+03  0.12508881334E+03 0.  0.
        -24    2    1    2    0    0 -0.34632591943E+02 -0.65159277907E+01  0.12743695250E+03  0.15495337539E+03  0.80799120930E+02 0.  0.
        -13    1    3    3    0    0 -0.72836116682E+02 -0.12531251656E+02 -0.26422402431E+03  0.27436557216E+03  0.00000000000E+00 0.  1.
         14    1    3    3    0    0  0.19959990227E+01  0.28489956712E+01  0.50571469338E+01  0.61380390634E+01  0.00000000000E+00 0. -1.
         11    1    5    5    0    0 -0.31266412815E+02 -0.38690886735E+02  0.47766252545E+02  0.68965122844E+02  0.00000000000E+00 0. -1.
        -12    1    5    5    0    0 -0.33661791283E+01  0.32174958944E+02  0.79670699953E+02  0.85988252546E+02  0.00000000000E+00 0.  1.
          5    1    4    4  501    0  0.18699118350E+02  0.11776900990E+02  0.10369755462E+02  0.24766038285E+02  0.41800000000E+01 0. -1.
         -5    1    4    4    0  501  0.86773591252E+02  0.44212827855E+01 -0.25984239544E+03  0.27401596075E+03  0.41800000000E+01 0. -1.
</event>
<event>
11    1  0.1002087E-008  0.1395219E+03  0.7561462E-02  0.1108093E+00
         22   -1    0    0    0    0  0.00000000000E+00  0.00000000000E+00  0.16191844162E+04  0.16191844162E+04  0.00000000000E+00 0. -1.
         22   -1    0    0    0    0 -0.00000000000E+00 -0.00000000000E+00 -0.20216781552E+03  0.20216781552E+03  0.00000000000E+00 0.  1.
         24    2    1    2    0    0 -0.16492133329E+02  0.38856389695E+02 -0.46192494573E+02  0.10799433549E+03  0.88018296176E+02 0.  0.
         25    2    1    2    0    0  0.30706787904E+02 -0.87809907071E+02 -0.74456416224E+02  0.17275729965E+03  0.12509132689E+03 0.  0.
        -24    2    1    2    0    0 -0.14214654575E+02  0.48953517375E+02  0.15376655115E+04  0.15406005966E+04  0.80227612039E+02 0.  0.
        -11    1    3    3    0    0 -0.39042741882E+02  0.38475176292E+02 -0.60221884832E+02  0.81433103202E+02  0.00000000000E+00 0.  1.
         12    1    3    3    0    0  0.22550608553E+02  0.38121340340E+00  0.14029390259E+02  0.26561232291E+02  0.00000000000E+00 0. -1.
         11    1    5    5    0    0  0.61960562474E+01  0.19439691982E+02  0.13071134280E+04  0.13072726596E+04  0.00000000000E+00 0. -1.
        -12    1    5    5    0    0 -0.20410710823E+02  0.29513825393E+02  0.23055208342E+03  0.23332793698E+03  0.00000000000E+00 0.  1.
          5    1    4    4  501    0  0.12787860578E+02 -0.60609648496E+02 -0.10878263951E+03  0.12525252065E+03  0.41800000000E+01 0. -1.
         -5    1    4    4    0  501  0.17918927326E+02 -0.27200258575E+02  0.34326223289E+02  0.47504779005E+02  0.41800000000E+01 0. -1.
</event>
<event>
11    1  0.1002087E-008  0.3605846E+03  0.7561462E-02  0.9773794E-01
         22   -1    0    0    0    0  0.00000000000E+00  0.00000000000E+00  0.26536639670E+04  0.26536639670E+04  0.00000000000E+00 0. -1.
         22   -1    0    0    0    0 -0.00000000000E+00 -0.00000000000E+00 -0.16042658287E+03  0.16042658287E+03  0.00000000000E+00 0.  1.
         24    2    1    2    0    0  0.15839854530E+03  0.29180272181E+03  0.10178124239E+03  0.35666298472E+03  0.81302741389E+02 0.  0.
         25    2    1    2    0    0 -0.18035240979E+03 -0.32423929950E+03  0.11889006681E+04  0.12517162439E+04  0.12510252359E+03 0.  0.
        -24    2    1    2    0    0  0.21953864489E+02  0.32436577696E+02  0.12025554736E+04  0.12057113212E+04  0.77884654555E+02 0.  0.
        -11    1    3    3    0    0  0.92367665020E+02  0.99426859723E+02  0.18853979527E+02  0.13701444639E+03  0.00000000000E+00 0.  1.
         12    1    3    3    0    0  0.66030880283E+02  0.19237586209E+03  0.82927262863E+02  0.21964853833E+03  0.00000000000E+00 0. -1.
         13    1    5    5    0    0  0.41861854329E+02  0.41445457906E+02  0.10435563208E+04  0.10452176498E+04  0.00000000000E+00 0. -1.
        -14    1    5    5    0    0 -0.19907989840E+02 -0.90088802096E+01  0.15899915280E+03  0.16049367144E+03  0.00000000000E+00 0.  1.
          5    1    4    4  501    0 -0.18010669054E+03 -0.32707635982E+03  0.11893956862E+04  0.12466342431E+04  0.41800000000E+01 0.  1.
         -5    1    4    4    0  501 -0.24571925154E+00  0.28370603130E+01 -0.49501811303E+00  0.50820007972E+01  0.41800000000E+01 0.  1.
</event>
<event>
11    1  0.1002087E-008  0.1324563E+03  0.7561462E-02  0.1116287E+00
         22   -1    0    0    0    0  0.00000000000E+00  0.00000000000E+00  0.28580339350E+04  0.28580339350E+04  0.00000000000E+00 0. -1.
         22   -1    0    0    0    0 -0.00000000000E+00 -0.00000000000E+00 -0.13255013204E+03  0.13255013204E+03  0.00000000000E+00 0. -1.
         24    2    1    2    0    0 -0.20603559274E+00 -0.13034120312E+02 -0.73302549755E+02  0.10911188434E+03  0.79763455050E+02 0.  0.
         25    2    1    2    0    0 -0.30882456387E+02  0.43301515461E+02  0.73143428336E+02  0.15435973106E+03  0.12509283797E+03 0.  0.
        -24    2    1    2    0    0  0.31088491980E+02 -0.30267395149E+02  0.27256429244E+04  0.27271124516E+04  0.78296635111E+02 0.  0.
        -13    1    3    3    0    0 -0.29447489934E+02  0.20587396089E+02 -0.37670890709E+02  0.52058539626E+02  0.00000000000E+00 0.  1.
         14    1    3    3    0    0  0.29241454342E+02 -0.33621516401E+02 -0.35631659045E+02  0.57053344718E+02  0.00000000000E+00 0. -1.
         11    1    5    5    0    0  0.31212265383E+02 -0.20807410730E+02  0.26891966462E+04  0.26894582644E+04  0.00000000000E+00 0. -1.
        -12    1    5    5    0    0 -0.12377340335E+00 -0.94599844184E+01  0.36446278170E+02  0.37654187250E+02  0.00000000000E+00 0.  1.
          5    1    4    4  501    0 -0.65458603330E+02 -0.14815560033E+02  0.45457286576E+02  0.81167523505E+02  0.41800000000E+01 0.  1.
         -5    1    4    4    0  501  0.34576146943E+02  0.58117075494E+02  0.27686141761E+02  0.73192207557E+02  0.41800000000E+01 0.  1.
</event>
<event>
11    1  0.1002087E-008  0.1818241E+03  0.7561462E-02  0.1068177E+00
         22   -1    0    0    0    0  0.00000000000E+00  0.00000000000E+00  0.33215506834E+03  0.33215506834E+03  0.00000000000E+00 0. -1.
         22   -1    0    0    0    0 -0.00000000000E+00 -0.00000000000E+00 -0.29214533030E+04  0.29214533030E+04  0.00000000000E+00 0. -1.
        -24    2    1    2    0    0  0.49086099119E+02  0.12145132831E+03 -0.28207411741E+04  0.28259209129E+04  0.10994709769E+03 0.  0.
         25    2    1    2    0    0 -0.88862159183E+02 -0.16895930424E+03  0.73461218970E+02  0.23976689515E+03  0.12509150048E+03 0.  0.
         24    2    1    2    0    0  0.39776060064E+02  0.47507975934E+02  0.15798172047E+03  0.18792056332E+03  0.80726522169E+02 0.  0.
        -13    1    5    5    0    0 -0.13978320576E+02  0.45903091355E+02  0.73994512466E+02  0.88191128336E+02  0.00000000000E+00 0.  1.
         14    1    5    5    0    0  0.53754380640E+02  0.16048845788E+01  0.83987208009E+02  0.99729434980E+02  0.00000000000E+00 0. -1.
         11    1    3    3    0    0  0.84138308347E+02  0.96079362070E+02 -0.20808837980E+04  0.20847992420E+04  0.00000000000E+00 0. -1.
        -12    1    3    3    0    0 -0.35052209227E+02  0.25371966237E+02 -0.73985737612E+03  0.74112167088E+03  0.00000000000E+00 0.  1.
          5    1    4    4  501    0 -0.30980330313E+01 -0.12657981042E+02 -0.30438466730E+02  0.33373566630E+02  0.41800000000E+01 0. -1.
         -5    1    4    4    0  501 -0.85764126152E+02 -0.15630132320E+03  0.10389968570E+03  0.20639332852E+03  0.41800000000E+01 0. -1.
</event>
<event>
11    1  0.1002087E-008  0.1954109E+03  0.7561462E-02  0.1057817E+00
         22   -1    0    0    0    0  0.00000000000E+00  0.00000000000E+00  0.39075262673E+03  0.39075262673E+03  0.00000000000E+00 0. -1.
         22   -1    0    0    0    0 -0.00000000000E+00 -0.00000000000E+00 -0.18450977638E+04  0.18450977638E+04  0.00000000000E+00 0.  1.
         24    2    1    2    0    0  0.54139178501E+02 -0.32665732616E+02 -0.14062936003E+04  0.14101490530E+04  0.82828500604E+02 0.  0.
         25    2    1    2    0    0  0.66635149578E+02  0.12359442558E+03 -0.39577904793E+03  0.43818323642E+03  0.12509064196E+03 0.  0.
        -24    2    1    2    0    0 -0.12077432808E+03 -0.90928692966E+02  0.34772751121E+03  0.38751810113E+03  0.80008694042E+02 0.  0.
        -13    1    3    3    0    0  0.44455952446E+02  0.14480531776E+02 -0.98612465868E+03  0.98723242449E+03  0.00000000000E+00 0.  1.
         14    1    3    3    0    0  0.96832260550E+01 -0.47146264392E+02 -0.42016894166E+03  0.42291662848E+03  0.00000000000E+00 0. -1.
         11    1    5    5    0    0 -0.49501501258E+02 -0.79737913849E+01  0.18334384556E+03  0.19007615758E+03  0.00000000000E+00 0. -1.
        -12    1    5    5    0    0 -0.71272826820E+02 -0.82954901581E+02  0.16438366565E+03  0.19744194355E+03  0.00000000000E+00 0.  1.
          5    1    4    4  501    0  0.73817346875E+02  0.17429681425E+02 -0.11435678223E+03  0.13728707345E+03  0.41800000000E+01 0. -1.
         -5    1    4    4    0  501 -0.71821972967E+01  0.10616474416E+03 -0.28142226569E+03  0.30089616296E+03  0.41800000000E+01 0. -1.
</event>
<event>
11    1  0.1002087E-008  0.1410098E+03  0.7561462E-02  0.1106436E+00
         22   -1    0    0    0    0  0.00000000000E+00  0.00000000000E+00  0.11002863731E+04  0.11002863731E+04  0.00000000000E+00 0. -1.
         22   -1    0    0    0    0 -0.00000000000E+00 -0.00000000000E+00 -0.64001488444E+02  0.64001488444E+02  0.00000000000E+00 0.  1.
         24    2    1    2    0    0  0.39828833405E+01  0.65436342951E+00 -0.11619849824E+02  0.78629781219E+02  0.77661638107E+02 0.  0.
         25    2    1    2    0    0 -0.60780921039E+02 -0.30850551773E+02  0.32023051489E+03  0.35048716358E+03  0.12509033639E+03 0.  0.
        -24    2    1    2    0    0  0.56798037699E+02  0.30196188344E+02  0.72767421957E+03  0.73517091673E+03  0.82635828168E+02 0.  0.
        -11    1    3    3    0    0  0.10392232448E+02  0.89102236096E+01 -0.43225233048E+02  0.45341055921E+02  0.00000000000E+00 0.  1.
         12    1    3    3    0    0 -0.64093491077E+01 -0.82558601801E+01  0.31605383223E+02  0.33288725298E+02  0.00000000000E+00 0. -1.
         11    1    5    5    0    0  0.39846879160E+02 -0.12518569844E+02  0.55224998833E+03  0.55382717339E+03  0.00000000000E+00 0. -1.
        -12    1    5    5    0    0  0.16951158539E+02  0.42714758188E+02  0.17542423124E+03  0.18134374334E+03  0.00000000000E+00 0.  1.
          5    1    4    4  501    0 -0.26084743520E+02  0.41033132039E+02  0.20173927011E+03  0.20755803351E+03  0.41800000000E+01 0.  1.
         -5    1    4    4    0  501 -0.34696177519E+02 -0.71883683812E+02  0.11849124479E+03  0.14292913007E+03  0.41800000000E+01 0.  1.
</event>
<event>
11    1  0.1002087E-008  0.2195010E+03  0.7561462E-02  0.1041530E+00
         22   -1    0    0    0    0  0.00000000000E+00  0.00000000000E+00  0.77803792020E+03  0.77803792020E+03  0.00000000000E+00 0.  1.
         22   -1    0    0    0    0 -0.00000000000E+00 -0.00000000000E+00 -0.56209527576E+03  0.56209527576E+03  0.00000000000E+00 0.  1.
        -24    2    1    2    0    0  0.17734770630E+03 -0.52705158085E+01 -0.41899158083E+03  0.46298015716E+03  0.85537675003E+02 0.  0.
         25    2    1    2    0    0 -0.19523039334E+03  0.14898169073E+02 -0.44754504912E+01  0.23238808528E+03  0.12508929051E+03 0.  0.
         24    2    1    2    0    0  0.17882687035E+02 -0.96276532648E+01  0.63940967576E+03  0.64476495352E+03  0.80402920519E+02 0.  0.
        -11    1    5    5    0    0  0.19396457573E+02  0.31124634975E+02  0.41996465177E+03  0.42156289472E+03  0.00000000000E+00 0.  1.
         12    1    5    5    0    0 -0.15137705381E+01 -0.40752288240E+02  0.21944502400E+03  0.22320205881E+03  0.00000000000E+00 0. -1.
         11    1    3    3    0    0  0.65072444747E+02 -0.80879170363E+01 -0.26116911262E+03  0.26927521768E+03  0.00000000000E+00 0. -1.
        -12    1    3    3    0    0  0.11227526155E+03  0.28174012278E+01 -0.15782246821E+03  0.19370493948E+03  0.00000000000E+00 0.  1.
          5    1    4    4  501    0 -0.17242698558E+03  0.58601847904E+02  0.39483998475E+01  0.18220401806E+03  0.41800000000E+01 0. -1.
         -5    1    4    4    0  501 -0.22803407752E+02 -0.43703678831E+02 -0.84238503387E+01  0.50184067223E+02  0.41800000000E+01 0. -1.
</event>
<event>
11    1  0.1002087E-008  0.2396709E+03  0.7561462E-02  0.1029550E+00
         22   -1    0    0    0    0  0.00000000000E+00  0.00000000000E+00  0.21405369805E+03  0.21405369805E+03  0.00000000000E+00 0.  1.
         22   -1    0    0    0    0 -0.00000000000E+00 -0.00000000000E+00 -0.15196309249E+04  0.15196309249E+04  0.00000000000E+00 0. -1.
         24    2    1    2    0    0 -0.60748663482E+02  0.12815327973E+03 -0.12091216954E+04  0.12199161391E+04  0.78143770554E+02 0.  0.
         25    2    1    2    0    0  0.23289347430E+03 -0.15814899842E+03 -0.92587314535E+02  0.32166989689E+03  0.12509450700E+03 0.  0.
        -24    2    1    2    0    0 -0.17214481081E+03  0.29995718690E+02 -0.38682168662E+01  0.19209858693E+03  0.79707747239E+02 0.  0.
        -11    1    3    3    0    0 -0.11922079990E+02  0.46132346217E+02 -0.17410908305E+03  0.18051122446E+03  0.00000000000E+00 0.  1.
         12    1    3    3    0    0 -0.48826583493E+02  0.82020933510E+02 -0.10350126124E+04  0.10394049146E+04  0.00000000000E+00 0. -1.
         11    1    5    5    0    0 -0.73501857369E+02 -0.22164012276E+02  0.16872254301E+02  0.78603049827E+02  0.00000000000E+00 0. -1.
        -12    1    5    5    0    0 -0.98642953445E+02  0.52159730966E+02 -0.20740471167E+02  0.11349553711E+03  0.00000000000E+00 0.  1.
          5    1    4    4  501    0  0.15563321176E+03 -0.12052005504E+03 -0.12095934041E+03  0.23107447869E+03  0.41800000000E+01 0. -1.
         -5    1    4    4    0  501  0.77260262535E+02 -0.37628943380E+02  0.28372025872E+02  0.90595418200E+02  0.41800000000E+01 0. -1.
</event>
<event>
11    1  0.1002087E-008  0.1701362E+03  0.7561462E-02  0.1077913E+00
         22   -1    0    0    0    0  0.00000000000E+00  0.00000000000E+00  0.37187745734E+03  0.37187745734E+03  0.00000000000E+00 0.  1.
         22   -1    0    0    0    0 -0.00000000000E+00 -0.00000000000E+00 -0.86779387697E+03  0.86779387697E+03  0.00000000000E+00 0. -1.
         24    2    1    2    0    0 -0.11352098405E+03 -0.14956197536E+02 -0.73190189911E+03  0.74626358739E+03  0.90101333356E+02 0.  0.
         25    2    1    2    0    0  0.10740042287E+03  0.12224798163E+03 -0.18208094249E+02  0.20605601316E+03  0.12509246988E+03 0.  0.
        -24    2    1    2    0    0  0.61205611836E+01 -0.10729178409E+03  0.25419357373E+03  0.28735173375E+03  0.80047846676E+02 0.  0.
        -13    1    3    3    0    0 -0.12629991786E+01  0.11608089304E+02 -0.10521168875E+02  0.15717439317E+02  0.00000000000E+00 0.  1.
         14    1    3    3    0    0 -0.11225798487E+03 -0.26564286839E+02 -0.72138073024E+03  0.73054614807E+03  0.00000000000E+00 0. -1.
         11    1    5    5    0    0 -0.44235728144E+01  0.54858827942E+01 -0.19238742797E+01  0.73050803363E+01  0.00000000000E+00 0. -1.
        -12    1    5    5    0    0  0.10544133998E+02 -0.11277766689E+03  0.25611744801E+03  0.28004665341E+03  0.00000000000E+00 0.  1.
          5    1    4    4  501    0  0.36780146404E+02  0.12337402579E+03 -0.34713934653E+02  0.13340336978E+03  0.41800000000E+01 0.  1.
         -5    1    4    4    0  501  0.70620276465E+02 -0.11260441616E+01  0.16505840404E+02  0.72652643385E+02  0.41800000000E+01 0.  1.
</event>
<event>
11    1  0.1002087E-008  0.1314883E+03  0.7561462E-02  0.1117454E+00
         22   -1    0    0    0    0  0.00000000000E+00  0.00000000000E+00  0.14688812296E+04  0.14688812296E+04  0.00000000000E+00 0. -1.
         22   -1    0    0    0    0 -0.00000000000E+00 -0.00000000000E+00 -0.34952590705E+03  0.34952590705E+03  0.00000000000E+00 0. -1.
        -24    2    1    2    0    0  0.37834545358E+02 -0.12650883500E+02 -0.32726118381E+03  0.33959363477E+03  0.81439896060E+02 0.  0.
         25    2    1    2    0    0 -0.72205293405E+02  0.35150559866E+02  0.37488062013E+03  0.40327713693E+03  0.12509118099E+03 0.  0.
         24    2    1    2    0    0  0.34370748048E+02 -0.22499676366E+02  0.10717358862E+04  0.10755363650E+04  0.80455445910E+02 0.  0.
        -11    1    5    5    0    0 -0.22291150684E+02  0.52565701474E+01  0.16143674083E+03  0.16305320671E+03  0.00000000000E+00 0.  1.
         12    1    5    5    0    0  0.56661898732E+02 -0.27756246513E+02  0.91029914541E+03  0.91248315826E+03  0.00000000000E+00 0. -1.
         13    1    3    3    0    0  0.49309157413E+02 -0.12381188246E+02 -0.32356597813E+03  0.32753569123E+03  0.00000000000E+00 0. -1.
        -14    1    3    3    0    0 -0.11474612055E+02 -0.26969525435E+00 -0.36952056826E+01  0.12057943539E+02  0.00000000000E+00 0.  1.
          5    1    4    4  501    0 -0.67250232851E+02  0.74593117838E+02  0.19942587233E+03  0.22332684120E+03  0.41800000000E+01 0.  1.
         -5    1    4    4    0  501 -0.49550605550E+01 -0.39442557972E+02  0.17545474780E+03  0.17995029573E+03  0.41800000000E+01 0.  1.
</event>
<event>
11    1  0.1002087E-008  0.2657392E+03  0.7561462E-02  0.1015833E+00
         22   -1    0    0    0    0  0.00000000000E+00  0.00000000000E+00  0.20227587386E+03  0.20227587386E+03  0.00000000000E+00 0.  1.
         22   -1    0    0    0    0 -0.00000000000E+00 -0.00000000000E+00 -0.16851101590E+04  0.16851101590E+04  0.00000000000E+00 0.  1.
         24    2    1    2    0    0  0.21712797087E+03  0.81009096580E+02 -0.14510011213E+04  0.14716734715E+04  0.81923885652E+02 0.  0.
         25    2    1    2    0    0 -0.25269332429E+03 -0.72728988458E+02 -0.93818501788E+02  0.30592921579E+03  0.12508937563E+03 0.  0.
        -24    2    1    2    0    0  0.35565353417E+02 -0.82801081224E+01  0.61985337996E+02  0.10978334558E+03  0.82926149594E+02 0.  0.
        -11    1    3    3    0    0  0.17586482121E+03  0.30923118657E+02 -0.96789650188E+03  0.98422980699E+03  0.00000000000E+00 0.  1.
         12    1    3    3    0    0  0.41263149661E+02  0.50085977923E+02 -0.48310461946E+03  0.48744366449E+03  0.00000000000E+00 0. -1.
         13    1    5    5    0    0  0.11652219575E+02  0.13761796917E+02 -0.16740173895E+02  0.24604769811E+02  0.00000000000E+00 0. -1.
        -14    1    5    5    0    0  0.23913133843E+02 -0.22041905040E+02  0.78725511891E+02  0.85178575771E+02  0.00000000000E+00 0.  1.
          5    1    4    4  501    0 -0.10177588201E+03 -0.88116961630E+02 -0.71657712981E+02  0.15256221457E+03  0.41800000000E+01 0. -1.
         -5    1    4    4    0  501 -0.15091744228E+03  0.15387973172E+02 -0.22160788806E+02  0.15336700122E+03  0.41800000000E+01 0. -1.
</event>
<event>
11    1  0.1002087E-008  0.3204458E+03  0.7561462E-02  0.9918911E-01
         22   -1    0    0    0    0  0.00000000000E+00  0.00000000000E+00  0.51441038081E+03  0.51441038081E+03  0.00000000000E+00 0. -1.
         22   -1    0    0    0    0 -0.00000000000E+00 -0.00000000000E+00 -0.37033976193E+03  0.37033976193E+03  0.00000000000E+00 0.  1.
        -24    2    1    2    0    0 -0.93174989619E+02  0.39487872664E+02 -0.10469871443E+03  0.16657976749E+03  0.80908141468E+02 0.  0.
         25    2    1    2    0    0 -0.24413634097E+02 -0.30853427163E+03  0.13996833154E+02  0.33411581007E+03  0.12509212965E+03 0.  0.
         24    2    1    2    0    0  0.11758862372E+03  0.26904639897E+03  0.23477250015E+03  0.38405456518E+03  0.78528548829E+02 0.  0.
        -11    1    5    5    0    0  0.11107330855E+03  0.16735821275E+03  0.17144656376E+03  0.26408327375E+03  0.00000000000E+00 0.  1.
         12    1    5    5    0    0  0.65153151658E+01  0.10168818622E+03  0.63325936392E+02  0.11997129143E+03  0.00000000000E+00 0. -1.
         13    1    3    3    0    0 -0.91170413126E+02  0.11534289165E+01 -0.73575463939E+02  0.11716110072E+03  0.00000000000E+00 0. -1.
        -14    1    3    3    0    0 -0.20045764934E+01  0.38334443747E+02 -0.31123250487E+02  0.49418666769E+02  0.00000000000E+00 0.  1.
          5    1    4    4  501    0 -0.48936301895E+02 -0.15045395772E+03 -0.43396389719E+02  0.16410933574E+03  0.41800000000E+01 0.  1.
         -5    1    4    4    0  501  0.24522667797E+02 -0.15808031391E+03  0.57393222874E+02  0.17000647433E+03  0.41800000000E+01 0.  1.
</event>
<event>
11    1  0.1002087E-008  0.1411399E+03  0.7561462E-02  0.1106292E+00
         22   -1    0    0    0    0  0.00000000000E+00  0.00000000000E+00  0.58194129378E+03  0.58194129378E+03  0.00000000000E+00 0. -1.
         22   -1    0    0    0    0 -0.00000000000E+00 -0.00000000000E+00 -0.74258701840E+03  0.74258701840E+03  0.00000000000E+00 0.  1.
        -24    2    1    2    0    0  0.32348397947E+01 -0.58265080822E+02 -0.51406767177E+03  0.52383514871E+03  0.82051252487E+02 0.  0.
         25    2    1    2    0    0  0.16100107513E+02  0.11219735987E+03 -0.18666856405E+03  0.25168901018E+03  0.12511891950E+03 0.  0.
         24    2    1    2    0    0 -0.19334947308E+02 -0.53932279051E+02  0.54009051121E+03  0.54900415329E+03  0.80157776423E+02 0.  0.
        -13    1    5    5    0    0 -0.31813956124E+02 -0.24271697410E+02  0.99570621926E+02  0.10731053932E+03  0.00000000000E+00 0.  1.
         14    1    5    5    0    0  0.12479008816E+02 -0.29660581641E+02  0.44051988928E+03  0.44169361396E+03  0.00000000000E+00 0. -1.
         13    1    3    3    0    0 -0.59154610908E+01 -0.31211557954E+02 -0.52346709502E+02  0.61231789338E+02  0.00000000000E+00 0. -1.
        -14    1    3    3    0    0  0.91503008855E+01 -0.27053522868E+02 -0.46172096226E+03  0.46260335937E+03  0.00000000000E+00 0.  1.
          5    1    4    4  501    0 -0.42694229516E+02  0.73262735513E+02 -0.51835446278E+02  0.99471661993E+02  0.41800000000E+01 0. -1.
         -5    1    4    4    0  501  0.58794337030E+02  0.38934624360E+02 -0.13483311778E+03  0.15221734819E+03  0.41800000000E+01 0. -1.
</event>
<event>
11    1  0.1002087E-008  0.1712001E+03  0.7561462E-02  0.1076992E+00
         22   -1    0    0    0    0  0.00000000000E+00  0.00000000000E+00  0.30068217299E+03  0.30068217299E+03  0.00000000000E+00 0. -1.
         22   -1    0    0    0    0 -0.00000000000E+00 -0.00000000000E+00 -0.77852624168E+03  0.77852624168E+03  0.00000000000E+00 0.  1.
         24    2    1    2    0    0  0.89412640730E+02 -0.70865781514E+02 -0.62204608353E+03  0.63756039904E+03  0.80779657606E+02 0.  0.
         25    2    1    2    0    0 -0.93135731209E+02  0.10731085689E+03 -0.75858951125E+02  0.20394037939E+03  0.12508882223E+03 0.  0.
        -24    2    1    2    0    0  0.37230904795E+01 -0.36445075375E+02  0.22006096596E+03  0.23770763624E+03  0.82073056860E+02 0.  0.
        -13    1    3    3    0    0  0.24011558054E+02 -0.55856275461E+02 -0.16965873333E+03  0.18022365057E+03  0.00000000000E+00 0.  1.
         14    1    3    3    0    0  0.65401082676E+02 -0.15009506052E+02 -0.45238735019E+03  0.45733674847E+03  0.00000000000E+00 0. -1.
         13    1    5    5    0    0  0.39029464851E+02 -0.32833505875E+02  0.16012921357E+03  0.16805565529E+03  0.00000000000E+00 0. -1.
        -14    1    5    5    0    0 -0.35306374371E+02 -0.36115695004E+01  0.59931752392E+02  0.69651980950E+02  0.00000000000E+00 0.  1.
          5    1    4    4  501    0 -0.57871999074E+02  0.13285278433E+03 -0.64967663106E+02  0.15886251990E+03  0.41800000000E+01 0. -1.
         -5    1    4    4    0  501 -0.35263732135E+02 -0.25541927437E+02 -0.10891288018E+02  0.45077859488E+02  0.41800000000E+01 0. -1.
</event>
<event>
11    1  0.1002087E-008  0.2093923E+03  0.7561462E-02  0.1048074E+00
         22   -1    0    0    0    0  0.00000000000E+00  0.00000000000E+00  0.69689996468E+03  0.69689996468E+03  0.00000000000E+00 0.  1.
         22   -1    0    0    0    0 -0.00000000000E+00 -0.00000000000E+00 -0.45932810697E+03  0.45932810697E+03  0.00000000000E+00 0. -1.
         24    2    1    2    0    0  0.13513541286E+03 -0.94292693135E+02 -0.33457893863E+03  0.38356477256E+03  0.89588932283E+02 0.  0.
         25    2    1    2    0    0 -0.17934847710E+03  0.64911157255E+02  0.40551256774E+02  0.23167504472E+03  0.12509831073E+03 0.  0.
        -24    2    1    2    0    0  0.44213064238E+02  0.29381535880E+02  0.53159953956E+03  0.54098825436E+03  0.85159563139E+02 0.  0.
        -13    1    3    3    0    0  0.27128964295E+02  0.12292937630E+02 -0.25352663624E+02  0.39113355419E+02  0.00000000000E+00 0.  1.
         14    1    3    3    0    0  0.10800644857E+03 -0.10658563077E+03 -0.30922627501E+03  0.34445141714E+03  0.00000000000E+00 0. -1.
         13    1    5    5    0    0  0.33938119706E+02  0.38706644610E+02  0.14035233112E+03  0.14949507402E+03  0.00000000000E+00 0. -1.
        -14    1    5    5    0    0  0.10274944532E+02 -0.93251087302E+01  0.39124720845E+03  0.39149318034E+03  0.00000000000E+00 0.  1.
          5    1    4    4  501    0 -0.69776379528E+02  0.60730930116E+02 -0.34408094517E+02  0.98784504762E+02  0.41800000000E+01 0. -1.
         -5    1    4    4    0  501 -0.10957209757E+03  0.41802271394E+01  0.74959351292E+02  0.13289053996E+03  0.41800000000E+01 0. -1.
</event>
<event>
11    1  0.1002087E-008  0.1555217E+03  0.7561462E-02  0.1091367E+00
         22   -1    0    0    0    0  0.00000000000E+00  0.00000000000E+00  0.18825275022E+04  0.18825275022E+04  0.00000000000E+00 0.  1.
         22   -1    0    0    0    0 -0.00000000000E+00 -0.00000000000E+00 -0.95958605941E+03  0.95958605941E+03  0.00000000000E+00 0.  1.
         24    2    1    2    0    0 -0.28984564621E+02  0.84828967596E+02 -0.73124382979E+03  0.74279874074E+03  0.94849206154E+02 0.  0.
         25    2    1    2    0    0  0.68114657602E+01 -0.11051172129E+03 -0.19014033937E+03  0.25309971560E+03  0.12508749248E+03 0.  0.
        -24    2    1    2    0    0  0.22173098861E+02  0.25682753689E+02  0.18443256120E+04  0.18462151053E+04  0.76302043803E+02 0.  0.
        -11    1    3    3    0    0  0.10124809754E+02  0.53211640530E+02 -0.59685992251E+03  0.59931273769E+03  0.00000000000E+00 0.  1.
         12    1    3    3    0    0 -0.39109374375E+02  0.31617327066E+02 -0.13438390728E+03  0.14348600305E+03  0.00000000000E+00 0. -1.
         11    1    5    5    0    0 -0.12434797521E+02 -0.21155545694E+02  0.44187465814E+03  0.44255552737E+03  0.00000000000E+00 0. -1.
        -12    1    5    5    0    0  0.34607896382E+02  0.46838299384E+02  0.14024509538E+04  0.14036595779E+04  0.00000000000E+00 0.  1.
          5    1    4    4  501    0 -0.50698040878E+02 -0.25215735608E+02 -0.34339545906E+02  0.66353609428E+02  0.41800000000E+01 0. -1.
         -5    1    4    4    0  501  0.57509506639E+02 -0.85295985677E+02 -0.15580079347E+03  0.18674610617E+03  0.41800000000E+01 0. -1.
</event>
<event>
11    1  0.1002087E-008  0.1338387E+03  0.7561462E-02  0.1114640E+00
         22   -1    0    0    0    0  0.00000000000E+00  0.00000000000E+00  0.70871662167E+03  0.70871662167E+03  0.00000000000E+00 0.  1.
         22   -1    0    0    0    0 -0.00000000000E+00 -0.00000000000E+00 -0.56964645957E+03  0.56964645957E+03  0.00000000000E+00 0.  1.
         24    2    1    2    0    0 -0.82551994886E+01 -0.26465718026E+02 -0.22746358427E+03  0.24295622249E+03  0.80743181308E+02 0.  0.
         25    2    1    2    0    0 -0.14177179001E+02 -0.15772014562E+02 -0.31912331628E+03  0.34342334173E+03  0.12510056676E+03 0.  0.
        -24    2    1    2    0    0  0.22432378489E+02  0.42237732588E+02  0.68565706266E+03  0.69198351702E+03  0.80176945593E+02 0.  0.
        -13    1    3    3    0    0  0.55571727481E+01 -0.56574805300E+00 -0.20723007726E+03  0.20730534764E+03  0.00000000000E+00 0.  1.
         14    1    3    3    0    0 -0.13812372237E+02 -0.25899969973E+02 -0.20233507010E+02  0.35650874846E+02  0.00000000000E+00 0. -1.
         13    1    5    5    0    0  0.68114466821E+00  0.19823467829E+02  0.32462879769E+02  0.38043033498E+02  0.00000000000E+00 0. -1.
        -14    1    5    5    0    0  0.21751233821E+02  0.22414264759E+02  0.65319418289E+03  0.65394048353E+03  0.00000000000E+00 0.  1.
          5    1    4    4  501    0  0.29276469377E+02  0.11991168881E+02 -0.15596903379E+02  0.35519509925E+02  0.41800000000E+01 0.  1.
         -5    1    4    4    0  501 -0.43453648378E+02 -0.27763183443E+02 -0.30352641290E+03  0.30790383180E+03  0.41800000000E+01 0.  1.
</event>
<event>
11    1  0.1002087E-008  0.1305320E+03  0.7561462E-02  0.1118617E+00
         22   -1    0    0    0    0  0.00000000000E+00  0.00000000000E+00  0.15445086995E+03  0.15445086995E+03  0.00000000000E+00 0.  1.
         22   -1    0    0    0    0 -0.00000000000E+00 -0.00000000000E+00 -0.28387227085E+04  0.28387227085E+04  0.00000000000E+00 0. -1.
         24    2    1    2    0    0 -0.40849103740E+01 -0.39277472121E+02 -0.24214907630E+04  0.24232222732E+04  0.82639360581E+02 0.  0.
         25    2    1    2    0    0  0.19123127766E+02  0.97101804087E+01 -0.39360030161E+03  0.41355650224E+03  0.12509117274E+03 0.  0.
        -24    2    1    2    0    0 -0.15038217392E+02  0.29567291712E+02  0.13081922608E+03  0.15639480295E+03  0.79027158341E+02 0.  0.
        -11    1    3    3    0    0  0.19031079316E+01 -0.57802580667E+01 -0.11671013920E+02  0.13162285859E+02  0.00000000000E+00 0.  1.
         12    1    3    3    0    0 -0.59880183056E+01 -0.33497214054E+02 -0.24098197491E+04  0.24100599874E+04  0.00000000000E+00 0. -1.
         11    1    5    5    0    0 -0.65509220325E+01 -0.10220844078E+02 -0.60806813100E+01  0.13577736127E+02  0.00000000000E+00 0. -1.
        -12    1    5    5    0    0 -0.84872953597E+01  0.39788135790E+02  0.13689990739E+03  0.14281706682E+03  0.00000000000E+00 0.  1.
          5    1    4    4  501    0  0.15451909571E+02 -0.15791204937E+02 -0.37051710816E+01  0.22788689201E+02  0.41800000000E+01 0. -1.
         -5    1    4    4    0  501  0.36712181951E+01  0.25501385346E+02 -0.38989513053E+03  0.39076781304E+03  0.41800000000E+01 0. -1.
</event>
<event>
11    1  0.1002087E-008  0.1867097E+03  0.7561462E-02  0.1064341E+00
         22   -1    0    0    0    0  0.00000000000E+00  0.00000000000E+00  0.53660831244E+03  0.53660831244E+03  0.00000000000E+00 0. -1.
         22   -1    0    0    0    0 -0.00000000000E+00 -0.00000000000E+00 -0.23449352637E+04  0.23449352637E+04  0.00000000000E+00 0.  1.
         24    2    1    2    0    0  0.12454145451E+03 -0.28174976976E+02 -0.10200650962E+04  0.10311481177E+04  0.80182522401E+02 0.  0.
         25    2    1    2    0    0 -0.14458498102E+03  0.53136552869E+02 -0.13083423839E+04  0.13233048229E+04  0.12509017007E+03 0.  0.
        -24    2    1    2    0    0  0.20043526511E+02 -0.24961575893E+02  0.52008052885E+03  0.52709063561E+03  0.79473004456E+02 0.  0.
        -13    1    3    3    0    0  0.41178208630E+02 -0.48202779206E+02 -0.36018648190E+03  0.36572319387E+03  0.00000000000E+00 0.  1.
         14    1    3    3    0    0  0.83363245878E+02  0.20027802230E+02 -0.65987861427E+03  0.66542492379E+03  0.00000000000E+00 0. -1.
         11    1    5    5    0    0  0.22496168800E+02  0.67249549647E+01  0.44424228814E+03  0.44486235309E+03  0.00000000000E+00 0. -1.
        -12    1    5    5    0    0 -0.24526422887E+01 -0.31686530858E+02  0.75838240712E+02  0.82228282520E+02  0.00000000000E+00 0.  1.
          5    1    4    4  501    0 -0.52431137021E+01  0.57467512290E+02 -0.45015072217E+03  0.45385366615E+03  0.41800000000E+01 0. -1.
         -5    1    4    4    0  501 -0.13934186732E+03 -0.43309594207E+01 -0.85819166175E+03  0.86945115670E+03  0.41800000000E+01 0. -1.
</event>
<event>
11    1  0.1002087E-008  0.1323030E+03  0.7561462E-02  0.1116471E+00
         22   -1    0    0    0    0  0.00000000000E+00  0.00000000000E+00  0.30865219546E+03  0.30865219546E+03  0.00000000000E+00 0. -1.
         22   -1    0    0    0    0 -0.00000000000E+00 -0.00000000000E+00 -0.25959158377E+03  0.25959158377E+03  0.00000000000E+00 0.  1.
        -24    2    1    2    0    0 -0.41388213239E+01  0.34641544952E+02 -0.18872045554E+03  0.20837058670E+03  0.81152477390E+02 0.  0.
         25    2    1    2    0    0  0.35073364703E+02 -0.61220590337E-03  0.29996599901E+02  0.13333304764E+03  0.12509102556E+03 0.  0.
         24    2    1    2    0    0 -0.30934543379E+02 -0.34640932746E+02  0.20778446733E+03  0.22654014488E+03  0.77389354446E+02 0.  0.
        -11    1    5    5    0    0 -0.14933364791E+02  0.62929908934E+01  0.22517126126E+01  0.16360847413E+02  0.00000000000E+00 0.  1.
         12    1    5    5    0    0 -0.16001178588E+02 -0.40933923639E+02  0.20553275472E+03  0.21017929746E+03  0.00000000000E+00 0. -1.
         11    1    3    3    0    0  0.11689720912E+02 -0.15333997668E+02 -0.92213995240E+01  0.21373237206E+02  0.00000000000E+00 0. -1.
        -12    1    3    3    0    0 -0.15828542236E+02  0.49975542620E+02 -0.17949905601E+03  0.18699734950E+03  0.00000000000E+00 0.  1.
          5    1    4    4  501    0  0.21585912217E+02 -0.43390227914E+02 -0.30607991108E+02  0.57471601721E+02  0.41800000000E+01 0. -1.
         -5    1    4    4    0  501  0.13487452486E+02  0.43389615708E+02  0.60604591010E+02  0.75861445921E+02  0.41800000000E+01 0. -1.
</event>
<event>
11    1  0.1002087E-008  0.1298730E+03  0.7561462E-02  0.1119425E+00
         22   -1    0    0    0    0  0.00000000000E+00  0.00000000000E+00  0.51438992132E+03  0.51438992132E+03  0.00000000000E+00 0. -1.
         22   -1    0    0    0    0 -0.00000000000E+00 -0.00000000000E+00 -0.15676983600E+03  0.15676983600E+03  0.00000000000E+00 0. -1.
         24    2    1    2    0    0 -0.16334734849E+02 -0.25171226502E+02 -0.99058029288E+02  0.13056817511E+03  0.79593598858E+02 0.  0.
         25    2    1    2    0    0 -0.18982246870E+02  0.11982386762E+02  0.72027522844E+02  0.14607823081E+03  0.12508789782E+03 0.  0.
        -24    2    1    2    0    0  0.35316981720E+02  0.13188839740E+02  0.38465059176E+03  0.39451335139E+03  0.79142099996E+02 0.  0.
        -11    1    3    3    0    0  0.83647839498E+01  0.14308737198E+02  0.43687988857E+01  0.17140477661E+02  0.00000000000E+00 0.  1.
         12    1    3    3    0    0 -0.24699518799E+02 -0.39479963700E+02 -0.10342682817E+03  0.11342769745E+03  0.00000000000E+00 0. -1.
         13    1    5    5    0    0  0.13548085679E+02  0.22616733183E+02  0.35745113754E+03  0.35842207378E+03  0.00000000000E+00 0. -1.
        -14    1    5    5    0    0  0.21768896041E+02 -0.94278934424E+01  0.27199454227E+02  0.36091277614E+02  0.00000000000E+00 0.  1.
          5    1    4    4  501    0 -0.35900924067E+01  0.47837040341E+02  0.90646752462E+02  0.10264296042E+03  0.41800000000E+01 0. -1.
         -5    1    4    4    0  501 -0.15392154464E+02 -0.35854653579E+02 -0.18619229619E+02  0.43435270391E+02  0.41800000000E+01 0. -1.
</event>
<event>
11    1  0.1002087E-008  0.2059410E+03  0.7561462E-02  0.1050400E+00
         22   -1    0    0    0    0  0.00000000000E+00  0.00000000000E+00  0.33871083757E+03  0.33871083757E+03  0.00000000000E+00 0. -1.
         22   -1    0    0    0    0 -0.00000000000E+00 -0.00000000000E+00 -0.69986388264E+03  0.69986388264E+03  0.00000000000E+00 0.  1.
         24    2    1    2    0    0  0.27403753554E+02  0.33037522938E+02 -0.40306264804E+03  0.41321402898E+03  0.80273855435E+02 0.  0.
         25    2    1    2    0    0 -0.16677148736E+03  0.51352110598E+02 -0.21939432427E+03  0.30697056524E+03  0.12508912879E+03 0.  0.
        -24    2    1    2    0    0  0.13936773381E+03 -0.84389633536E+02  0.26130392724E+03  0.31839012599E+03  0.80916960307E+02 0.  0.
        -11    1    3    3    0    0  0.41439281840E+02 -0.70128308415E+01 -0.27771228365E+03  0.28087453848E+03  0.00000000000E+00 0.  1.
         12    1    3    3    0    0 -0.14035528287E+02  0.40050353779E+02 -0.12535036440E+03  0.13233949050E+03  0.00000000000E+00 0. -1.
         13    1    5    5    0    0  0.69963563044E+02 -0.58708474294E+02  0.20805942299E+03  0.22722303713E+03  0.00000000000E+00 0. -1.
        -14    1    5    5    0    0  0.69404170765E+02 -0.25681159241E+02  0.53244504252E+02  0.91167088868E+02  0.00000000000E+00 0.  1.
          5    1    4    4  501    0 -0.16186885792E+03 -0.63792459350E+00 -0.15760265153E+03  0.22596017853E+03  0.41800000000E+01 0.  1.
         -5    1    4    4    0  501 -0.49026294421E+01  0.51990035191E+02 -0.61791672734E+02  0.81010386704E+02  0.41800000000E+01 0.  1.
</event>
<event>
11    1  0.1002087E-008  0.1380227E+03  0.7561462E-02  0.1109787E+00
         22   -1    0    0    0    0  0.00000000000E+00  0.00000000000E+00  0.31888973486E+03  0.31888973486E+03  0.00000000000E+00 0.  1.
         22   -1    0    0    0    0 -0.00000000000E+00 -0.00000000000E+00 -0.24708575374E+03  0.24708575374E+03  0.00000000000E+00 0.  1.
         24    2    1    2    0    0  0.43467660851E+01 -0.31234732542E+02 -0.15377935298E+03  0.17678069614E+03  0.81294663004E+02 0.  0.
         25    2    1    2    0    0 -0.14023009433E+02  0.84236200615E+02  0.11411801615E+02  0.15188855192E+03  0.12509005037E+03 0.  0.
        -24    2    1    2    0    0  0.96762433478E+01 -0.53001468072E+02  0.21417153249E+03  0.23730624053E+03  0.86844810798E+02 0.  0.
        -13    1    3    3    0    0 -0.13687436446E+02  0.79020070060E+01 -0.12254371691E+03  0.12355869125E+03  0.00000000000E+00 0.  1.
         14    1    3    3    0    0  0.18034202531E+02 -0.39136739548E+02 -0.31235636077E+02  0.53222004891E+02  0.00000000000E+00 0. -1.
         13    1    5    5    0    0  0.41636616480E+01 -0.45444848975E+02  0.34040816757E+02  0.56932833955E+02  0.00000000000E+00 0. -1.
        -14    1    5    5    0    0  0.55125816997E+01 -0.75566190974E+01  0.18013071574E+03  0.18037340658E+03  0.00000000000E+00 0.  1.
          5    1    4    4  501    0  0.14669704075E+02  0.10316435334E+03  0.34986677699E+02  0.10999829105E+03  0.41800000000E+01 0.  1.
         -5    1    4    4    0  501 -0.28692713507E+02 -0.18928152721E+02 -0.23574876084E+02  0.41890260876E+02  0.41800000000E+01 0.  1.
</event>
<event>
11    1  0.1002087E-008  0.1742367E+03  0.7561462E-02  0.1074402E+00
         22   -1    0    0    0    0  0.00000000000E+00  0.00000000000E+00  0.12777311640E+03  0.12777311640E+03  0.00000000000E+00 0. -1.
         22   -1    0    0    0    0 -0.00000000000E+00 -0.00000000000E+00 -0.11756185439E+04  0.11756185439E+04  0.00000000000E+00 0. -1.
        -24    2    1    2    0    0  0.65050093208E+02  0.23012815861E+02 -0.86108743938E+03  0.86821673413E+03  0.86992038930E+02 0.  0.
         25    2    1    2    0    0 -0.10073010176E+03  0.92742683312E+02 -0.21888418648E+03  0.28689037292E+03  0.12509212714E+03 0.  0.
         24    2    1    2    0    0  0.35680008556E+02 -0.11575549917E+03  0.32126198317E+02  0.14828455330E+03  0.79270533798E+02 0.  0.
        -13    1    5    5    0    0  0.10209146420E+02  0.10924449109E+02  0.75599939724E+01  0.16754813273E+02  0.00000000000E+00 0.  1.
         14    1    5    5    0    0  0.25470862136E+02 -0.12667994828E+03  0.24566204345E+02  0.13152974002E+03  0.00000000000E+00 0. -1.
         13    1    3    3    0    0  0.39126897294E+02 -0.24218252666E+02 -0.59217322442E+03  0.59395838707E+03  0.00000000000E+00 0. -1.
        -14    1    3    3    0    0  0.25923195914E+02  0.47231068527E+02 -0.26891421496E+03  0.27425834706E+03  0.00000000000E+00 0.  1.
          5    1    4    4  501    0 -0.87920817418E+02  0.69416008481E+02 -0.23144813735E+03  0.25716602624E+03  0.41800000000E+01 0.  1.
         -5    1    4    4    0  501 -0.12809284345E+02  0.23326674831E+02  0.12563950867E+02  0.29724346679E+02  0.41800000000E+01 0.  1.
</event>
<event>
11    1  0.1002087E-008  0.1391933E+03  0.7561462E-02  0.1108463E+00
         22   -1    0    0    0    0  0.00000000000E+00  0.00000000000E+00  0.25236151988E+04  0.25236151988E+04  0.00000000000E+00 0.  1.
         22   -1    0    0    0    0 -0.00000000000E+00 -0.00000000000E+00 -0.16023448104E+02  0.16023448104E+02  0.00000000000E+00 0. -1.
         24    2    1    2    0    0 -0.59107083927E+01 -0.59374555228E+01  0.17412244597E+03  0.19243008048E+03  0.81489384779E+02 0.  0.
         25    2    1    2    0    0  0.64323512888E+02  0.17658827830E+02  0.92061880307E+03  0.93146987353E+03  0.12509115165E+03 0.  0.
        -24    2    1    2    0    0 -0.58412804495E+02 -0.11721372307E+02  0.14128505016E+04  0.14157386929E+04  0.67971024877E+02 0.  0.
        -13    1    3    3    0    0 -0.14678704473E+02 -0.41629552593E+02  0.79711559532E+02  0.91117598395E+02  0.00000000000E+00 0.  1.
         14    1    3    3    0    0  0.87679960803E+01  0.35692097071E+02  0.94410886437E+02  0.10131248209E+03  0.00000000000E+00 0. -1.
         13    1    5    5    0    0 -0.13222249071E+02  0.32931976558E+01  0.44033433806E+02  0.46093560440E+02  0.00000000000E+00 0. -1.
        -14    1    5    5    0    0 -0.45190555424E+02 -0.15014569963E+02  0.13688170678E+04  0.13696451324E+04  0.00000000000E+00 0.  1.
          5    1    4    4  501    0  0.26941719008E+02  0.43246906590E+02  0.13221804800E+03  0.14175766565E+03  0.41800000000E+01 0. -1.
         -5    1    4    4    0  501  0.37381793880E+02 -0.25588078760E+02  0.78840075507E+03  0.78971220788E+03  0.41800000000E+01 0. -1.
</event>
<event>
11    1  0.1002087E-008  0.1391946E+03  0.7561462E-02  0.1108461E+00
         22   -1    0    0    0    0  0.00000000000E+00  0.00000000000E+00  0.10915407966E+04  0.10915407966E+04  0.00000000000E+00 0.  1.
         22   -1    0    0    0    0 -0.00000000000E+00 -0.00000000000E+00 -0.42870584166E+03  0.42870584166E+03  0.00000000000E+00 0. -1.
        -24    2    1    2    0    0 -0.62406869192E+02  0.46472320450E+00 -0.38434079478E+03  0.39685213659E+03  0.76674236192E+02 0.  0.
         25    2    1    2    0    0  0.33862151136E+02  0.33467805695E+02  0.88993278151E+02  0.16072912286E+03  0.12508920051E+03 0.  0.
         24    2    1    2    0    0  0.28544718057E+02 -0.33932528899E+02  0.95818247161E+03  0.96266537884E+03  0.81515429612E+02 0.  0.
        -13    1    5    5    0    0  0.76026583536E+01 -0.31481917026E+02  0.90317206144E+03  0.90375255688E+03  0.00000000000E+00 0.  1.
         14    1    5    5    0    0  0.20942059703E+02 -0.24506118734E+01  0.55010410178E+02  0.58912821958E+02  0.00000000000E+00 0. -1.
         11    1    3    3    0    0 -0.58116958458E+02  0.23569688336E+02 -0.34778632000E+03  0.35339557927E+03  0.00000000000E+00 0. -1.
        -12    1    3    3    0    0 -0.42899107341E+01 -0.23104965131E+02 -0.36554474781E+02  0.43456557323E+02  0.00000000000E+00 0.  1.
          5    1    4    4  501    0 -0.44961586255E+02  0.29276508737E+02  0.45713193328E+02  0.70610386252E+02  0.41800000000E+01 0.  1.
         -5    1    4    4    0  501  0.78823737390E+02  0.41912969572E+01  0.43280084823E+02  0.90118736613E+02  0.41800000000E+01 0.  1.
</event>
<event>
11    1  0.1002087E-008  0.1313295E+03  0.7561462E-02  0.1117646E+00
         22   -1    0    0    0    0  0.00000000000E+00  0.00000000000E+00  0.85788585538E+03  0.85788585538E+03  0.00000000000E+00 0.  1.
         22   -1    0    0    0    0 -0.00000000000E+00 -0.00000000000E+00 -0.13257067731E+03  0.13257067731E+03  0.00000000000E+00 0. -1.
        -24    2    1    2    0    0  0.10719398360E+02  0.14858915028E+02 -0.77301022056E+02  0.11314102408E+03  0.80558987474E+02 0.  0.
         25    2    1    2    0    0 -0.44840333071E+02 -0.33196676663E+02  0.10145323752E+03  0.17044927083E+03  0.12509004642E+03 0.  0.
         24    2    1    2    0    0  0.34120934711E+02  0.18337761635E+02  0.70116296261E+03  0.70686623778E+03  0.80807588092E+02 0.  0.
        -13    1    5    5    0    0  0.54306313505E+02  0.25206495341E+01  0.60168422402E+03  0.60413527856E+03  0.00000000000E+00 0.  1.
         14    1    5    5    0    0 -0.20185378794E+02  0.15817112101E+02  0.99478738589E+02  0.10273095923E+03  0.00000000000E+00 0. -1.
         11    1    3    3    0    0 -0.12242461409E+02 -0.15737712398E+02 -0.71770802387E+02  0.74488935609E+02  0.00000000000E+00 0. -1.
        -12    1    3    3    0    0  0.22961859769E+02  0.30596627427E+02 -0.55302196696E+01  0.38652088476E+02  0.00000000000E+00 0.  1.
          5    1    4    4  501    0 -0.71980950853E+02  0.17375027293E+02  0.33437353212E+02  0.81355257045E+02  0.41800000000E+01 0.  1.
         -5    1    4    4    0  501  0.27140617782E+02 -0.50571703956E+02  0.68015884306E+02  0.89094013786E+02  0.41800000000E+01 0.  1.
</event>
<event>
11    1  0.1002087E-008  0.1759948E+03  0.7561462E-02  0.1072929E+00
         22   -1    0    0    0    0  0.00000000000E+00  0.00000000000E+00  0.53452614654E+02  0.53452614654E+02  0.00000000000E+00 0. -1.
         22   -1    0    0    0    0 -0.00000000000E+00 -0.00000000000E+00 -0.90853687372E+03  0.90853687372E+03  0.00000000000E+00 0. -1.
         24    2    1    2    0    0  0.87124999546E+02  0.95163051215E+02 -0.53796000111E+03  0.55875296835E+03  0.78467477278E+02 0.  0.
         25    2    1    2    0    0 -0.78381960289E+02 -0.76122153281E+02 -0.20661570976E+03  0.26509567805E+03  0.12508938038E+03 0.  0.
        -24    2    1    2    0    0 -0.87430392569E+01 -0.19040897934E+02 -0.11050854820E+03  0.13814084197E+03  0.80198232310E+02 0.  0.
        -13    1    3    3    0    0  0.12556755234E+02 -0.11958831261E+02 -0.34012284643E+02  0.38177496694E+02  0.00000000000E+00 0.  1.
         14    1    3    3    0    0  0.74568244312E+02  0.10712188248E+03 -0.50394771646E+03  0.52057547166E+03  0.00000000000E+00 0. -1.
         11    1    5    5    0    0  0.23363213080E+02 -0.24927535149E+02 -0.15191941608E+02  0.37390063170E+02  0.00000000000E+00 0. -1.
        -12    1    5    5    0    0 -0.32106252337E+02  0.58866372149E+01 -0.95316606594E+02  0.10075077880E+03  0.00000000000E+00 0.  1.
          5    1    4    4  501    0  0.53888106483E+01 -0.26861258976E+02  0.85185301456E+01  0.28993176263E+02  0.41800000000E+01 0. -1.
         -5    1    4    4    0  501 -0.83770770937E+02 -0.49260894305E+02 -0.21513423991E+03  0.23610250179E+03  0.41800000000E+01 0. -1.
</event>
<event>
11    1  0.1002087E-008  0.2469448E+03  0.7561462E-02  0.1025539E+00
         22   -1    0    0    0    0  0.00000000000E+00  0.00000000000E+00  0.46401151856E+03  0.46401151856E+03  0.00000000000E+00 0. -1.
         22   -1    0    0    0    0 -0.00000000000E+00 -0.00000000000E+00 -0.60749244006E+03  0.60749244006E+03  0.00000000000E+00 0.  1.
        -24    2    1    2    0    0  0.20046972482E+02 -0.43722587450E+02 -0.32604262887E+03  0.33939929376E+03  0.81083531042E+02 0.  0.
         25    2    1    2    0    0 -0.20796757256E+03 -0.56975803235E+02 -0.17754487397E+03  0.30604830294E+03  0.12508648236E+03 0.  0.
         24    2    1    2    0    0  0.18792060008E+03  0.10069839069E+03  0.36010658134E+03  0.42605636192E+03  0.79955961541E+02 0.  0.
        -13    1    5    5    0    0  0.37941953473E+02  0.46248325391E+02  0.15537179451E+03  0.16648992151E+03  0.00000000000E+00 0.  1.
         14    1    5    5    0    0  0.14997864661E+03  0.54450065294E+02  0.20473478683E+03  0.25956644041E+03  0.00000000000E+00 0. -1.
         11    1    3    3    0    0 -0.31727784143E+02 -0.17328508322E+02 -0.12755184534E+03  0.13257602626E+03  0.00000000000E+00 0. -1.
        -12    1    3    3    0    0  0.51774756625E+02 -0.26394079129E+02 -0.19849078352E+03  0.20682326750E+03  0.00000000000E+00 0.  1.
          5    1    4    4  501    0 -0.15984837265E+03 -0.95370768764E+02 -0.14688291942E+03  0.23714795000E+03  0.41800000000E+01 0.  1.
         -5    1    4    4    0  501 -0.48119199913E+02  0.38394965529E+02 -0.30661954556E+02  0.68900352942E+02  0.41800000000E+01 0.  1.
</event>
<event>
11    1  0.1002087E-008  0.1326801E+03  0.7561462E-02  0.1116019E+00
         22   -1    0    0    0    0  0.00000000000E+00  0.00000000000E+00  0.29779589241E+03  0.29779589241E+03  0.00000000000E+00 0.  1.
         22   -1    0    0    0    0 -0.00000000000E+00 -0.00000000000E+00 -0.38784278183E+03  0.38784278183E+03  0.00000000000E+00 0.  1.
        -24    2    1    2    0    0 -0.32938566390E+02 -0.28317264821E+02 -0.33005482432E+03  0.34249359961E+03  0.80491378887E+02 0.  0.
         25    2    1    2    0    0  0.54048304133E+02  0.27142892166E+02  0.72736329293E+02  0.15683268536E+03  0.12509181358E+03 0.  0.
         24    2    1    2    0    0 -0.21109737743E+02  0.11743726551E+01  0.16727160561E+03  0.18631238927E+03  0.79281247295E+02 0.  0.
        -11    1    5    5    0    0  0.13448919358E+02  0.25284785640E+02  0.11825306320E+03  0.12167161038E+03  0.00000000000E+00 0.  1.
         12    1    5    5    0    0 -0.34558657101E+02 -0.24110412985E+02  0.49018542406E+02  0.64640778882E+02  0.00000000000E+00 0. -1.
         11    1    3    3    0    0  0.11623559887E+02 -0.65977865033E+01 -0.59683518224E+01  0.14637593882E+02  0.00000000000E+00 0. -1.
        -12    1    3    3    0    0 -0.44562126277E+02 -0.21719478318E+02 -0.32408647250E+03  0.32785600573E+03  0.00000000000E+00 0.  1.
          5    1    4    4  501    0  0.44665601700E+02 -0.21327981248E+02 -0.18503957030E+02  0.53007240875E+02  0.41800000000E+01 0.  1.
         -5    1    4    4    0  501  0.93827024324E+01  0.48470873414E+02  0.91240286323E+02  0.10382544449E+03  0.41800000000E+01 0.  1.
</event>
<event>
11    1  0.1002087E-008  0.1447316E+03  0.7561462E-02  0.1102387E+00
         22   -1    0    0    0    0  0.00000000000E+00  0.00000000000E+00  0.24947554331E+03  0.24947554331E+03  0.00000000000E+00 0. -1.
         22   -1    0    0    0    0 -0.00000000000E+00 -0.00000000000E+00 -0.35320562747E+03  0.35320562747E+03  0.00000000000E+00 0.  1.
         24    2    1    2    0    0  0.37610951313E+02  0.51234771062E+02 -0.25701849147E+03  0.27696662280E+03  0.81316786470E+02 0.  0.
         25    2    1    2    0    0  0.33348859184E+02 -0.77106081698E+02  0.19321655890E+02  0.15191615306E+03  0.12509075477E+03 0.  0.
        -24    2    1    2    0    0 -0.70959810497E+02  0.25871310636E+02  0.13396675142E+03  0.17379839492E+03  0.80957841929E+02 0.  0.
        -11    1    3    3    0    0 -0.11744741019E+02  0.29928775377E+02 -0.18116198395E+03  0.18399275792E+03  0.00000000000E+00 0.  1.
         12    1    3    3    0    0  0.49355692332E+02  0.21305995685E+02 -0.75856507523E+02  0.92973864883E+02  0.00000000000E+00 0. -1.
         11    1    5    5    0    0 -0.80022760459E+02  0.26576037690E+02  0.13961079651E+03  0.16309844412E+03  0.00000000000E+00 0. -1.
        -12    1    5    5    0    0  0.90629499616E+01 -0.70472705395E+00 -0.56440450878E+01  0.10699950803E+02  0.00000000000E+00 0.  1.
          5    1    4    4  501    0  0.64946087426E+01 -0.29368245644E+02  0.70547450358E+02  0.76805526800E+02  0.41800000000E+01 0.  1.
         -5    1    4    4    0  501  0.26854250442E+02 -0.47737836054E+02 -0.51225794468E+02  0.75110626258E+02  0.41800000000E+01 0.  1.
</event>
<event>
11    1  0.1002087E-008  0.3247829E+03  0.7561462E-02  0.9902158E-01
         22   -1    0    0    0    0  0.00000000000E+00  0.00000000000E+00  0.11364878974E+04  0.11364878974E+04  0.00000000000E+00 0. -1.
         22   -1    0    0    0    0 -0.00000000000E+00 -0.00000000000E+00 -0.58687139691E+03  0.58687139691E+03  0.00000000000E+00 0. -1.
        -24    2    1    2    0    0 -0.26539973538E+03 -0.14812663971E+03 -0.42091707028E+03  0.52535656261E+03  0.80310752017E+02 0.  0.
         25    2    1    2    0    0  0.23954959733E+03  0.15024587819E+03  0.10185206711E+03  0.32554934605E+03  0.12510275634E+03 0.  0.
         24    2    1    2    0    0  0.25850138054E+02 -0.21192384813E+01  0.86868150370E+03  0.87245338569E+03  0.76776523238E+02 0.  0.
        -13    1    5    5    0    0 -0.21566116585E+02  0.18679181471E+02  0.25486240669E+03  0.25645439273E+03  0.00000000000E+00 0.  1.
         14    1    5    5    0    0  0.47416254639E+02 -0.20798419952E+02  0.61381909701E+03  0.61599899296E+03  0.00000000000E+00 0. -1.
         11    1    3    3    0    0 -0.17120634352E+03 -0.13600119816E+03 -0.30971881965E+03  0.37912225628E+03  0.00000000000E+00 0. -1.
        -12    1    3    3    0    0 -0.94193391868E+02 -0.12125441549E+02 -0.11119825063E+03  0.14623430633E+03  0.00000000000E+00 0.  1.
          5    1    4    4  501    0  0.86346726558E+02  0.12717185100E+03  0.59474770715E+02  0.16487315617E+03  0.41800000000E+01 0.  1.
         -5    1    4    4    0  501  0.15320287077E+03  0.23074027190E+02  0.42377296393E+02  0.16067618988E+03  0.41800000000E+01 0.  1.
</event>
<event>
11    1  0.1002087E-008  0.2220182E+03  0.7561462E-02  0.1039961E+00
         22   -1    0    0    0    0  0.00000000000E+00  0.00000000000E+00  0.21902883351E+04  0.21902883351E+04  0.00000000000E+00 0. -1.
         22   -1    0    0    0    0 -0.00000000000E+00 -0.00000000000E+00 -0.14324333025E+03  0.14324333025E+03  0.00000000000E+00 0. -1.
        -24    2    1    2    0    0 -0.87050501435E+02  0.18431730143E+03  0.30188624357E+02  0.22110121170E+03  0.80148208759E+02 0.  0.
         25    2    1    2    0    0  0.12195293603E+03 -0.10038989819E+03  0.17617401528E+03  0.26765170789E+03  0.12509797283E+03 0.  0.
         24    2    1    2    0    0 -0.34902434599E+02 -0.83927403239E+02  0.18406823652E+04  0.18447787458E+04  0.82674435632E+02 0.  0.
        -11    1    5    5    0    0 -0.77917618887E+00  0.77353269565E+01  0.19803452669E+02  0.21274847503E+02  0.00000000000E+00 0.  1.
         12    1    5    5    0    0 -0.34123258410E+02 -0.91662730195E+02  0.18208789126E+04  0.18235038983E+04  0.00000000000E+00 0. -1.
         13    1    3    3    0    0 -0.87707140018E+02  0.95509429547E+02  0.25589418868E+02  0.13217190284E+03  0.00000000000E+00 0. -1.
        -14    1    3    3    0    0  0.65663858337E+00  0.88807871885E+02  0.45992054888E+01  0.88929308859E+02  0.00000000000E+00 0.  1.
          5    1    4    4  501    0 -0.22552645930E+02 -0.10871733028E+02  0.49456941883E+02  0.55590268194E+02  0.41800000000E+01 0.  1.
         -5    1    4    4    0  501  0.14450558196E+03 -0.89518165166E+02  0.12671707340E+03  0.21206143969E+03  0.41800000000E+01 0.  1.
</event>
<event>
11    1  0.1002087E-008  0.1616703E+03  0.7561462E-02  0.1085517E+00
         22   -1    0    0    0    0  0.00000000000E+00  0.00000000000E+00  0.72061179185E+03  0.72061179185E+03  0.00000000000E+00 0.  1.
         22   -1    0    0    0    0 -0.00000000000E+00 -0.00000000000E+00 -0.30656629761E+03  0.30656629761E+03  0.00000000000E+00 0. -1.
         24    2    1    2    0    0  0.11923948560E+02  0.50689126777E+01 -0.26622261041E+03  0.27865341968E+03  0.81273461743E+02 0.  0.
         25    2    1    2    0    0 -0.10454028141E+03 -0.39482950722E+02  0.26211627624E+03  0.31118386063E+03  0.12507149561E+03 0.  0.
        -24    2    1    2    0    0  0.92616332847E+02  0.34414038044E+02  0.41815182840E+03  0.43734080914E+03  0.81571567487E+02 0.  0.
        -11    1    3    3    0    0  0.39748885732E+02 -0.76700693996E+01 -0.77205989862E+02  0.87175505459E+02  0.00000000000E+00 0.  1.
         12    1    3    3    0    0 -0.27824937172E+02  0.12738982077E+02 -0.18901662054E+03  0.19147791422E+03  0.00000000000E+00 0. -1.
         11    1    5    5    0    0  0.53869099099E+02  0.57983664768E+02  0.21282628509E+03  0.22706609796E+03  0.00000000000E+00 0. -1.
        -12    1    5    5    0    0  0.38747233748E+02 -0.23569626725E+02  0.20532554331E+03  0.21027471118E+03  0.00000000000E+00 0.  1.
          5    1    4    4  501    0 -0.66822319038E+02 -0.81928522949E+02  0.13211581638E+03  0.16926182834E+03  0.41800000000E+01 0.  1.
         -5    1    4    4    0  501 -0.37717962369E+02  0.42445572228E+02  0.13000045986E+03  0.14192203230E+03  0.41800000000E+01 0.  1.
</event>
<event>
11    1  0.1002087E-008  0.1388707E+03  0.7561462E-02  0.1108826E+00
         22   -1    0    0    0    0  0.00000000000E+00  0.00000000000E+00  0.96585999150E+02  0.96585999150E+02  0.00000000000E+00 0.  1.
         22   -1    0    0    0    0 -0.00000000000E+00 -0.00000000000E+00 -0.17307831027E+04  0.17307831027E+04  0.00000000000E+00 0. -1.
        -24    2    1    2    0    0 -0.54682371285E+02 -0.13756039808E+02 -0.13694188602E+04  0.13731512806E+04  0.84006157482E+02 0.  0.
         25    2    1    2    0    0  0.99959052357E+02  0.18881377539E+02 -0.31153168453E+03  0.35078215250E+03  0.12509120466E+03 0.  0.
         24    2    1    2    0    0 -0.45276681072E+02 -0.51253377314E+01  0.46753441139E+02  0.10343566874E+03  0.80229710049E+02 0.  0.
        -13    1    5    5    0    0 -0.67244343339E+02 -0.13143073582E+02  0.38771233176E+02  0.78725793843E+02  0.00000000000E+00 0.  1.
         14    1    5    5    0    0  0.21967662267E+02  0.80177358505E+01  0.79822079632E+01  0.24709874901E+02  0.00000000000E+00 0. -1.
         11    1    3    3    0    0 -0.44535263057E+02 -0.15325110935E+02 -0.13527781581E+04  0.13535977962E+04  0.00000000000E+00 0. -1.
        -12    1    3    3    0    0 -0.10147108228E+02  0.15690711276E+01 -0.16640702065E+02  0.19553484468E+02  0.00000000000E+00 0.  1.
          5    1    4    4  501    0  0.51754072862E+02  0.11947945406E+02 -0.29409946806E+03  0.29888661223E+03  0.41800000000E+01 0.  1.
         -5    1    4    4    0  501  0.48204979494E+02  0.69334321331E+01 -0.17432216468E+02  0.51895540273E+02  0.41800000000E+01 0.  1.
</event>
<event>
11    1  0.1002087E-008  0.1819429E+03  0.7561462E-02  0.1068082E+00
         22   -1    0    0    0    0  0.00000000000E+00  0.00000000000E+00  0.50306461311E+03  0.50306461311E+03  0.00000000000E+00 0.  1.
         22   -1    0    0    0    0 -0.00000000000E+00 -0.00000000000E+00 -0.15719619713E+03  0.15719619713E+03  0.00000000000E+00 0.  1.
         24    2    1    2    0    0 -0.68315886564E+02 -0.11721038132E+03 -0.40120320548E+02  0.16294263446E+03  0.80841376520E+02 0.  0.
         25    2    1    2    0    0  0.12599662838E+03  0.59301231471E+02  0.16683534874E+03  0.25074440790E+03  0.12508772157E+03 0.  0.
        -24    2    1    2    0    0 -0.57680741813E+02  0.57909149847E+02  0.21915338780E+03  0.24657376788E+03  0.78037670469E+02 0.  0.
        -13    1    3    3    0    0 -0.66461980548E+02 -0.12921832961E+03 -0.40291650591E+02  0.15079120887E+03  0.00000000000E+00 0.  1.
         14    1    3    3    0    0 -0.18539060160E+01  0.12007948294E+02  0.17133004340E+00  0.12151425585E+02  0.00000000000E+00 0. -1.
         13    1    5    5    0    0  0.52286375562E+01 -0.14863314532E+02  0.20500747227E+02  0.25856090316E+02  0.00000000000E+00 0. -1.
        -14    1    5    5    0    0 -0.62909379369E+02  0.72772464379E+02  0.19865264057E+03  0.22071767757E+03  0.00000000000E+00 0.  1.
          5    1    4    4  501    0 -0.21630032230E+02  0.20207437880E+01  0.47564338900E+02  0.52457415441E+02  0.41800000000E+01 0.  1.
         -5    1    4    4    0  501  0.14762666061E+03  0.57280487682E+02  0.11927100984E+03  0.19828699246E+03  0.41800000000E+01 0.  1.
</event>
<event>
11    1  0.1002087E-008  0.2129383E+03  0.7561462E-02  0.1045733E+00
         22   -1    0    0    0    0  0.00000000000E+00  0.00000000000E+00  0.13008145296E+04  0.13008145296E+04  0.00000000000E+00 0. -1.
         22   -1    0    0    0    0 -0.00000000000E+00 -0.00000000000E+00 -0.10262314870E+04  0.10262314870E+04  0.00000000000E+00 0.  1.
         24    2    1    2    0    0 -0.63652812077E+02  0.15779255897E+03 -0.95306135833E+03  0.97142535619E+03  0.79944341628E+02 0.  0.
         25    2    1    2    0    0  0.14953424698E+03 -0.21685900450E+03  0.29919673265E+03  0.41779690649E+03  0.12508897393E+03 0.  0.
        -24    2    1    2    0    0 -0.85881434899E+02  0.59066445525E+02  0.92844766827E+03  0.93782375388E+03  0.81448479239E+02 0.  0.
        -13    1    3    3    0    0 -0.77619730042E+02  0.90365653979E+02 -0.59925518472E+03  0.61098081011E+03  0.00000000000E+00 0.  1.
         14    1    3    3    0    0  0.13966917965E+02  0.67426904993E+02 -0.35380617361E+03  0.36044454608E+03  0.00000000000E+00 0. -1.
         13    1    5    5    0    0 -0.87491400115E+02  0.70298999414E+02  0.90315824120E+03  0.91010521538E+03  0.00000000000E+00 0. -1.
        -14    1    5    5    0    0  0.16099652155E+01 -0.11232553889E+02  0.25289427068E+02  0.27718538495E+02  0.00000000000E+00 0.  1.
          5    1    4    4  501    0  0.91160766836E+02 -0.14247785446E+03  0.98193638105E+02  0.19562639747E+03  0.41800000000E+01 0.  1.
         -5    1    4    4    0  501  0.58373480141E+02 -0.74381150033E+02  0.20100309454E+03  0.22217050902E+03  0.41800000000E+01 0.  1.
</event>
<event>
11    1  0.1002087E-008  0.1314832E+03  0.7561462E-02  0.1117460E+00
         22   -1    0    0    0    0  0.00000000000E+00  0.00000000000E+00  0.23970183941E+02  0.23970183941E+02  0.00000000000E+00 0.  1.
         22   -1    0    0    0    0 -0.00000000000E+00 -0.00000000000E+00 -0.27893850349E+04  0.27893850349E+04  0.00000000000E+00 0. -1.
         24    2    1    2    0    0 -0.12636196494E+02  0.22668022192E+02 -0.14636501842E+04  0.14661199434E+04  0.81008110175E+02 0.  0.
         25    2    1    2    0    0  0.50864024198E+02 -0.10962650998E+02 -0.12091400509E+04  0.12167066118E+04  0.12509191770E+03 0.  0.
        -24    2    1    2    0    0 -0.38227827704E+02 -0.11705371195E+02 -0.92624615768E+02  0.13052866357E+03  0.82825298323E+02 0.  0.
        -11    1    3    3    0    0 -0.30803057314E+02  0.37470041567E+02 -0.54044177113E+03  0.54261417263E+03  0.00000000000E+00 0.  1.
         12    1    3    3    0    0  0.18166860820E+02 -0.14802019374E+02 -0.92320841312E+03  0.92350577078E+03  0.00000000000E+00 0. -1.
         11    1    5    5    0    0 -0.76817181852E+01  0.27787025986E+02 -0.70020182232E+02  0.75722873211E+02  0.00000000000E+00 0. -1.
        -12    1    5    5    0    0 -0.30546109519E+02 -0.39492397181E+02 -0.22604433536E+02  0.54805790363E+02  0.00000000000E+00 0.  1.
          5    1    4    4  501    0  0.75901682174E+02 -0.23465132396E+02 -0.11274754972E+04  0.11302787917E+04  0.41800000000E+01 0.  1.
         -5    1    4    4    0  501 -0.25037657976E+02  0.12502481398E+02 -0.81664553706E+02  0.86427820116E+02  0.41800000000E+01 0.  1.
</event>
<event>
11    1  0.1002087E-008  0.1575110E+03  0.7561462E-02  0.1089442E+00
         22   -1    0    0    0    0  0.00000000000E+00  0.00000000000E+00  0.10056917491E+03  0.10056917491E+03  0.00000000000E+00 0. -1.
         22   -1    0    0    0    0 -0.00000000000E+00 -0.00000000000E+00 -0.64419029129E+03  0.64419029129E+03  0.00000000000E+00 0. -1.
        -24    2    1    2    0    0  0.44787799924E+02  0.85302919547E+02 -0.47252867229E+03  0.48893418524E+03  0.80565229784E+02 0.  0.
         25    2    1    2    0    0 -0.12284297409E+02 -0.95526758931E+02 -0.38307884903E+02  0.16245423523E+03  0.12509044273E+03 0.  0.
         24    2    1    2    0    0 -0.32503502514E+02  0.10223839384E+02 -0.32784559190E+02  0.93371045737E+02  0.80512857937E+02 0.  0.
        -11    1    5    5    0    0 -0.32849094110E+01 -0.26095283149E+02  0.11837642512E+02  0.28842403033E+02  0.00000000000E+00 0.  1.
         12    1    5    5    0    0 -0.29218593104E+02  0.36319122533E+02 -0.44622201702E+02  0.64528642704E+02  0.00000000000E+00 0. -1.
         11    1    3    3    0    0 -0.47565632585E+01  0.55849837403E+02 -0.33743278599E+03  0.34205659516E+03  0.00000000000E+00 0. -1.
        -12    1    3    3    0    0  0.49544363182E+02  0.29453082145E+02 -0.13509588630E+03  0.14687759008E+03  0.00000000000E+00 0.  1.
          5    1    4    4  501    0 -0.18237050052E+02  0.18656200427E+02  0.20843681022E+02  0.33653755326E+02  0.41800000000E+01 0.  1.
         -5    1    4    4    0  501  0.59527526427E+01 -0.11418295936E+03 -0.59151565925E+02  0.12880047990E+03  0.41800000000E+01 0.  1.
</event>
<event>
11    1  0.1002087E-008  0.1654929E+03  0.7561462E-02  0.1082022E+00
         22   -1    0    0    0    0  0.00000000000E+00  0.00000000000E+00  0.73425801224E+03  0.73425801224E+03  0.00000000000E+00 0. -1.
         22   -1    0    0    0    0 -0.00000000000E+00 -0.00000000000E+00 -0.10927222875E+04  0.10927222875E+04  0.00000000000E+00 0.  1.
         24    2    1    2    0    0 -0.10721755977E+03 -0.19083169901E+02 -0.10516557164E+04  0.10606702869E+04  0.84746322834E+02 0.  0.
         25    2    1    2    0    0  0.87559021619E+02  0.19894923958E+01  0.14620660703E+03  0.21141028144E+03  0.12508954718E+03 0.  0.
        -24    2    1    2    0    0  0.19658538154E+02  0.17093677505E+02  0.54698483412E+03  0.55489973136E+03  0.89680829456E+02 0.  0.
        -13    1    3    3    0    0 -0.17564032271E+01 -0.29629497250E+02 -0.32069257300E+03  0.32206322118E+03  0.00000000000E+00 0.  1.
         14    1    3    3    0    0 -0.10546115655E+03  0.10546327349E+02 -0.73096314339E+03  0.73860706574E+03  0.00000000000E+00 0. -1.
         11    1    5    5    0    0 -0.26463996868E+01  0.24940573701E+02  0.51234939725E+03  0.51296290364E+03  0.00000000000E+00 0. -1.
        -12    1    5    5    0    0  0.22304937841E+02 -0.78468961951E+01  0.34635436870E+02  0.41936827720E+02  0.00000000000E+00 0.  1.
          5    1    4    4  501    0  0.74111828131E+02 -0.41541686357E+02  0.14191692997E+03  0.16545743316E+03  0.41800000000E+01 0.  1.
         -5    1    4    4    0  501  0.13447193488E+02  0.43531178752E+02  0.42896770620E+01  0.45952848286E+02  0.41800000000E+01 0.  1.
</event>
<event>
11    1  0.1002087E-008  0.1318938E+03  0.7561462E-02  0.1116964E+00
         22   -1    0    0    0    0  0.00000000000E+00  0.00000000000E+00  0.20730677246E+03  0.20730677246E+03  0.00000000000E+00 0.  1.
         22   -1    0    0    0    0 -0.00000000000E+00 -0.00000000000E+00 -0.12209528573E+04  0.12209528573E+04  0.00000000000E+00 0. -1.
         24    2    1    2    0    0  0.20219347064E+02  0.32383107654E+00 -0.79502210718E+03  0.79928338927E+03  0.79905310205E+02 0.  0.
         25    2    1    2    0    0 -0.42202152662E+02 -0.35577239511E+02 -0.40211030708E+03  0.42471966256E+03  0.12508929231E+03 0.  0.
        -24    2    1    2    0    0  0.21982805598E+02  0.35253408434E+02  0.18348632945E+03  0.20425657790E+03  0.79545395668E+02 0.  0.
        -11    1    3    3    0    0  0.26654120847E+02 -0.16086761701E+02 -0.11818214194E+03  0.12221393019E+03  0.00000000000E+00 0.  1.
         12    1    3    3    0    0 -0.64347737822E+01  0.16410592778E+02 -0.67683996524E+03  0.67706945908E+03  0.00000000000E+00 0. -1.
         13    1    5    5    0    0  0.38277071828E+02  0.20269678720E+02  0.39630292215E+02  0.58707360391E+02  0.00000000000E+00 0. -1.
        -14    1    5    5    0    0 -0.16294266230E+02  0.14983729714E+02  0.14385603723E+03  0.14554921751E+03  0.00000000000E+00 0.  1.
          5    1    4    4  501    0  0.21673106512E+02  0.10366909658E+02 -0.12849019366E+02  0.27563854237E+02  0.41800000000E+01 0.  1.
         -5    1    4    4    0  501 -0.63875259174E+02 -0.45944149169E+02 -0.38926128771E+03  0.39715580833E+03  0.41800000000E+01 0.  1.
</event>
<event>
11    1  0.1002087E-008  0.2030706E+03  0.7561462E-02  0.1052373E+00
         22   -1    0    0    0    0  0.00000000000E+00  0.00000000000E+00  0.23461139255E+04  0.23461139255E+04  0.00000000000E+00 0.  1.
         22   -1    0    0    0    0 -0.00000000000E+00 -0.00000000000E+00 -0.29544195451E+03  0.29544195451E+03  0.00000000000E+00 0.  1.
        -24    2    1    2    0    0  0.11519925171E+03 -0.10680939797E+03 -0.23925523186E+03  0.29760113945E+03  0.81512312811E+02 0.  0.
         25    2    1    2    0    0 -0.25103433537E+03  0.11324351209E+03  0.10121853054E+04  0.10564136754E+04  0.12509368712E+03 0.  0.
         24    2    1    2    0    0  0.13583508366E+03 -0.64341141218E+01  0.12777418974E+04  0.12875410651E+04  0.81517299975E+02 0.  0.
        -13    1    5    5    0    0  0.13471253880E+03  0.58456308562E+01  0.94507285979E+03  0.95464357213E+03  0.00000000000E+00 0.  1.
         14    1    5    5    0    0  0.11225448620E+01 -0.12279744978E+02  0.33266903761E+03  0.33289749297E+03  0.00000000000E+00 0. -1.
         11    1    3    3    0    0  0.36794391021E+02 -0.29699921902E+02 -0.18132757815E+02  0.50642960790E+02  0.00000000000E+00 0. -1.
        -12    1    3    3    0    0  0.78404860693E+02 -0.77109476067E+02 -0.22112247404E+03  0.24695817866E+03  0.00000000000E+00 0.  1.
          5    1    4    4  501    0 -0.22040401905E+02 -0.24389446109E+02  0.77566593679E+02  0.84348522527E+02  0.41800000000E+01 0.  1.
         -5    1    4    4    0  501 -0.22899393347E+03  0.13763295820E+03  0.93461871176E+03  0.97206515292E+03  0.41800000000E+01 0.  1.
</event>
<event>
11    1  0.1002087E-008  0.1405493E+03  0.7561462E-02  0.1106947E+00
         22   -1    0    0    0    0  0.00000000000E+00  0.00000000000E+00  0.36657557156E+03  0.36657557156E+03  0.00000000000E+00 0. -1.
         22   -1    0    0    0    0 -0.00000000000E+00 -0.00000000000E+00 -0.54033696532E+03  0.54033696532E+03  0.00000000000E+00 0.  1.
         24    2    1    2    0    0  0.50879621417E+02  0.38514711698E+02 -0.48101542288E+03  0.49170127116E+03  0.79512163370E+02 0.  0.
         25    2    1    2    0    0 -0.69260248206E+02 -0.23560218383E+02  0.63518474426E+02  0.15822273309E+03  0.12509105005E+03 0.  0.
        -24    2    1    2    0    0  0.18380626788E+02 -0.14954493315E+02  0.24373555469E+03  0.25698853262E+03  0.77939726494E+02 0.  0.
        -13    1    3    3    0    0  0.57977397537E+02  0.34238149975E+02 -0.47824832754E+03  0.48296489762E+03  0.00000000000E+00 0.  1.
         14    1    3    3    0    0 -0.70977761201E+01  0.42765617226E+01 -0.27670953347E+01  0.87363735388E+01  0.00000000000E+00 0. -1.
         11    1    5    5    0    0  0.78406079521E+01  0.24714501745E+01  0.23447039538E+03  0.23461446994E+03  0.00000000000E+00 0. -1.
        -12    1    5    5    0    0  0.10540018836E+02 -0.17425943489E+02  0.92651593168E+01  0.22374062678E+02  0.00000000000E+00 0.  1.
          5    1    4    4  501    0  0.17688681192E+02 -0.14003268680E+02  0.66757470102E+02  0.70590461044E+02  0.41800000000E+01 0. -1.
         -5    1    4    4    0  501 -0.86948929398E+02 -0.95569497028E+01 -0.32389956757E+01  0.87632272047E+02  0.41800000000E+01 0. -1.
</event>
<event>
11    1  0.1002087E-008  0.1314770E+03  0.7561462E-02  0.1117467E+00
         22   -1    0    0    0    0  0.00000000000E+00  0.00000000000E+00  0.43975808254E+03  0.43975808254E+03  0.00000000000E+00 0.  1.
         22   -1    0    0    0    0 -0.00000000000E+00 -0.00000000000E+00 -0.21193159068E+04  0.21193159068E+04  0.00000000000E+00 0.  1.
         24    2    1    2    0    0  0.15571011856E+02 -0.37235607594E+02 -0.20546053548E+04  0.20565767350E+04  0.80472083128E+02 0.  0.
         25    2    1    2    0    0 -0.34520362050E+02  0.38870897819E+02  0.19485778611E+02  0.13685988409E+03  0.12509328604E+03 0.  0.
        -24    2    1    2    0    0  0.18949350194E+02 -0.16352902252E+01  0.35556175194E+03  0.36563737022E+03  0.83094975847E+02 0.  0.
        -11    1    3    3    0    0  0.13319003633E+02  0.13811582980E+02 -0.13438812804E+04  0.13440182482E+04  0.00000000000E+00 0.  1.
         12    1    3    3    0    0  0.22520082230E+01 -0.51047190574E+02 -0.71072407435E+03  0.71255848677E+03  0.00000000000E+00 0. -1.
         13    1    5    5    0    0  0.48630900457E+02 -0.14371524859E+02  0.17456265690E+03  0.18177905927E+03  0.00000000000E+00 0. -1.
        -14    1    5    5    0    0 -0.29681550264E+02  0.12736234634E+02  0.18099909504E+03  0.18385831095E+03  0.00000000000E+00 0.  1.
          5    1    4    4  501    0  0.13358676412E+02  0.50771416355E+02  0.54830118239E+02  0.76026345567E+02  0.41800000000E+01 0. -1.
         -5    1    4    4    0  501 -0.47879038463E+02 -0.11900518537E+02 -0.35344339627E+02  0.60833538523E+02  0.41800000000E+01 0. -1.
</event>
<event>
11    1  0.1002087E-008  0.2636322E+03  0.7561462E-02  0.1016878E+00
         22   -1    0    0    0    0  0.00000000000E+00  0.00000000000E+00  0.23570011471E+04  0.23570011471E+04  0.00000000000E+00 0. -1.
         22   -1    0    0    0    0 -0.00000000000E+00 -0.00000000000E+00 -0.60541961116E+03  0.60541961116E+03  0.00000000000E+00 0.  1.
        -24    2    1    2    0    0  0.28104401154E+02 -0.77630596373E+01 -0.47824768670E+03  0.48598023359E+03  0.81276165917E+02 0.  0.
         25    2    1    2    0    0 -0.14348732038E+03 -0.19311840757E+03  0.41371875185E+02  0.27430077144E+03  0.12508377475E+03 0.  0.
         24    2    1    2    0    0  0.11538291923E+03  0.20088146720E+03  0.21884573474E+04  0.22021397532E+04  0.80045919518E+02 0.  0.
        -13    1    5    5    0    0 -0.11000110769E+02  0.34004099567E+02  0.33079876988E+03  0.33272377038E+03  0.00000000000E+00 0.  1.
         14    1    5    5    0    0  0.12638302999E+03  0.16687736764E+03  0.18576585775E+04  0.18694159828E+04  0.00000000000E+00 0. -1.
         13    1    3    3    0    0 -0.21012773587E+02 -0.25670561431E+02 -0.15275098957E+03  0.15631180119E+03  0.00000000000E+00 0. -1.
        -14    1    3    3    0    0  0.49117174741E+02  0.17907501794E+02 -0.32549669713E+03  0.32966843239E+03  0.00000000000E+00 0.  1.
          5    1    4    4  501    0  0.38257919630E+01  0.11856031890E+02  0.15806599557E+02  0.20555368298E+02  0.41800000000E+01 0.  1.
         -5    1    4    4    0  501 -0.14731311234E+03 -0.20497443946E+03  0.25565275628E+02  0.25374540314E+03  0.41800000000E+01 0.  1.
</event>
<event>
11    1  0.1002087E-008  0.2849052E+03  0.7561462E-02  0.1006790E+00
         22   -1    0    0    0    0  0.00000000000E+00  0.00000000000E+00  0.67573516756E+03  0.67573516756E+03  0.00000000000E+00 0.  1.
         22   -1    0    0    0    0 -0.00000000000E+00 -0.00000000000E+00 -0.20066711601E+04  0.20066711601E+04  0.00000000000E+00 0.  1.
         24    2    1    2    0    0 -0.36998179708E+02 -0.24379127902E+01 -0.99900537781E+03  0.10029830999E+04  0.81169853560E+02 0.  0.
         25    2    1    2    0    0 -0.12205965961E+03 -0.19899569684E+03 -0.95998165720E+03  0.99584622695E+03  0.12508827961E+03 0.  0.
        -24    2    1    2    0    0  0.15905783932E+03  0.20143360963E+03  0.62805104250E+03  0.68357700076E+03  0.83393696669E+02 0.  0.
        -11    1    3    3    0    0 -0.52721532855E+02  0.98818004915E+00 -0.94874749039E+03  0.95021173275E+03  0.00000000000E+00 0.  1.
         12    1    3    3    0    0  0.15723353147E+02 -0.34260928393E+01 -0.50257887417E+02  0.52771367179E+02  0.00000000000E+00 0. -1.
         11    1    5    5    0    0  0.19112282372E+02  0.16388315383E+02  0.15119580242E+03  0.15327761379E+03  0.00000000000E+00 0. -1.
        -12    1    5    5    0    0  0.13994555694E+03  0.18504529425E+03  0.47685524008E+03  0.53029938698E+03  0.00000000000E+00 0.  1.
          5    1    4    4  501    0  0.40596086848E+01 -0.32456372052E+02 -0.37231429293E+02  0.49734778944E+02  0.41800000000E+01 0. -1.
         -5    1    4    4    0  501 -0.12611926829E+03 -0.16653932479E+03 -0.92275022791E+03  0.94611144800E+03  0.41800000000E+01 0. -1.
</event>
<event>
11    1  0.1398742E-008  0.1867649E+03  0.7561462E-02  0.1064299E+00
         22   -1    0    0    0    0  0.00000000000E+00  0.00000000000E+00  0.17958691968E+04  0.17958691968E+04  0.00000000000E+00 0. -1.
         22   -1    0    0    0    0 -0.00000000000E+00 -0.00000000000E+00 -0.89934739604E+03  0.89934739604E+03  0.00000000000E+00 0.  1.
         24    2    1    2    0    0  0.76456579899E+02 -0.19215533272E+02 -0.62597071774E+03  0.63647432794E+03  0.83936793653E+02 0.  0.
         25    2    1    2    0    0 -0.16846711926E+03  0.12177917583E+03 -0.20879177812E+03  0.32008171634E+03  0.12508781151E+03 0.  0.
        -24    2    1    2    0    0  0.92010539358E+02 -0.10256364256E+03  0.17312842966E+04  0.17386605485E+04  0.81301582225E+02 0.  0.
        -11    1    3    3    0    0  0.49945000124E+02 -0.34158307025E+02 -0.56598637499E+03  0.56921162115E+03  0.00000000000E+00 0.  1.
         12    1    3    3    0    0  0.26511579775E+02  0.14942773753E+02 -0.59984342747E+02  0.67262706787E+02  0.00000000000E+00 0. -1.
         11    1    5    5    0    0  0.49197002410E+02 -0.10119602669E+03  0.10449187215E+04  0.10509596165E+04  0.00000000000E+00 0. -1.
        -12    1    5    5    0    0  0.42813536948E+02 -0.13676158676E+01  0.68636557508E+03  0.68770093207E+03  0.00000000000E+00 0.  1.
          5    1    4    4  501    0  0.10074088045E+02 -0.44783709620E+01 -0.45858310665E+02  0.47349763605E+02  0.41800000000E+01 0. -1.
         -5    1    4    4    0  501 -0.17854120730E+03  0.12625754679E+03 -0.16293346745E+03  0.27273195274E+03  0.41800000000E+01 0. -1.
</event>
<event>
11    1  0.1002087E-008  0.1588780E+03  0.7561462E-02  0.1088137E+00
         22   -1    0    0    0    0  0.00000000000E+00  0.00000000000E+00  0.45235888244E+03  0.45235888244E+03  0.00000000000E+00 0.  1.
         22   -1    0    0    0    0 -0.00000000000E+00 -0.00000000000E+00 -0.18932379255E+04  0.18932379255E+04  0.00000000000E+00 0. -1.
        -24    2    1    2    0    0  0.85986231542E+02 -0.41671638649E+02 -0.16293842323E+04  0.16345137805E+04  0.87247719225E+02 0.  0.
         25    2    1    2    0    0 -0.13996277499E+03  0.82953907705E+01 -0.22094242374E+03  0.29003010462E+03  0.12507403843E+03 0.  0.
         24    2    1    2    0    0  0.53976543446E+02  0.33376247878E+02  0.40944761306E+03  0.42105292278E+03  0.74905105165E+02 0.  0.
        -13    1    5    5    0    0  0.25338901188E+02  0.55376111840E+02  0.22452217356E+03  0.23263443446E+03  0.00000000000E+00 0.  1.
         14    1    5    5    0    0  0.28637642258E+02 -0.21999863962E+02  0.18492543950E+03  0.18841848833E+03  0.00000000000E+00 0. -1.
         11    1    3    3    0    0  0.88850119356E+02 -0.42217878882E+02 -0.16284982863E+04  0.16314666290E+04  0.00000000000E+00 0. -1.
        -12    1    3    3    0    0 -0.28638878135E+01  0.54624023336E+00 -0.88594602285E+00  0.30471514823E+01  0.00000000000E+00 0.  1.
          5    1    4    4  501    0  0.20722273853E+02  0.56276493030E+01 -0.54021202011E+02  0.58282465091E+02  0.41800000000E+01 0. -1.
         -5    1    4    4    0  501 -0.16068504884E+03  0.26677414674E+01 -0.16692122173E+03  0.23174763953E+03  0.41800000000E+01 0. -1.
</event>
<event>
11    1  0.1002087E-008  0.1299426E+03  0.7561462E-02  0.1119340E+00
         22   -1    0    0    0    0  0.00000000000E+00  0.00000000000E+00  0.20475995332E+03  0.20475995332E+03  0.00000000000E+00 0.  1.
         22   -1    0    0    0    0 -0.00000000000E+00 -0.00000000000E+00 -0.84145764268E+03  0.84145764268E+03  0.00000000000E+00 0. -1.
        -24    2    1    2    0    0 -0.33539773916E+02 -0.61869418813E+01 -0.77548624525E+03  0.78013766441E+03  0.77927300603E+02 0.  0.
         25    2    1    2    0    0  0.45401078413E+02 -0.23618318449E+02  0.53342997299E+02  0.14530138100E+03  0.12509169866E+03 0.  0.
         24    2    1    2    0    0 -0.11861304497E+02  0.29805260331E+02  0.85445558591E+02  0.12077855058E+03  0.79104176303E+02 0.  0.
        -11    1    5    5    0    0 -0.21934867411E+02  0.13315538887E+02  0.95576105523E+02  0.98960769657E+02  0.00000000000E+00 0.  1.
         12    1    5    5    0    0  0.10073562914E+02  0.16489721443E+02 -0.10130546932E+02  0.21817780918E+02  0.00000000000E+00 0. -1.
         13    1    3    3    0    0 -0.30544118767E+02 -0.11268922781E+02 -0.77308221322E+03  0.77376743289E+03  0.00000000000E+00 0. -1.
        -14    1    3    3    0    0 -0.29956551489E+01  0.50819809000E+01 -0.24040320365E+01  0.63702315242E+01  0.00000000000E+00 0.  1.
          5    1    4    4  501    0  0.83518178418E+02 -0.37158781929E+02  0.22419827373E+02  0.94213492983E+02  0.41800000000E+01 0.  1.
         -5    1    4    4    0  501 -0.38117100005E+02  0.13540463479E+02  0.30923169926E+02  0.51087888019E+02  0.41800000000E+01 0.  1.
</event>
<event>
11    1  0.1002087E-008  0.1439045E+03  0.7561462E-02  0.1103275E+00
         22   -1    0    0    0    0  0.00000000000E+00  0.00000000000E+00  0.65319605351E+03  0.65319605351E+03  0.00000000000E+00 0. -1.
         22   -1    0    0    0    0 -0.00000000000E+00 -0.00000000000E+00 -0.19591269093E+03  0.19591269093E+03  0.00000000000E+00 0. -1.
        -24    2    1    2    0    0 -0.17275107368E+02  0.23466672895E+02 -0.14042859209E+03  0.16431307671E+03  0.80184060941E+02 0.  0.
         25    2    1    2    0    0 -0.56138139169E+02 -0.20015889018E+02  0.89092210238E+02  0.16473186261E+03  0.12508812154E+03 0.  0.
         24    2    1    2    0    0  0.73413246536E+02 -0.34507838770E+01  0.50861974444E+03  0.52006380512E+03  0.79817944630E+02 0.  0.
        -11    1    5    5    0    0  0.30861625511E-01  0.20111911181E+01 -0.27609435971E+01  0.34159408221E+01  0.00000000000E+00 0.  1.
         12    1    5    5    0    0  0.73382384911E+02 -0.54619749951E+01  0.51138068804E+03  0.51664786430E+03  0.00000000000E+00 0. -1.
         13    1    3    3    0    0  0.20867279849E+02  0.86129366510E+00 -0.10637805861E+03  0.10840883981E+03  0.00000000000E+00 0. -1.
        -14    1    3    3    0    0 -0.38142387217E+02  0.22605379230E+02 -0.34050533478E+02  0.55904236895E+02  0.00000000000E+00 0.  1.
          5    1    4    4  501    0 -0.41989735940E+02 -0.36995759224E+02 -0.15119931192E+02  0.58119780145E+02  0.41800000000E+01 0. -1.
         -5    1    4    4    0  501 -0.14148403229E+02  0.16979870206E+02  0.10421214143E+03  0.10661208247E+03  0.41800000000E+01 0. -1.
</event>
<event>
11    1  0.1002087E-008  0.1587827E+03  0.7561462E-02  0.1088228E+00
         22   -1    0    0    0    0  0.00000000000E+00  0.00000000000E+00  0.26750734090E+04  0.26750734090E+04  0.00000000000E+00 0.  1.
         22   -1    0    0    0    0 -0.00000000000E+00 -0.00000000000E+00 -0.45715295829E+03  0.45715295829E+03  0.00000000000E+00 0. -1.
        -24    2    1    2    0    0  0.68209693942E+02  0.28885479318E+02 -0.43808655953E+03  0.45140931891E+03  0.79772215082E+02 0.  0.
         25    2    1    2    0    0 -0.90996622971E+01  0.61307177850E+02  0.46116468146E+03  0.48183123592E+03  0.12508837906E+03 0.  0.
         24    2    1    2    0    0 -0.59110031645E+02 -0.90192657168E+02  0.21948423288E+04  0.21989858125E+04  0.81098976011E+02 0.  0.
        -11    1    5    5    0    0 -0.66495117922E+02 -0.10084884718E+03  0.18801903148E+04  0.18840668010E+04  0.00000000000E+00 0.  1.
         12    1    5    5    0    0  0.73850862776E+01  0.10656190010E+02  0.31465201400E+03  0.31491901149E+03  0.00000000000E+00 0. -1.
         13    1    3    3    0    0  0.76431702565E+02  0.15606785979E+02 -0.42137776641E+03  0.42853774507E+03  0.00000000000E+00 0. -1.
        -14    1    3    3    0    0 -0.82220086229E+01  0.13278693339E+02 -0.16708793120E+02  0.22871573844E+02  0.00000000000E+00 0.  1.
          5    1    4    4  501    0  0.50458810400E+01  0.93355123198E+02  0.40366468504E+03  0.41437095735E+03  0.41800000000E+01 0.  1.
         -5    1    4    4    0  501 -0.14145543337E+02 -0.32047945349E+02  0.57499996418E+02  0.67460278575E+02  0.41800000000E+01 0.  1.
</event>
<event>
11    1  0.1002087E-008  0.1385208E+03  0.7561462E-02  0.1109221E+00
         22   -1    0    0    0    0  0.00000000000E+00  0.00000000000E+00  0.36544996738E+03  0.36544996738E+03  0.00000000000E+00 0.  1.
         22   -1    0    0    0    0 -0.00000000000E+00 -0.00000000000E+00 -0.17364150826E+04  0.17364150826E+04  0.00000000000E+00 0.  1.
        -24    2    1    2    0    0 -0.48296892926E+02 -0.36041166447E+02 -0.16022587477E+04  0.16056697799E+04  0.85503169760E+02 0.  0.
         25    2    1    2    0    0  0.21292964577E+02  0.44806828842E+02 -0.91168423518E+02  0.16253514409E+03  0.12507977201E+03 0.  0.
         24    2    1    2    0    0  0.27003928349E+02 -0.87656623949E+01  0.32246205603E+03  0.33366012594E+03  0.80878013570E+02 0.  0.
        -11    1    5    5    0    0  0.13712796002E+02 -0.36101704794E+02  0.27217017775E+03  0.27489630685E+03  0.00000000000E+00 0.  1.
         12    1    5    5    0    0  0.13291132347E+02  0.27336042399E+02  0.50291878287E+02  0.58763819096E+02  0.00000000000E+00 0. -1.
         11    1    3    3    0    0 -0.40439308639E+01 -0.12389031893E+02 -0.31232596405E+02  0.33842526003E+02  0.00000000000E+00 0. -1.
        -12    1    3    3    0    0 -0.44252962062E+02 -0.23652134554E+02 -0.15710261513E+04  0.15718272539E+04  0.00000000000E+00 0.  1.
          5    1    4    4  501    0  0.29102229810E+02  0.27941129034E+02 -0.12073331593E+03  0.12736425105E+03  0.41800000000E+01 0. -1.
         -5    1    4    4    0  501 -0.78092652333E+01  0.16865699808E+02  0.29564892410E+02  0.35170893033E+02  0.41800000000E+01 0. -1.
</event>
<event>
11    1  0.1002087E-008  0.1714072E+03  0.7561462E-02  0.1076814E+00
         22   -1    0    0    0    0  0.00000000000E+00  0.00000000000E+00  0.81533440663E+03  0.81533440663E+03  0.00000000000E+00 0.  1.
         22   -1    0    0    0    0 -0.00000000000E+00 -0.00000000000E+00 -0.11541487896E+04  0.11541487896E+04  0.00000000000E+00 0. -1.
         24    2    1    2    0    0  0.30932810910E+02  0.98319296642E+02 -0.10082359018E+04  0.10165878568E+04  0.79295107346E+02 0.  0.
         25    2    1    2    0    0  0.87254388619E+02 -0.82904024337E+02 -0.79075376939E+02  0.19075408722E+03  0.12509117063E+03 0.  0.
        -24    2    1    2    0    0 -0.11818719953E+03 -0.15415272306E+02  0.74849689573E+03  0.76214125224E+03  0.80036496062E+02 0.  0.
        -11    1    3    3    0    0  0.51935031634E+02  0.45784795782E+02 -0.67958225264E+03  0.68309994374E+03  0.00000000000E+00 0.  1.
         12    1    3    3    0    0 -0.21002220725E+02  0.52534500860E+02 -0.32865364916E+03  0.33348791307E+03  0.00000000000E+00 0. -1.
         13    1    5    5    0    0 -0.15500600120E+02 -0.42226860355E+01  0.17011175386E+02  0.23398285609E+02  0.00000000000E+00 0. -1.
        -14    1    5    5    0    0 -0.10268659941E+03 -0.11192586270E+02  0.73148572034E+03  0.73874296664E+03  0.00000000000E+00 0.  1.
          5    1    4    4  501    0  0.39785608151E+02  0.24812854124E+02 -0.51518615432E+02  0.69786907667E+02  0.41800000000E+01 0. -1.
         -5    1    4    4    0  501  0.47468780468E+02 -0.10771687846E+03 -0.27556761507E+02  0.12096717955E+03  0.41800000000E+01 0. -1.
</event>
<event>
11    1  0.1002087E-008  0.1299871E+03  0.7561462E-02  0.1119285E+00
         22   -1    0    0    0    0  0.00000000000E+00  0.00000000000E+00  0.20318839267E+04  0.20318839267E+04  0.00000000000E+00 0.  1.
         22   -1    0    0    0    0 -0.00000000000E+00 -0.00000000000E+00 -0.93932785876E+02  0.93932785876E+02  0.00000000000E+00 0. -1.
         24    2    1    2    0    0  0.86880954695E+01 -0.74750996547E+01 -0.39328679041E+02  0.91652681406E+02  0.81988468068E+02 0.  0.
         25    2    1    2    0    0  0.17774305693E+02 -0.16610944790E+02  0.12118293088E+03  0.17585531659E+03  0.12509172717E+03 0.  0.
        -24    2    1    2    0    0 -0.26462401163E+02  0.24086044445E+02  0.18560968890E+04  0.18583087146E+04  0.83277975349E+02 0.  0.
        -11    1    3    3    0    0 -0.23518324592E+02 -0.28104920535E+02  0.20266333032E+00  0.36647499537E+02  0.00000000000E+00 0.  1.
         12    1    3    3    0    0  0.32206420062E+02  0.20629820881E+02 -0.39531342371E+02  0.55005181869E+02  0.00000000000E+00 0. -1.
         13    1    5    5    0    0 -0.53885011266E+00  0.27960932291E+02  0.19402071429E+03  0.19602586990E+03  0.00000000000E+00 0. -1.
        -14    1    5    5    0    0 -0.25923551050E+02 -0.38748878464E+01  0.16620761747E+04  0.16622828447E+04  0.00000000000E+00 0.  1.
          5    1    4    4  501    0  0.37041512469E+02 -0.51737445393E+02  0.19811961924E+02  0.66774419781E+02  0.41800000000E+01 0. -1.
         -5    1    4    4    0  501 -0.19267206776E+02  0.35126500603E+02  0.10137096896E+03  0.10908089681E+03  0.41800000000E+01 0. -1.
</event>
<event>
11    1  0.1002087E-008  0.1321826E+03  0.7561462E-02  0.1116616E+00
         22   -1    0    0    0    0  0.00000000000E+00  0.00000000000E+00  0.32505199824E+03  0.32505199824E+03  0.00000000000E+00 0. -1.
         22   -1    0    0    0    0 -0.00000000000E+00 -0.00000000000E+00 -0.59911246795E+03  0.59911246795E+03  0.00000000000E+00 0.  1.
         24    2    1    2    0    0 -0.35302999812E+02 -0.23988152108E+02 -0.53378139817E+03  0.54177931552E+03  0.82343867130E+02 0.  0.
         25    2    1    2    0    0  0.13008681505E+02  0.57779202968E+02  0.37725735433E+02  0.14344508836E+03  0.12508237354E+03 0.  0.
        -24    2    1    2    0    0  0.22294318307E+02 -0.33791050859E+02  0.22199519303E+03  0.23894006231E+03  0.78559632770E+02 0.  0.
        -13    1    3    3    0    0  0.25859314794E+02 -0.14540003435E+02 -0.13474128754E+03  0.13796858493E+03  0.00000000000E+00 0.  1.
         14    1    3    3    0    0 -0.61162314606E+02 -0.94481486731E+01 -0.39904011063E+03  0.40381073058E+03  0.00000000000E+00 0. -1.
         13    1    5    5    0    0  0.49235249557E+02 -0.88106925992E+01  0.14987600826E+03  0.15800175935E+03  0.00000000000E+00 0. -1.
        -14    1    5    5    0    0 -0.26940931250E+02 -0.24980358260E+02  0.72119184769E+02  0.80938302967E+02  0.00000000000E+00 0.  1.
          5    1    4    4  501    0  0.63750294556E+00  0.11465166987E+02  0.79066719556E+02  0.80005468597E+02  0.41800000000E+01 0. -1.
         -5    1    4    4    0  501  0.12371178559E+02  0.46314035980E+02 -0.41340984123E+02  0.63439619765E+02  0.41800000000E+01 0. -1.
</event>
<event>
11    1  0.1002087E-008  0.1354557E+03  0.7561462E-02  0.1112742E+00
         22   -1    0    0    0    0  0.00000000000E+00  0.00000000000E+00  0.30494431461E+03  0.30494431461E+03  0.00000000000E+00 0.  1.
         22   -1    0    0    0    0 -0.00000000000E+00 -0.00000000000E+00 -0.12759212522E+04  0.12759212522E+04  0.00000000000E+00 0. -1.
        -24    2    1    2    0    0 -0.28007311634E+01 -0.42522201311E+02 -0.83845280579E+03  0.84332732771E+03  0.79886747492E+02 0.  0.
         25    2    1    2    0    0  0.15546663599E+02  0.92131486984E+02 -0.41278963983E+03  0.44132830573E+03  0.12508188137E+03 0.  0.
         24    2    1    2    0    0 -0.12745932436E+02 -0.49609285673E+02  0.28026550806E+03  0.29620993333E+03  0.81043380814E+02 0.  0.
        -11    1    5    5    0    0 -0.33733219331E+02  0.79022284979E+01  0.99838407756E+02  0.10567915104E+03  0.00000000000E+00 0.  1.
         12    1    5    5    0    0  0.20987286895E+02 -0.57511514171E+02  0.18042710031E+03  0.19053078229E+03  0.00000000000E+00 0. -1.
         13    1    3    3    0    0 -0.12695669558E+02 -0.62891205097E+02 -0.49696556063E+03  0.50109006391E+03  0.00000000000E+00 0. -1.
        -14    1    3    3    0    0  0.98949383949E+01  0.20369003786E+02 -0.34148724516E+03  0.34223726379E+03  0.00000000000E+00 0.  1.
          5    1    4    4  501    0 -0.32507219686E+02  0.69687445788E+02 -0.11231857479E+03  0.13618367771E+03  0.41800000000E+01 0.  1.
         -5    1    4    4    0  501  0.48053883285E+02  0.22444041196E+02 -0.30047106504E+03  0.30514462802E+03  0.41800000000E+01 0.  1.
</event>
<event>
11    1  0.1002087E-008  0.2415964E+03  0.7561462E-02  0.1028474E+00
         22   -1    0    0    0    0  0.00000000000E+00  0.00000000000E+00  0.17540530919E+04  0.17540530919E+04  0.00000000000E+00 0.  1.
         22   -1    0    0    0    0 -0.00000000000E+00 -0.00000000000E+00 -0.44165935486E+03  0.44165935486E+03  0.00000000000E+00 0.  1.
        -24    2    1    2    0    0 -0.18445137862E+03  0.47337065702E+02 -0.25546161141E+03  0.32855701835E+03  0.80162151550E+02 0.  0.
         25    2    1    2    0    0  0.24935685704E+03 -0.19527087233E+03  0.56640321565E+02  0.34520233907E+03  0.12508786166E+03 0.  0.
         24    2    1    2    0    0 -0.64905478428E+02  0.14793380663E+03  0.15112150269E+04  0.15219530893E+04  0.80456300969E+02 0.  0.
        -11    1    5    5    0    0 -0.22370446085E+02  0.96085356700E+02  0.11737628069E+04  0.11779015067E+04  0.00000000000E+00 0.  1.
         12    1    5    5    0    0 -0.42535032343E+02  0.51848449925E+02  0.33745222002E+03  0.34405158266E+03  0.00000000000E+00 0. -1.
         11    1    3    3    0    0 -0.15619767198E+01  0.92440327083E+01  0.28248572683E+01  0.97914110613E+01  0.00000000000E+00 0. -1.
        -12    1    3    3    0    0 -0.18288940190E+03  0.38093032993E+02 -0.25828646868E+03  0.31876560729E+03  0.00000000000E+00 0.  1.
          5    1    4    4  501    0  0.20587796511E+03 -0.10138274264E+03  0.71922051918E+02  0.24052952205E+03  0.41800000000E+01 0. -1.
         -5    1    4    4    0  501  0.43478891930E+02 -0.93888129691E+02 -0.15281730353E+02  0.10467281702E+03  0.41800000000E+01 0. -1.
</event>
<event>
11    1  0.1002087E-008  0.1313554E+03  0.7561462E-02  0.1117615E+00
         22   -1    0    0    0    0  0.00000000000E+00  0.00000000000E+00  0.48483391797E+03  0.48483391797E+03  0.00000000000E+00 0. -1.
         22   -1    0    0    0    0 -0.00000000000E+00 -0.00000000000E+00 -0.28938557037E+03  0.28938557037E+03  0.00000000000E+00 0. -1.
         24    2    1    2    0    0 -0.10975880520E+02 -0.51838159595E+01 -0.16495869263E+03  0.18386365360E+03  0.80294028053E+02 0.  0.
         25    2    1    2    0    0 -0.24871680637E+02 -0.13809077407E+02 -0.72862600903E+02  0.14753753094E+03  0.12509625617E+03 0.  0.
        -24    2    1    2    0    0  0.35847561157E+02  0.18992893367E+02  0.43326964113E+03  0.44281830379E+03  0.81973719009E+02 0.  0.
        -13    1    3    3    0    0 -0.35064850029E+02  0.24597482421E+02 -0.83256751451E+02  0.93628342457E+02  0.00000000000E+00 0.  1.
         14    1    3    3    0    0  0.24088969510E+02 -0.29781298381E+02 -0.81701941178E+02  0.90235311146E+02  0.00000000000E+00 0. -1.
         11    1    5    5    0    0  0.37318981811E+02  0.48477281063E+02  0.26420046354E+03  0.27119114683E+03  0.00000000000E+00 0. -1.
        -12    1    5    5    0    0 -0.14714206537E+01 -0.29484387697E+02  0.16906917759E+03  0.17162715697E+03  0.00000000000E+00 0.  1.
          5    1    4    4  501    0  0.38516809747E+02  0.13122031709E+02  0.75330076901E+01  0.41592679093E+02  0.41800000000E+01 0. -1.
         -5    1    4    4    0  501 -0.63388490384E+02 -0.26931109116E+02 -0.80395608593E+02  0.10594485184E+03  0.41800000000E+01 0. -1.
</event>
<event>
11    1  0.1002087E-008  0.1785684E+03  0.7561462E-02  0.1070807E+00
         22   -1    0    0    0    0  0.00000000000E+00  0.00000000000E+00  0.63856855493E+03  0.63856855493E+03  0.00000000000E+00 0.  1.
         22   -1    0    0    0    0 -0.00000000000E+00 -0.00000000000E+00 -0.32393282315E+03  0.32393282315E+03  0.00000000000E+00 0. -1.
        -24    2    1    2    0    0  0.46974749771E+02  0.39727181293E+02 -0.26649852664E+03  0.28785636526E+03  0.89749352470E+02 0.  0.
         25    2    1    2    0    0 -0.90445554833E+02  0.86568750456E+02  0.22493796787E+03  0.28621569107E+03  0.12509110872E+03 0.  0.
         24    2    1    2    0    0  0.43470805062E+02 -0.12629593175E+03  0.35619629055E+03  0.38842932175E+03  0.78493103666E+02 0.  0.
        -11    1    5    5    0    0  0.56998313931E+02 -0.52853217313E+02  0.21639173036E+03  0.22992966607E+03  0.00000000000E+00 0.  1.
         12    1    5    5    0    0 -0.13527508869E+02 -0.73442714436E+02  0.13980456020E+03  0.15849965568E+03  0.00000000000E+00 0. -1.
         13    1    3    3    0    0  0.10675537104E+02 -0.27767755282E+02 -0.10437767786E+03  0.10853439529E+03  0.00000000000E+00 0. -1.
        -14    1    3    3    0    0  0.36299212667E+02  0.67494936575E+02 -0.16212084878E+03  0.17932196996E+03  0.00000000000E+00 0.  1.
          5    1    4    4  501    0 -0.11449509512E+03  0.60093151795E+02  0.21119459163E+03  0.24767103511E+03  0.41800000000E+01 0.  1.
         -5    1    4    4    0  501  0.24049540292E+02  0.26475598662E+02  0.13743376246E+02  0.38544655964E+02  0.41800000000E+01 0.  1.
</event>
<event>
11    1  0.1002087E-008  0.1260084E+03  0.7561462E-02  0.1124273E+00
         22   -1    0    0    0    0  0.00000000000E+00  0.00000000000E+00  0.19671191628E+04  0.19671191628E+04  0.00000000000E+00 0. -1.
         22   -1    0    0    0    0 -0.00000000000E+00 -0.00000000000E+00 -0.96309096419E+02  0.96309096419E+02  0.00000000000E+00 0.  1.
        -24    2    1    2    0    0  0.87273021460E+01 -0.19198942888E+02 -0.35769079923E+02  0.11522999206E+03  0.10748841231E+03 0.  0.
         25    2    1    2    0    0  0.43548531585E+02 -0.78371822730E+01  0.20788706397E+03  0.24662087757E+03  0.12508768866E+03 0.  0.
         24    2    1    2    0    0 -0.52275833731E+02  0.27036125161E+02  0.16986920823E+04  0.17015773896E+04  0.79668734993E+02 0.  0.
        -11    1    5    5    0    0 -0.41204436287E+02 -0.46625373915E+01  0.34708899571E+03  0.34955731400E+03  0.00000000000E+00 0.  1.
         12    1    5    5    0    0 -0.11071397445E+02  0.31698662553E+02  0.13516030866E+04  0.13520200756E+04  0.00000000000E+00 0. -1.
         13    1    3    3    0    0  0.14636755358E+02 -0.13787347206E+02  0.36952042354E+02  0.42068741181E+02  0.00000000000E+00 0. -1.
        -14    1    3    3    0    0 -0.59094532120E+01 -0.54115956820E+01 -0.72721122277E+02  0.73161250880E+02  0.00000000000E+00 0.  1.
          5    1    4    4  501    0  0.42270211300E+02  0.10196055764E+02  0.22010910057E+03  0.22440191370E+03  0.41800000000E+01 0.  1.
         -5    1    4    4    0  501  0.12783202849E+01 -0.18033238037E+02 -0.12222036598E+02  0.22218963870E+02  0.41800000000E+01 0.  1.
</event>
<event>
11    1  0.1002087E-008  0.1530412E+03  0.7561462E-02  0.1093811E+00
         22   -1    0    0    0    0  0.00000000000E+00  0.00000000000E+00  0.90754733477E+03  0.90754733477E+03  0.00000000000E+00 0. -1.
         22   -1    0    0    0    0 -0.00000000000E+00 -0.00000000000E+00 -0.15448908880E+04  0.15448908880E+04  0.00000000000E+00 0. -1.
         24    2    1    2    0    0 -0.87711414240E+02 -0.13165679452E+02 -0.15048086014E+04  0.15096214693E+04  0.81494946993E+02 0.  0.
         25    2    1    2    0    0  0.61627531568E+02 -0.34341318923E+02  0.11406919202E+03  0.18340140442E+03  0.12508803197E+03 0.  0.
        -24    2    1    2    0    0  0.26083882672E+02  0.47506998375E+02  0.75339585617E+03  0.75941534904E+03  0.78543442945E+02 0.  0.
        -13    1    3    3    0    0  0.51842429312E+01 -0.25966072565E+02 -0.36855419661E+03  0.36950413954E+03  0.00000000000E+00 0.  1.
         14    1    3    3    0    0 -0.92895657171E+02  0.12800393113E+02 -0.11362544048E+04  0.11401173297E+04  0.00000000000E+00 0. -1.
         13    1    5    5    0    0 -0.51076830179E+01  0.41045039949E+02  0.64781161898E+03  0.64913070904E+03  0.00000000000E+00 0. -1.
        -14    1    5    5    0    0  0.31191565690E+02  0.64619584260E+01  0.10558423719E+03  0.11028464000E+03  0.00000000000E+00 0.  1.
          5    1    4    4  501    0  0.49298709606E+02 -0.57944404680E+02  0.13101680684E+03  0.15156118526E+03  0.41800000000E+01 0.  1.
         -5    1    4    4    0  501  0.12328821962E+02  0.23603085758E+02 -0.16947614818E+02  0.31840219162E+02  0.41800000000E+01 0.  1.
</event>
<event>
11    1  0.1002087E-008  0.1317348E+03  0.7561462E-02  0.1117156E+00
         22   -1    0    0    0    0  0.00000000000E+00  0.00000000000E+00  0.83518386691E+02  0.83518386691E+02  0.00000000000E+00 0. -1.
         22   -1    0    0    0    0 -0.00000000000E+00 -0.00000000000E+00 -0.90625339048E+03  0.90625339048E+03  0.00000000000E+00 0. -1.
        -24    2    1    2    0    0  0.24683670276E+02 -0.33692459442E+02 -0.74385869725E+03  0.74954245742E+03  0.82119842900E+02 0.  0.
         25    2    1    2    0    0  0.13598401823E+02  0.50480242347E+02 -0.60029049251E+02  0.14827593985E+03  0.12509634761E+03 0.  0.
         24    2    1    2    0    0 -0.38282072099E+02 -0.16787782905E+02 -0.18847257286E+02  0.91953379896E+02  0.79704819603E+02 0.  0.
        -11    1    5    5    0    0 -0.31206190349E+02 -0.14262782481E+02 -0.49591783999E+02  0.60304214781E+02  0.00000000000E+00 0.  1.
         12    1    5    5    0    0 -0.70758817498E+01 -0.25250004237E+01  0.30744526713E+02  0.31649165115E+02  0.00000000000E+00 0. -1.
         11    1    3    3    0    0  0.11452831617E+02 -0.44570765596E+02 -0.71099618058E+03  0.71248388704E+03  0.00000000000E+00 0. -1.
        -12    1    3    3    0    0  0.13230838659E+02  0.10878306154E+02 -0.32862516672E+02  0.37058570377E+02  0.00000000000E+00 0.  1.
          5    1    4    4  501    0 -0.27946138649E+02 -0.30780805884E+02 -0.62140595697E+01  0.42243716842E+02  0.41800000000E+01 0. -1.
         -5    1    4    4    0  501  0.41544540472E+02  0.81261048231E+02 -0.53814989682E+02  0.10603222301E+03  0.41800000000E+01 0. -1.
</event>
<event>
11    1  0.1002087E-008  0.2513868E+03  0.7561462E-02  0.1023163E+00
         22   -1    0    0    0    0  0.00000000000E+00  0.00000000000E+00  0.94821987098E+03  0.94821987098E+03  0.00000000000E+00 0. -1.
         22   -1    0    0    0    0 -0.00000000000E+00 -0.00000000000E+00 -0.13436647824E+04  0.13436647824E+04  0.00000000000E+00 0. -1.
         24    2    1    2    0    0  0.60213246593E+02  0.11729384889E+03 -0.12609344593E+04  0.12703084352E+04  0.79651289564E+02 0.  0.
         25    2    1    2    0    0 -0.25865730771E+03 -0.51650898385E+02  0.32682881234E+03  0.43821862595E+03  0.12508826253E+03 0.  0.
        -24    2    1    2    0    0  0.19844406111E+03 -0.65642950509E+02  0.53866073549E+03  0.58335759226E+03  0.80384389931E+02 0.  0.
        -13    1    3    3    0    0  0.42824206485E+02  0.10328261981E+02 -0.28659121712E+03  0.28995708542E+03  0.00000000000E+00 0.  1.
         14    1    3    3    0    0  0.17389040107E+02  0.10696558691E+03 -0.97434324216E+03  0.98035134979E+03  0.00000000000E+00 0. -1.
         11    1    5    5    0    0  0.17206887774E+03 -0.75875380768E+02  0.50774396189E+03  0.54145055446E+03  0.00000000000E+00 0. -1.
        -12    1    5    5    0    0  0.26375183372E+02  0.10232430259E+02  0.30916773603E+02  0.41907037797E+02  0.00000000000E+00 0.  1.
          5    1    4    4  501    0 -0.18790381958E+03 -0.87894429986E+02  0.19813724166E+03  0.28689565205E+03  0.41800000000E+01 0. -1.
         -5    1    4    4    0  501 -0.70753488126E+02  0.36243531601E+02  0.12869157068E+03  0.15132297390E+03  0.41800000000E+01 0. -1.
</event>
<event>
11    1  0.1002087E-008  0.2588262E+03  0.7561462E-02  0.1019300E+00
         22   -1    0    0    0    0  0.00000000000E+00  0.00000000000E+00  0.13201309246E+04  0.13201309246E+04  0.00000000000E+00 0.  1.
         22   -1    0    0    0    0 -0.00000000000E+00 -0.00000000000E+00 -0.11264536873E+04  0.11264536873E+04  0.00000000000E+00 0.  1.
        -24    2    1    2    0    0 -0.71204712984E+01  0.25858695442E+02 -0.10210375975E+04  0.10244194722E+04  0.78728053254E+02 0.  0.
         25    2    1    2    0    0  0.12118607733E+03  0.17258505584E+03  0.74150839993E+02  0.25616140953E+03  0.12509457951E+03 0.  0.
         24    2    1    2    0    0 -0.11406560603E+03 -0.19844375129E+03  0.11405639948E+04  0.11660037302E+04  0.79294311824E+02 0.  0.
        -13    1    5    5    0    0 -0.10400289324E+03 -0.16840996139E+03  0.10763983541E+04  0.10944459482E+04  0.00000000000E+00 0.  1.
         14    1    5    5    0    0 -0.10062712787E+02 -0.30033789897E+02  0.64165640656E+02  0.71557782002E+02  0.00000000000E+00 0. -1.
         11    1    3    3    0    0 -0.15073051305E+02 -0.25232510955E+02 -0.26747865206E+03  0.26908865787E+03  0.00000000000E+00 0. -1.
        -12    1    3    3    0    0  0.79525800063E+01  0.51091206397E+02 -0.75355894540E+03  0.75533081434E+03  0.00000000000E+00 0.  1.
          5    1    4    4  501    0  0.15524354027E+02 -0.17766325190E+02  0.21367277938E+02  0.32104218495E+02  0.41800000000E+01 0. -1.
         -5    1    4    4    0  501  0.10566172330E+03  0.19035138103E+03  0.52783562055E+02  0.22405719104E+03  0.41800000000E+01 0. -1.
</event>
<event>
11    1  0.1002087E-008  0.1318206E+03  0.7561462E-02  0.1117052E+00
         22   -1    0    0    0    0  0.00000000000E+00  0.00000000000E+00  0.17929566933E+03  0.17929566933E+03  0.00000000000E+00 0.  1.
         22   -1    0    0    0    0 -0.00000000000E+00 -0.00000000000E+00 -0.12130644583E+04  0.12130644583E+04  0.00000000000E+00 0. -1.
        -24    2    1    2    0    0 -0.14693440032E+02 -0.40138863912E+02 -0.10847464575E+04  0.10884607638E+04  0.79024878926E+02 0.  0.
         25    2    1    2    0    0  0.30614652565E+02  0.75990705709E+01 -0.75757024464E+02  0.14961098247E+03  0.12509722816E+03 0.  0.
         24    2    1    2    0    0 -0.15921212532E+02  0.32539793341E+02  0.12673469299E+03  0.15428838146E+03  0.80192886764E+02 0.  0.
        -13    1    5    5    0    0  0.29209985006E+02  0.45952787182E+01  0.72975540827E+02  0.78738614222E+02  0.00000000000E+00 0.  1.
         14    1    5    5    0    0 -0.45131197538E+02  0.27944514623E+02  0.53759152166E+02  0.75549767243E+02  0.00000000000E+00 0. -1.
         11    1    3    3    0    0  0.12950884714E+02 -0.55852631924E+02 -0.76083861374E+03  0.76299583096E+03  0.00000000000E+00 0. -1.
        -12    1    3    3    0    0 -0.27644324746E+02  0.15713768012E+02 -0.32390784381E+03  0.32546493279E+03  0.00000000000E+00 0.  1.
          5    1    4    4  501    0 -0.47558480778E+02  0.16551598760E+01 -0.14171805594E+02  0.49828316467E+02  0.41800000000E+01 0.  1.
         -5    1    4    4    0  501  0.78173133343E+02  0.59439106949E+01 -0.61585218869E+02  0.99782666000E+02  0.41800000000E+01 0.  1.
</event>
<event>
11    1  0.1002087E-008  0.1820283E+03  0.7561462E-02  0.1068014E+00
         22   -1    0    0    0    0  0.00000000000E+00  0.00000000000E+00  0.26280217982E+03  0.26280217982E+03  0.00000000000E+00 0. -1.
         22   -1    0    0    0    0 -0.00000000000E+00 -0.00000000000E+00 -0.10092893928E+04  0.10092893928E+04  0.00000000000E+00 0. -1.
         24    2    1    2    0    0 -0.15410364930E+02  0.67160977336E+02 -0.84513623817E+03  0.85133629875E+03  0.75961544774E+02 0.  0.
         25    2    1    2    0    0 -0.11730366050E+03 -0.27512387126E+02 -0.70149679770E+02  0.18731214062E+03  0.12509108777E+03 0.  0.
        -24    2    1    2    0    0  0.13271402543E+03 -0.39648590210E+02  0.16879870493E+03  0.23344313328E+03  0.82569185773E+02 0.  0.
        -13    1    3    3    0    0 -0.18923825757E+02 -0.10535263097E+02 -0.11112558273E+03  0.11321659811E+03  0.00000000000E+00 0.  1.
         14    1    3    3    0    0  0.35134608271E+01  0.77696240433E+02 -0.73401065544E+03  0.73811970065E+03  0.00000000000E+00 0. -1.
         11    1    5    5    0    0  0.63814758666E+02  0.20915640061E+02  0.52040926636E+02  0.84959081139E+02  0.00000000000E+00 0. -1.
        -12    1    5    5    0    0  0.68899266761E+02 -0.60564230271E+02  0.11675777829E+03  0.14848405214E+03  0.00000000000E+00 0.  1.
          5    1    4    4  501    0  0.29682450769E+01 -0.21427094030E+02 -0.62842323817E+02  0.66592498828E+02  0.41800000000E+01 0.  1.
         -5    1    4    4    0  501 -0.12027190557E+03 -0.60852930952E+01 -0.73073559531E+01  0.12071964179E+03  0.41800000000E+01 0.  1.
</event>
<event>
11    1  0.1002087E-008  0.1590002E+03  0.7561462E-02  0.1088021E+00
         22   -1    0    0    0    0  0.00000000000E+00  0.00000000000E+00  0.18778977053E+03  0.18778977053E+03  0.00000000000E+00 0.  1.
         22   -1    0    0    0    0 -0.00000000000E+00 -0.00000000000E+00 -0.35594367396E+03  0.35594367396E+03  0.00000000000E+00 0.  1.
        -24    2    1    2    0    0  0.41092937058E+02 -0.53649258994E+01 -0.17001045161E+03  0.19225643818E+03  0.79633990619E+02 0.  0.
         25    2    1    2    0    0  0.33351302430E+02  0.76022571309E+02 -0.10443708078E+03  0.18288269659E+03  0.12508891297E+03 0.  0.
         24    2    1    2    0    0 -0.74444239488E+02 -0.70657645410E+02  0.10629362896E+03  0.16859430972E+03  0.81186563316E+02 0.  0.
        -13    1    5    5    0    0 -0.65572172798E+02 -0.48401565855E+02  0.11680692179E+03  0.14242990698E+03  0.00000000000E+00 0.  1.
         14    1    5    5    0    0 -0.88720666899E+01 -0.22256079555E+02 -0.10513292833E+02  0.26164402739E+02  0.00000000000E+00 0. -1.
         11    1    3    3    0    0  0.29662163231E+02  0.24421917607E+02 -0.30252005765E+02  0.48902534085E+02  0.00000000000E+00 0. -1.
        -12    1    3    3    0    0  0.11430773827E+02 -0.29786843507E+02 -0.13975844584E+03  0.14335390410E+03  0.00000000000E+00 0.  1.
          5    1    4    4  501    0  0.21235854131E+02  0.49850606379E+02 -0.13201316909E+03  0.14276201761E+03  0.41800000000E+01 0. -1.
         -5    1    4    4    0  501  0.12115448299E+02  0.26171964931E+02  0.27576088311E+02  0.40120678987E+02  0.41800000000E+01 0. -1.
</event>
<event>
11    1  0.1002087E-008  0.1420156E+03  0.7561462E-02  0.1105328E+00
         22   -1    0    0    0    0  0.00000000000E+00  0.00000000000E+00  0.14717751629E+04  0.14717751629E+04  0.00000000000E+00 0.  1.
         22   -1    0    0    0    0 -0.00000000000E+00 -0.00000000000E+00 -0.11373212043E+03  0.11373212043E+03  0.00000000000E+00 0.  1.
        -24    2    1    2    0    0 -0.83344395229E+01  0.26735660936E+02 -0.71596617263E+02  0.11051749123E+03  0.79396358959E+02 0.  0.
         25    2    1    2    0    0  0.72061292302E+02 -0.52899605944E+01  0.23689383253E+03  0.27746549617E+03  0.12509036789E+03 0.  0.
         24    2    1    2    0    0 -0.63726852779E+02 -0.21445700342E+02  0.11927458272E+04  0.11975242960E+04  0.83071061260E+02 0.  0.
        -11    1    5    5    0    0 -0.77711705063E+02  0.36100776785E+01  0.91437316517E+03  0.91767664619E+03  0.00000000000E+00 0.  1.
         12    1    5    5    0    0  0.13984852285E+02 -0.25055778020E+02  0.27837266206E+03  0.27984764978E+03  0.00000000000E+00 0. -1.
         11    1    3    3    0    0 -0.29115495013E+02 -0.12162582133E+02 -0.70308898124E+01  0.32327602224E+02  0.00000000000E+00 0. -1.
        -12    1    3    3    0    0  0.20781055490E+02  0.38898243069E+02 -0.64565727451E+02  0.78189889004E+02  0.00000000000E+00 0.  1.
          5    1    4    4  501    0  0.98700788276E+02 -0.11853494051E+02  0.11326840567E+03  0.15076324171E+03  0.41800000000E+01 0.  1.
         -5    1    4    4    0  501 -0.26639495974E+02  0.65635334571E+01  0.12362542687E+03  0.12670225446E+03  0.41800000000E+01 0.  1.
</event>
<event>
11    1  0.1002087E-008  0.1774453E+03  0.7561462E-02  0.1071728E+00
         22   -1    0    0    0    0  0.00000000000E+00  0.00000000000E+00  0.38484596995E+03  0.38484596995E+03  0.00000000000E+00 0.  1.
         22   -1    0    0    0    0 -0.00000000000E+00 -0.00000000000E+00 -0.80031820639E+03  0.80031820639E+03  0.00000000000E+00 0. -1.
        -24    2    1    2    0    0  0.57939006962E+02 -0.10884734133E+03 -0.70209431913E+03  0.71732643704E+03  0.80100637227E+02 0.  0.
         25    2    1    2    0    0 -0.51051994899E+02  0.17265757824E+03  0.73133442462E+02  0.23111464182E+03  0.12509409158E+03 0.  0.
         24    2    1    2    0    0 -0.68870120632E+01 -0.63810236912E+02  0.21348864023E+03  0.23672309748E+03  0.79631954049E+02 0.  0.
        -13    1    5    5    0    0  0.28776511210E+02 -0.19665635059E+02  0.13769487804E+03  0.14203768598E+03  0.00000000000E+00 0.  1.
         14    1    5    5    0    0 -0.35663523273E+02 -0.44144601853E+02  0.75793762183E+02  0.94685411500E+02  0.00000000000E+00 0. -1.
         11    1    3    3    0    0  0.77274729019E+02 -0.76620140938E+02 -0.49123100531E+03  0.50314007028E+03  0.00000000000E+00 0. -1.
        -12    1    3    3    0    0 -0.19335722057E+02 -0.32227200391E+02 -0.21086331382E+03  0.21418636676E+03  0.00000000000E+00 0.  1.
          5    1    4    4  501    0  0.21327492781E+02  0.12457007214E+03  0.68921535986E+02  0.14401463587E+03  0.41800000000E+01 0.  1.
         -5    1    4    4    0  501 -0.72379487680E+02  0.48087506096E+02  0.42119064755E+01  0.87100005944E+02  0.41800000000E+01 0.  1.
</event>
<event>
11    1  0.1002087E-008  0.1503786E+03  0.7561462E-02  0.1096493E+00
         22   -1    0    0    0    0  0.00000000000E+00  0.00000000000E+00  0.16320584526E+03  0.16320584526E+03  0.00000000000E+00 0. -1.
         22   -1    0    0    0    0 -0.00000000000E+00 -0.00000000000E+00 -0.23923966729E+04  0.23923966729E+04  0.00000000000E+00 0.  1.
        -24    2    1    2    0    0  0.68889817546E+01 -0.82188051497E+02 -0.22254733472E+04  0.22284110665E+04  0.79258617152E+02 0.  0.
         25    2    1    2    0    0 -0.92184723678E+01  0.11466483388E+03 -0.10559646651E+03  0.20008023951E+03  0.12509390129E+03 0.  0.
         24    2    1    2    0    0  0.23294906132E+01 -0.32476782383E+02  0.10187898611E+03  0.12711121211E+03  0.68685984831E+02 0.  0.
        -11    1    5    5    0    0 -0.19311871240E+02 -0.37008209175E+02  0.28682802482E+02  0.50648386700E+02  0.00000000000E+00 0.  1.
         12    1    5    5    0    0  0.21641361853E+02  0.45314267921E+01  0.73196183626E+02  0.76462825405E+02  0.00000000000E+00 0. -1.
         13    1    3    3    0    0  0.36425401335E+02 -0.36138374939E+02 -0.66397500295E+03  0.66595465052E+03  0.00000000000E+00 0. -1.
        -14    1    3    3    0    0 -0.29536419580E+02 -0.46049676557E+02 -0.15614983443E+04  0.15624564160E+04  0.00000000000E+00 0.  1.
          5    1    4    4  501    0  0.22615553865E+02  0.12199955765E+03 -0.11120525559E+03  0.16667164310E+03  0.41800000000E+01 0.  1.
         -5    1    4    4    0  501 -0.31834026233E+02 -0.73347237689E+01  0.56087890793E+01  0.33408596407E+02  0.41800000000E+01 0.  1.
</event>
<event>
11    1  0.1204076E-008  0.1536659E+03  0.7561462E-02  0.1093191E+00
         22   -1    0    0    0    0  0.00000000000E+00  0.00000000000E+00  0.14095504248E+04  0.14095504248E+04  0.00000000000E+00 0. -1.
         22   -1    0    0    0    0 -0.00000000000E+00 -0.00000000000E+00 -0.11176575292E+04  0.11176575292E+04  0.00000000000E+00 0.  1.
         24    2    1    2    0    0  0.94038809421E+01  0.39695436874E+01 -0.77140967271E+03  0.77558389893E+03  0.79707658808E+02 0.  0.
         25    2    1    2    0    0 -0.96911464559E+02  0.13229376459E+02 -0.32308931552E+03  0.36000265753E+03  0.12509340215E+03 0.  0.
        -24    2    1    2    0    0  0.87507583617E+02 -0.17198920146E+02  0.13863918839E+04  0.13916213975E+04  0.81081922980E+02 0.  0.
        -13    1    3    3    0    0 -0.96651507004E+01 -0.14349283368E+02 -0.68500972409E+03  0.68522816578E+03  0.00000000000E+00 0.  1.
         14    1    3    3    0    0  0.19069031643E+02  0.18318827055E+02 -0.86399948618E+02  0.90355733153E+02  0.00000000000E+00 0. -1.
         11    1    5    5    0    0  0.40707319632E+02 -0.18694149235E+02  0.11363789300E+04  0.11372614605E+04  0.00000000000E+00 0. -1.
        -12    1    5    5    0    0  0.46800263985E+02  0.14952290888E+01  0.25001295390E+03  0.25435993697E+03  0.00000000000E+00 0.  1.
          5    1    4    4  501    0 -0.11868852773E+03  0.17619228203E+02 -0.31302138882E+03  0.33525701496E+03  0.41800000000E+01 0.  1.
         -5    1    4    4    0  501  0.21777063168E+02 -0.43898517443E+01 -0.10067926697E+02  0.24745642576E+02  0.41800000000E+01 0.  1.
</event>
<event>
11    1  0.1002087E-008  0.1432079E+03  0.7561462E-02  0.1104028E+00
         22   -1    0    0    0    0  0.00000000000E+00  0.00000000000E+00  0.47578945175E+03  0.47578945175E+03  0.00000000000E+00 0. -1.
         22   -1    0    0    0    0 -0.00000000000E+00 -0.00000000000E+00 -0.80341565892E+03  0.80341565892E+03  0.00000000000E+00 0. -1.
         24    2    1    2    0    0  0.45706991663E+02 -0.49515465026E+02 -0.71395335109E+03  0.72185787152E+03  0.82513567296E+02 0.  0.
         25    2    1    2    0    0 -0.90077336741E+02  0.97001343401E+02  0.28059521063E+02  0.18427789021E+03  0.12509123423E+03 0.  0.
        -24    2    1    2    0    0  0.44370345078E+02 -0.47485878375E+02  0.35826762285E+03  0.37306934894E+03  0.81249082259E+02 0.  0.
        -11    1    3    3    0    0 -0.23340359762E+02 -0.22401944009E+02 -0.21885779171E+03  0.22123596562E+03  0.00000000000E+00 0.  1.
         12    1    3    3    0    0  0.69047351426E+02 -0.27113521017E+02 -0.49509555937E+03  0.50062190591E+03  0.00000000000E+00 0. -1.
         13    1    5    5    0    0  0.62802356181E+01 -0.56488315517E+02  0.27821095074E+03  0.28395722259E+03  0.00000000000E+00 0. -1.
        -14    1    5    5    0    0  0.38090109460E+02  0.90024371423E+01  0.80056672113E+02  0.89112126352E+02  0.00000000000E+00 0.  1.
          5    1    4    4  501    0 -0.10686586679E+03  0.10442601431E+03  0.47865809196E+02  0.15695131105E+03  0.41800000000E+01 0.  1.
         -5    1    4    4    0  501  0.16788530049E+02 -0.74246709057E+01 -0.19806288132E+02  0.27326579165E+02  0.41800000000E+01 0.  1.
</event>
<event>
11    1  0.1002087E-008  0.1616489E+03  0.7561462E-02  0.1085537E+00
         22   -1    0    0    0    0  0.00000000000E+00  0.00000000000E+00  0.58006233102E+03  0.58006233102E+03  0.00000000000E+00 0. -1.
         22   -1    0    0    0    0 -0.00000000000E+00 -0.00000000000E+00 -0.16403768800E+04  0.16403768800E+04  0.00000000000E+00 0.  1.
         24    2    1    2    0    0 -0.88711437615E+01 -0.71521598158E+01 -0.14908326238E+04  0.14929811786E+04  0.79252992185E+02 0.  0.
         25    2    1    2    0    0 -0.92141539833E+02 -0.12578809315E+02 -0.97313064791E+02  0.18375559489E+03  0.12509195125E+03 0.  0.
        -24    2    1    2    0    0  0.10101268359E+03  0.19730969131E+02  0.52783113963E+03  0.54370243755E+03  0.80085924198E+02 0.  0.
        -11    1    3    3    0    0  0.44496453645E+01  0.44097355494E+01 -0.14190286327E+04  0.14190424608E+04  0.00000000000E+00 0.  1.
         12    1    3    3    0    0 -0.13320789126E+02 -0.11561895365E+02 -0.71803991117E+02  0.73938717785E+02  0.00000000000E+00 0. -1.
         11    1    5    5    0    0  0.83428087674E+02  0.24607875401E+02  0.51261584762E+03  0.51994307437E+03  0.00000000000E+00 0. -1.
        -12    1    5    5    0    0  0.17584595921E+02 -0.48769062701E+01  0.15215292001E+02  0.23759363189E+02  0.00000000000E+00 0.  1.
          5    1    4    4  501    0  0.92106628055E+01  0.97965752750E+01 -0.76536864200E+02  0.77821418504E+02  0.41800000000E+01 0. -1.
         -5    1    4    4    0  501 -0.10135220264E+03 -0.22375384590E+02 -0.20776200591E+02  0.10593417638E+03  0.41800000000E+01 0. -1.
</event>
<event>
11    1  0.1002087E-008  0.1318025E+03  0.7561462E-02  0.1117074E+00
         22   -1    0    0    0    0  0.00000000000E+00  0.00000000000E+00  0.50073782086E+03  0.50073782086E+03  0.00000000000E+00 0.  1.
         22   -1    0    0    0    0 -0.00000000000E+00 -0.00000000000E+00 -0.41895070253E+03  0.41895070253E+03  0.00000000000E+00 0. -1.
        -24    2    1    2    0    0 -0.39640546138E+01 -0.23818899232E+02 -0.38385321251E+03  0.39312365025E+03  0.81362533983E+02 0.  0.
         25    2    1    2    0    0 -0.31424280455E+02 -0.45640112578E+01  0.15193424416E+03  0.19934816036E+03  0.12508940358E+03 0.  0.
         24    2    1    2    0    0  0.35388335069E+02  0.28382910490E+02  0.31370608669E+03  0.32721671278E+03  0.81248658044E+02 0.  0.
        -13    1    5    5    0    0  0.56622915726E+02  0.30493051466E+02  0.16679542852E+03  0.17876435816E+03  0.00000000000E+00 0.  1.
         14    1    5    5    0    0 -0.21234580657E+02 -0.21101409758E+01  0.14691065816E+03  0.14845235462E+03  0.00000000000E+00 0. -1.
         11    1    3    3    0    0 -0.24627138971E+02 -0.43477127524E+02 -0.30913537048E+03  0.31314762313E+03  0.00000000000E+00 0. -1.
        -12    1    3    3    0    0  0.20663084357E+02  0.19658228292E+02 -0.74717842031E+02  0.79976027111E+02  0.00000000000E+00 0.  1.
          5    1    4    4  501    0 -0.28236675468E+01 -0.50497115859E+02  0.16368570562E+02  0.53322924815E+02  0.41800000000E+01 0.  1.
         -5    1    4    4    0  501 -0.28600612908E+02  0.45933104602E+02  0.13556567360E+03  0.14602523554E+03  0.41800000000E+01 0.  1.
</event>
<event>
11    1  0.1002087E-008  0.1345681E+03  0.7561462E-02  0.1113780E+00
         22   -1    0    0    0    0  0.00000000000E+00  0.00000000000E+00  0.22966627153E+03  0.22966627153E+03  0.00000000000E+00 0. -1.
         22   -1    0    0    0    0 -0.00000000000E+00 -0.00000000000E+00 -0.66038906345E+03  0.66038906345E+03  0.00000000000E+00 0.  1.
        -24    2    1    2    0    0  0.17444023259E+02 -0.43790724123E+02 -0.54981551347E+03  0.55809790534E+03  0.83392155640E+02 0.  0.
         25    2    1    2    0    0 -0.35918220338E+02  0.78261077336E+02 -0.34643049300E+02  0.15575927975E+03  0.12508356241E+03 0.  0.
         24    2    1    2    0    0  0.18474197079E+02 -0.34470353213E+02  0.15373577085E+03  0.17619814989E+03  0.76691587381E+02 0.  0.
        -13    1    5    5    0    0 -0.30024547470E+02 -0.92292725965E+01  0.55416308973E+02  0.63699452302E+02  0.00000000000E+00 0.  1.
         14    1    5    5    0    0  0.48498744549E+02 -0.25241080616E+02  0.98319461880E+02  0.11249869758E+03  0.00000000000E+00 0. -1.
         13    1    3    3    0    0  0.22176184324E+02 -0.61150889068E+01 -0.34993587953E+02  0.41877543640E+02  0.00000000000E+00 0. -1.
        -14    1    3    3    0    0 -0.47321610643E+01 -0.37675635216E+02 -0.51482192552E+03  0.51622036170E+03  0.00000000000E+00 0.  1.
          5    1    4    4  501    0 -0.99377930700E+01  0.52158254869E+02  0.43827698796E+02  0.68975233699E+02  0.41800000000E+01 0.  1.
         -5    1    4    4    0  501 -0.25980427268E+02  0.26102822466E+02 -0.78470748096E+02  0.86784046048E+02  0.41800000000E+01 0.  1.
</event>
<event>
11    1  0.1002087E-008  0.2208790E+03  0.7561462E-02  0.1040668E+00
         22   -1    0    0    0    0  0.00000000000E+00  0.00000000000E+00  0.27252178971E+03  0.27252178971E+03  0.00000000000E+00 0. -1.
         22   -1    0    0    0    0 -0.00000000000E+00 -0.00000000000E+00 -0.93959823132E+03  0.93959823132E+03  0.00000000000E+00 0.  1.
         24    2    1    2    0    0 -0.36393130671E+00 -0.19478921328E+02 -0.64988410891E+03  0.65365392724E+03  0.67338998871E+02 0.  0.
         25    2    1    2    0    0 -0.12366943708E+03 -0.11684494600E+03 -0.19732522008E+03  0.28901910668E+03  0.12509168827E+03 0.  0.
        -24    2    1    2    0    0  0.12403336839E+03  0.13632386733E+03  0.18013288738E+03  0.26944698710E+03  0.78646986374E+02 0.  0.
        -13    1    3    3    0    0  0.61854380995E+01  0.79316007085E+01 -0.54371649925E+03  0.54380952684E+03  0.00000000000E+00 0.  1.
         14    1    3    3    0    0 -0.65493694062E+01 -0.27410522037E+02 -0.10616760966E+03  0.10984440040E+03  0.00000000000E+00 0. -1.
         13    1    5    5    0    0  0.67516793091E+02  0.12129552197E+03  0.14718842692E+03  0.20232536672E+03  0.00000000000E+00 0. -1.
        -14    1    5    5    0    0  0.56516575296E+02  0.15028345352E+02  0.32944460461E+02  0.67121620379E+02  0.00000000000E+00 0.  1.
          5    1    4    4  501    0 -0.10700551676E+03 -0.14323572080E+03 -0.17647443735E+03  0.25125157068E+03  0.41800000000E+01 0.  1.
         -5    1    4    4    0  501 -0.16663920322E+02  0.26390774806E+02 -0.20850782732E+02  0.37767536005E+02  0.41800000000E+01 0.  1.
</event>
<event>
11    1  0.1002087E-008  0.2775709E+03  0.7561462E-02  0.1010157E+00
         22   -1    0    0    0    0  0.00000000000E+00  0.00000000000E+00  0.22206416630E+04  0.22206416630E+04  0.00000000000E+00 0. -1.
         22   -1    0    0    0    0 -0.00000000000E+00 -0.00000000000E+00 -0.11601981027E+04  0.11601981027E+04  0.00000000000E+00 0.  1.
         24    2    1    2    0    0 -0.43333380884E+01  0.63339399167E+01 -0.60028214223E+03  0.60563397541E+03  0.79968526793E+02 0.  0.
         25    2    1    2    0    0  0.20590907345E+03 -0.15026362852E+03 -0.51276632450E+03  0.58613491808E+03  0.12508850496E+03 0.  0.
        -24    2    1    2    0    0 -0.20157573536E+03  0.14392968860E+03  0.21734920270E+04  0.21890708722E+04  0.81333630573E+02 0.  0.
        -13    1    3    3    0    0  0.17578615809E+02  0.81462785947E+01 -0.55457731344E+03  0.55491563878E+03  0.00000000000E+00 0.  1.
         14    1    3    3    0    0 -0.21911953898E+02 -0.18123386780E+01 -0.45704828792E+02  0.50718336625E+02  0.00000000000E+00 0. -1.
         13    1    5    5    0    0 -0.18094868056E+03  0.14253294896E+03  0.17527038549E+04  0.17677751185E+04  0.00000000000E+00 0. -1.
        -14    1    5    5    0    0 -0.20627054808E+02  0.13967396443E+01  0.42078817209E+03  0.42129575365E+03  0.00000000000E+00 0.  1.
          5    1    4    4  501    0  0.85820566794E+02 -0.13523588952E+03 -0.25200636606E+03  0.29862785610E+03  0.41800000000E+01 0.  1.
         -5    1    4    4    0  501  0.12008850666E+03 -0.15027738996E+02 -0.26075995843E+03  0.28750706199E+03  0.41800000000E+01 0.  1.
</event>
<event>
11    1  0.1002087E-008  0.2505328E+03  0.7561462E-02  0.1023616E+00
         22   -1    0    0    0    0  0.00000000000E+00  0.00000000000E+00  0.27758013070E+03  0.27758013070E+03  0.00000000000E+00 0. -1.
         22   -1    0    0    0    0 -0.00000000000E+00 -0.00000000000E+00 -0.90688651657E+03  0.90688651657E+03  0.00000000000E+00 0.  1.
        -24    2    1    2    0    0 -0.18814200998E+03 -0.10164524039E+03 -0.54895051908E+03  0.59480019563E+03  0.81923314798E+02 0.  0.
         25    2    1    2    0    0  0.26666750610E+03 -0.44869707014E+02 -0.20954486567E+03  0.36425469062E+03  0.12509028537E+03 0.  0.
         24    2    1    2    0    0 -0.78525496111E+02  0.14651494740E+03  0.12918899888E+03  0.22541176102E+03  0.80546764210E+02 0.  0.
        -13    1    5    5    0    0  0.86955546006E+01  0.58365319041E+02  0.27791343346E+02  0.65226389610E+02  0.00000000000E+00 0.  1.
         14    1    5    5    0    0 -0.87221050712E+02  0.88149628363E+02  0.10139765553E+03  0.16018537141E+03  0.00000000000E+00 0. -1.
         11    1    3    3    0    0 -0.39211865940E+02 -0.54288286174E+02 -0.10912436645E+03  0.12803482261E+03  0.00000000000E+00 0. -1.
        -12    1    3    3    0    0 -0.14893014404E+03 -0.47356954216E+02 -0.43982615263E+03  0.46676537302E+03  0.00000000000E+00 0.  1.
          5    1    4    4  501    0  0.84111472762E+02  0.13494070647E+02 -0.73162882589E+01  0.85602746841E+02  0.41800000000E+01 0.  1.
         -5    1    4    4    0  501  0.18255603333E+03 -0.58363777661E+02 -0.20222857741E+03  0.27865194378E+03  0.41800000000E+01 0.  1.
</event>
<event>
11    1  0.1002087E-008  0.1420409E+03  0.7561462E-02  0.1105301E+00
         22   -1    0    0    0    0  0.00000000000E+00  0.00000000000E+00  0.11622465378E+03  0.11622465378E+03  0.00000000000E+00 0. -1.
         22   -1    0    0    0    0 -0.00000000000E+00 -0.00000000000E+00 -0.57971095451E+03  0.57971095451E+03  0.00000000000E+00 0. -1.
        -24    2    1    2    0    0  0.57211183782E+02  0.33460800698E+02 -0.44332417646E+03  0.45501592205E+03  0.78169170084E+02 0.  0.
         25    2    1    2    0    0 -0.68467435804E+02 -0.34701323662E+02 -0.48363475858E+02  0.15452049873E+03  0.12508232130E+03 0.  0.
         24    2    1    2    0    0  0.11256252021E+02  0.12405229634E+01  0.28201351580E+02  0.86399187512E+02  0.80878064177E+02 0.  0.
        -11    1    5    5    0    0 -0.76611758944E+00  0.33749210375E+02 -0.96162323541E+01  0.35100827081E+02  0.00000000000E+00 0.  1.
         12    1    5    5    0    0  0.12022369611E+02 -0.32508687411E+02  0.37817583934E+02  0.51298360431E+02  0.00000000000E+00 0. -1.
         11    1    3    3    0    0  0.53233807574E+02 -0.76270306865E+01 -0.33113287211E+03  0.33547129364E+03  0.00000000000E+00 0. -1.
        -12    1    3    3    0    0  0.39773762080E+01  0.41087831385E+02 -0.11219130435E+03  0.11954462841E+03  0.00000000000E+00 0.  1.
          5    1    4    4  501    0  0.19140745283E+02  0.28270993385E+02  0.38033550755E+01  0.34605709164E+02  0.41800000000E+01 0.  1.
         -5    1    4    4    0  501 -0.87608181087E+02 -0.62972317046E+02 -0.52166830934E+02  0.11991478957E+03  0.41800000000E+01 0.  1.
</event>
<event>
11    1  0.1002087E-008  0.1519501E+03  0.7561462E-02  0.1094903E+00
         22   -1    0    0    0    0  0.00000000000E+00  0.00000000000E+00  0.19726418076E+03  0.19726418076E+03  0.00000000000E+00 0. -1.
         22   -1    0    0    0    0 -0.00000000000E+00 -0.00000000000E+00 -0.22550981245E+04  0.22550981245E+04  0.00000000000E+00 0. -1.
         24    2    1    2    0    0 -0.30327212235E+02 -0.79190544856E+02 -0.18676887661E+04  0.18713197532E+04  0.79908756616E+02 0.  0.
         25    2    1    2    0    0  0.56258620597E+02  0.85581863095E+02 -0.35837666899E+03  0.39315429555E+03  0.12508867076E+03 0.  0.
        -24    2    1    2    0    0 -0.25931408362E+02 -0.63913182389E+01  0.16823149137E+03  0.18788825652E+03  0.79289818761E+02 0.  0.
        -11    1    3    3    0    0 -0.40302132876E+02 -0.16464168125E+02 -0.11507004290E+04  0.11515236898E+04  0.00000000000E+00 0.  1.
         12    1    3    3    0    0  0.99749206404E+01 -0.62726376731E+02 -0.71698833705E+03  0.71979606338E+03  0.00000000000E+00 0. -1.
         13    1    5    5    0    0 -0.19402530152E+02 -0.38272406908E+02  0.13379691484E+03  0.14050925140E+03  0.00000000000E+00 0. -1.
        -14    1    5    5    0    0 -0.65288782103E+01  0.31881088669E+02  0.34434576534E+02  0.47379005123E+02  0.00000000000E+00 0.  1.
          5    1    4    4  501    0  0.87734075495E+02  0.94168707094E+02 -0.28631099551E+03  0.31393705093E+03  0.41800000000E+01 0. -1.
         -5    1    4    4    0  501 -0.31475454897E+02 -0.85868439985E+01 -0.72065673481E+02  0.79217244619E+02  0.41800000000E+01 0. -1.
</event>
<event>
11    1  0.1002087E-008  0.1356658E+03  0.7561462E-02  0.1112497E+00
         22   -1    0    0    0    0  0.00000000000E+00  0.00000000000E+00  0.17631146634E+03  0.17631146634E+03  0.00000000000E+00 0. -1.
         22   -1    0    0    0    0 -0.00000000000E+00 -0.00000000000E+00 -0.42522560653E+03  0.42522560653E+03  0.00000000000E+00 0. -1.
         24    2    1    2    0    0 -0.22641223535E+02 -0.21128140263E+02 -0.22083151754E+03  0.23511857520E+03  0.74532958825E+02 0.  0.
         25    2    1    2    0    0 -0.20310039464E+02 -0.13302290940E+02 -0.15862044191E+03  0.20346433360E+03  0.12509133386E+03 0.  0.
        -24    2    1    2    0    0  0.42951262999E+02  0.34430431203E+02  0.13053781925E+03  0.16295416408E+03  0.80521250295E+02 0.  0.
        -13    1    3    3    0    0  0.42220897199E+00  0.15231341278E+02 -0.15924981304E+03  0.15997710765E+03  0.00000000000E+00 0.  1.
         14    1    3    3    0    0 -0.23063432507E+02 -0.36359481542E+02 -0.61581704494E+02  0.75141467548E+02  0.00000000000E+00 0. -1.
         11    1    5    5    0    0  0.13520723253E+02 -0.23665439952E+02  0.65363866127E+02  0.70818768702E+02  0.00000000000E+00 0. -1.
        -12    1    5    5    0    0  0.29430539746E+02  0.58095871155E+02  0.65173953126E+02  0.92135395376E+02  0.00000000000E+00 0.  1.
          5    1    4    4  501    0  0.13359725656E+02 -0.64060551000E+02 -0.93479487283E+02  0.11418460232E+03  0.41800000000E+01 0.  1.
         -5    1    4    4    0  501 -0.33669765121E+02  0.50758260060E+02 -0.65140954625E+02  0.89279731278E+02  0.41800000000E+01 0.  1.
</event>
<event>
11    1  0.1002087E-008  0.2213499E+03  0.7561462E-02  0.1040375E+00
         22   -1    0    0    0    0  0.00000000000E+00  0.00000000000E+00  0.36869166896E+03  0.36869166896E+03  0.00000000000E+00 0.  1.
         22   -1    0    0    0    0 -0.00000000000E+00 -0.00000000000E+00 -0.22344904794E+03  0.22344904794E+03  0.00000000000E+00 0. -1.
        -24    2    1    2    0    0  0.23657648070E+02  0.77390023483E+01 -0.50476643860E+02  0.99677902511E+02  0.82269169220E+02 0.  0.
         25    2    1    2    0    0 -0.70978900508E+02 -0.17978507922E+03  0.22623560775E+02  0.23134507599E+03  0.12509212468E+03 0.  0.
         24    2    1    2    0    0  0.47321252438E+02  0.17204607687E+03  0.17309570411E+03  0.26111773839E+03  0.79882394960E+02 0.  0.
        -11    1    5    5    0    0  0.67909788640E+02  0.13401635353E+03  0.11777891476E+03  0.19090310414E+03  0.00000000000E+00 0.  1.
         12    1    5    5    0    0 -0.20588536202E+02  0.38029723339E+02  0.55316789344E+02  0.70214634254E+02  0.00000000000E+00 0. -1.
         11    1    3    3    0    0 -0.66030912886E+01  0.12281907657E+02 -0.64519826693E+02  0.66009500125E+02  0.00000000000E+00 0. -1.
        -12    1    3    3    0    0  0.30260739358E+02 -0.45429053083E+01  0.14043182833E+02  0.33668402386E+02  0.00000000000E+00 0.  1.
          5    1    4    4  501    0 -0.67234093760E+02 -0.39251682378E+02 -0.26533522524E+02  0.82356652135E+02  0.41800000000E+01 0. -1.
         -5    1    4    4    0  501 -0.37448067475E+01 -0.14053339684E+03  0.49157083299E+02  0.14898842386E+03  0.41800000000E+01 0. -1.
</event>
<event>
11    1  0.1002087E-008  0.2098176E+03  0.7561462E-02  0.1047790E+00
         22   -1    0    0    0    0  0.00000000000E+00  0.00000000000E+00  0.32270015902E+03  0.32270015902E+03  0.00000000000E+00 0.  1.
         22   -1    0    0    0    0 -0.00000000000E+00 -0.00000000000E+00 -0.21930919755E+03  0.21930919755E+03  0.00000000000E+00 0.  1.
         24    2    1    2    0    0 -0.65357507495E+02  0.18170347076E+03 -0.50456028678E+02  0.21437899138E+03  0.78261012276E+02 0.  0.
         25    2    1    2    0    0  0.42674079451E+02 -0.12289957847E+03  0.63752247466E+02  0.19140569238E+03  0.12508559698E+03 0.  0.
        -24    2    1    2    0    0  0.22683428043E+02 -0.58803892292E+02  0.90094742681E+02  0.13622467281E+03  0.80421782911E+02 0.  0.
        -13    1    3    3    0    0 -0.47696556377E+02  0.67813376944E+02  0.11219149070E+02  0.83662924218E+02  0.00000000000E+00 0.  1.
         14    1    3    3    0    0 -0.17660951118E+02  0.11389009382E+03 -0.61675177748E+02  0.13071606716E+03  0.00000000000E+00 0. -1.
         11    1    5    5    0    0 -0.15534891882E+01  0.19135214052E+02  0.26654758466E+02  0.32848833988E+02  0.00000000000E+00 0. -1.
        -12    1    5    5    0    0  0.24236917232E+02 -0.77939106345E+02  0.63439984215E+02  0.10337583882E+03  0.00000000000E+00 0.  1.
          5    1    4    4  501    0  0.68186591034E+02 -0.12682606549E+03  0.27418836186E+02  0.14664080968E+03  0.41800000000E+01 0. -1.
         -5    1    4    4    0  501 -0.25512511583E+02  0.39264870256E+01  0.36333411279E+02  0.44764882697E+02  0.41800000000E+01 0. -1.
</event>
<event>
11    1  0.1002087E-008  0.1674896E+03  0.7561462E-02  0.1080237E+00
         22   -1    0    0    0    0  0.00000000000E+00  0.00000000000E+00  0.75519789528E+03  0.75519789528E+03  0.00000000000E+00 0.  1.
         22   -1    0    0    0    0 -0.00000000000E+00 -0.00000000000E+00 -0.65861227351E+03  0.65861227351E+03  0.00000000000E+00 0. -1.
        -24    2    1    2    0    0  0.94692933867E+02  0.56431508201E+02 -0.50511285627E+03  0.52333956646E+03  0.81203678534E+02 0.  0.
         25    2    1    2    0    0 -0.12956710771E+03 -0.10361195423E+02 -0.83153193048E+02  0.19863881379E+03  0.12509170659E+03 0.  0.
         24    2    1    2    0    0  0.34874173843E+02 -0.46070312778E+02  0.68485167110E+03  0.69183178854E+03  0.79187944216E+02 0.  0.
        -13    1    5    5    0    0  0.13015630667E+02 -0.44696394776E+02  0.64220356937E+03  0.64388865409E+03  0.00000000000E+00 0.  1.
         14    1    5    5    0    0  0.21858543176E+02 -0.13739180025E+01  0.42648101729E+02  0.47943134457E+02  0.00000000000E+00 0. -1.
         11    1    3    3    0    0  0.51753832903E+02  0.71755179635E+02 -0.38045076736E+03  0.39060216513E+03  0.00000000000E+00 0. -1.
        -12    1    3    3    0    0  0.42939100964E+02 -0.15323671434E+02 -0.12466208892E+03  0.13273740133E+03  0.00000000000E+00 0.  1.
          5    1    4    4  501    0 -0.85967663867E+02 -0.34228387355E+02 -0.10852349373E+03  0.14267740824E+03  0.41800000000E+01 0.  1.
         -5    1    4    4    0  501 -0.43599443843E+02  0.23867191933E+02  0.25370300678E+02  0.55961405546E+02  0.41800000000E+01 0.  1.
</event>
<event>
11    1  0.1002087E-008  0.1294827E+03  0.7561462E-02  0.1119906E+00
         22   -1    0    0    0    0  0.00000000000E+00  0.00000000000E+00  0.83512518057E+02  0.83512518057E+02  0.00000000000E+00 0.  1.
         22   -1    0    0    0    0 -0.00000000000E+00 -0.00000000000E+00 -0.10769463592E+04  0.10769463592E+04  0.00000000000E+00 0.  1.
         24    2    1    2    0    0  0.21578004294E+02 -0.33607373136E+02 -0.56091151849E+03  0.56795063623E+03  0.79693963478E+02 0.  0.
         25    2    1    2    0    0 -0.18775547449E+02  0.85122582519E+01 -0.48026980967E+03  0.49672837690E+03  0.12511998486E+03 0.  0.
        -24    2    1    2    0    0 -0.28024568448E+01  0.25095114884E+02  0.47747487006E+02  0.95779864147E+02  0.79097037272E+02 0.  0.
        -13    1    3    3    0    0  0.10453144671E+02 -0.54298384303E+02 -0.49298695890E+03  0.49607834504E+03  0.00000000000E+00 0.  1.
         14    1    3    3    0    0  0.11124859623E+02  0.20691011167E+02 -0.67924559591E+02  0.71872291186E+02  0.00000000000E+00 0. -1.
         11    1    5    5    0    0 -0.20303171859E+02 -0.12180714364E+02 -0.92869249374E+01  0.25432962170E+02  0.00000000000E+00 0. -1.
        -12    1    5    5    0    0  0.17500715014E+02  0.37275829248E+02  0.57034411943E+02  0.70346901977E+02  0.00000000000E+00 0.  1.
          5    1    4    4  501    0 -0.70480055143E+02  0.15725854613E+02 -0.32176716071E+03  0.32979739051E+03  0.41800000000E+01 0. -1.
         -5    1    4    4    0  501  0.51704507693E+02 -0.72135963612E+01 -0.15850264896E+03  0.16693098639E+03  0.41800000000E+01 0. -1.
</event>
<event>
11    1  0.1002087E-008  0.1650069E+03  0.7561462E-02  0.1082460E+00
         22   -1    0    0    0    0  0.00000000000E+00  0.00000000000E+00  0.96562664051E+03  0.96562664051E+03  0.00000000000E+00 0. -1.
         22   -1    0    0    0    0 -0.00000000000E+00 -0.00000000000E+00 -0.11911860656E+03  0.11911860656E+03  0.00000000000E+00 0.  1.
        -24    2    1    2    0    0  0.89843916710E+02  0.56434756563E+02 -0.25465505005E+02  0.13116030351E+03  0.72785452906E+02 0.  0.
         25    2    1    2    0    0 -0.94661723025E+02 -0.61471200897E+02  0.14500683877E+03  0.22229284370E+03  0.12509026630E+03 0.  0.
         24    2    1    2    0    0  0.48178063150E+01  0.50364443335E+01  0.72696670018E+03  0.73129209986E+03  0.79113684721E+02 0.  0.
        -13    1    5    5    0    0  0.15770137904E+02 -0.34734327056E+02  0.34065541910E+03  0.34278460480E+03  0.00000000000E+00 0.  1.
         14    1    5    5    0    0 -0.10952331589E+02  0.39770771390E+02  0.38631128108E+03  0.38850749506E+03  0.00000000000E+00 0. -1.
         13    1    3    3    0    0  0.77654687012E+01 -0.16186379000E+02 -0.97988036993E+01  0.20452821889E+02  0.00000000000E+00 0. -1.
        -14    1    3    3    0    0  0.82078448009E+02  0.72621135564E+02 -0.15666701306E+02  0.11070748163E+03  0.00000000000E+00 0.  1.
          5    1    4    4  501    0 -0.44093621061E+02 -0.70068068585E+02  0.14917689453E+03  0.17066048141E+03  0.41800000000E+01 0.  1.
         -5    1    4    4    0  501 -0.50568101964E+02  0.85968676878E+01 -0.41700557603E+01  0.51632362287E+02  0.41800000000E+01 0.  1.
</event>
<event>
11    1  0.2440136E-008  0.1759775E+03  0.7561462E-02  0.1072944E+00
         22   -1    0    0    0    0  0.00000000000E+00  0.00000000000E+00  0.83990791122E+03  0.83990791122E+03  0.00000000000E+00 0. -1.
         22   -1    0    0    0    0 -0.00000000000E+00 -0.00000000000E+00 -0.63269092676E+03  0.63269092676E+03  0.00000000000E+00 0. -1.
        -24    2    1    2    0    0 -0.31452197559E+02 -0.46534561208E+02 -0.27461342021E+03  0.29234665097E+03  0.83062191498E+02 0.  0.
         25    2    1    2    0    0  0.15425230482E+03  0.55108599156E+02 -0.31139251082E+03  0.37342131380E+03  0.12508977000E+03 0.  0.
         24    2    1    2    0    0 -0.12280010727E+03 -0.85740379486E+01  0.79322291550E+03  0.80683087321E+03  0.81363897476E+02 0.  0.
        -13    1    5    5    0    0 -0.13683858506E+02  0.16610822828E+02  0.40877185729E+02  0.46196447177E+02  0.00000000000E+00 0.  1.
         14    1    5    5    0    0 -0.10911624876E+03 -0.25184860777E+02  0.75234572977E+03  0.76063442603E+03  0.00000000000E+00 0. -1.
         13    1    3    3    0    0 -0.25983559397E+02 -0.79765023544E+01 -0.23580860044E+03  0.23736989276E+03  0.00000000000E+00 0. -1.
        -14    1    3    3    0    0 -0.54686381620E+01 -0.38558058853E+02 -0.38804819777E+02  0.54976758215E+02  0.00000000000E+00 0.  1.
          5    1    4    4  501    0 -0.20510345626E+02  0.14604766754E+02 -0.53075420706E+02  0.58893515541E+02  0.41800000000E+01 0.  1.
         -5    1    4    4    0  501  0.17476265045E+03  0.40503832402E+02 -0.25831709012E+03  0.31452779826E+03  0.41800000000E+01 0.  1.
</event>
<event>
11    1  0.1002087E-008  0.1275989E+03  0.7561462E-02  0.1122255E+00
         22   -1    0    0    0    0  0.00000000000E+00  0.00000000000E+00  0.18497839602E+03  0.18497839602E+03  0.00000000000E+00 0.  1.
         22   -1    0    0    0    0 -0.00000000000E+00 -0.00000000000E+00 -0.10360558606E+04  0.10360558606E+04  0.00000000000E+00 0. -1.
         24    2    1    2    0    0 -0.55866581158E+01  0.16847536814E+02 -0.65792634383E+03  0.66270910217E+03  0.77467605765E+02 0.  0.
         25    2    1    2    0    0 -0.78392607924E+01  0.52778205233E+01 -0.35415349385E+03  0.37570095456E+03  0.12504879308E+03 0.  0.
        -24    2    1    2    0    0  0.13425918908E+02 -0.22125357337E+02  0.16100237306E+03  0.18262419994E+03  0.82219508263E+02 0.  0.
        -11    1    3    3    0    0 -0.19890288162E+02 -0.26653397032E+02 -0.24352816345E+03  0.24578851382E+03  0.00000000000E+00 0.  1.
         12    1    3    3    0    0  0.14303630046E+02  0.43500933846E+02 -0.41439818039E+03  0.41692058834E+03  0.00000000000E+00 0. -1.
         11    1    5    5    0    0 -0.71729141376E+01 -0.25021115619E+02  0.66345958783E+01  0.26861213422E+02  0.00000000000E+00 0. -1.
        -12    1    5    5    0    0  0.20598833046E+02  0.28957582815E+01  0.15436777718E+03  0.15576298652E+03  0.00000000000E+00 0.  1.
          5    1    4    4  501    0 -0.45654119418E+02  0.17953336677E+02 -0.31774680208E+03  0.32153868126E+03  0.41800000000E+01 0. -1.
         -5    1    4    4    0  501  0.37814858626E+02 -0.12675516154E+02 -0.36406691770E+02  0.54162273293E+02  0.41800000000E+01 0. -1.
</event>
<event>
11    1  0.1002087E-008  0.3117585E+03  0.7561462E-02  0.9953340E-01
         22   -1    0    0    0    0  0.00000000000E+00  0.00000000000E+00  0.14977669634E+03  0.14977669634E+03  0.00000000000E+00 0. -1.
         22   -1    0    0    0    0 -0.00000000000E+00 -0.00000000000E+00 -0.88759378922E+03  0.88759378922E+03  0.00000000000E+00 0. -1.
        -24    2    1    2    0    0 -0.13542051166E+02 -0.47781537151E+02 -0.20757421150E+03  0.22768179686E+03  0.79281050065E+02 0.  0.
         25    2    1    2    0    0  0.27737790639E+03  0.11876265829E+03 -0.28956016441E+03  0.43650301066E+03  0.12508684001E+03 0.  0.
         24    2    1    2    0    0 -0.26383585523E+03 -0.70981121135E+02 -0.24068271698E+03  0.37318567804E+03  0.81802823813E+02 0.  0.
        -11    1    5    5    0    0 -0.84988470853E+02 -0.55525972576E+02 -0.57342326532E+02  0.11659466635E+03  0.00000000000E+00 0.  1.
         12    1    5    5    0    0 -0.17884738437E+03 -0.15455148558E+02 -0.18334039045E+03  0.25659101170E+03  0.00000000000E+00 0. -1.
         11    1    3    3    0    0 -0.39831980856E+02 -0.50943708843E+02 -0.16847761539E+03  0.18046205988E+03  0.00000000000E+00 0. -1.
        -12    1    3    3    0    0  0.26289929689E+02  0.31621716919E+01 -0.39096596111E+02  0.47219736979E+02  0.00000000000E+00 0.  1.
          5    1    4    4  501    0  0.28489369494E+03  0.12738373095E+03 -0.26640647739E+03  0.41034243739E+03  0.41800000000E+01 0.  1.
         -5    1    4    4    0  501 -0.75157885431E+01 -0.86210726630E+01 -0.23153687024E+02  0.26160573275E+02  0.41800000000E+01 0.  1.
</event>
<event>
11    1  0.1002087E-008  0.1556149E+03  0.7561462E-02  0.1091276E+00
         22   -1    0    0    0    0  0.00000000000E+00  0.00000000000E+00  0.30604285590E+04  0.30604285590E+04  0.00000000000E+00 0.  1.
         22   -1    0    0    0    0 -0.00000000000E+00 -0.00000000000E+00 -0.15864966731E+04  0.15864966731E+04  0.00000000000E+00 0. -1.
         24    2    1    2    0    0 -0.94956532002E+00  0.88019459018E+00 -0.14015632990E+04  0.14038826529E+04  0.80654482830E+02 0.  0.
         25    2    1    2    0    0 -0.86180810386E+02  0.30393134770E+02 -0.14967008220E+03  0.21540601621E+03  0.12509094129E+03 0.  0.
        -24    2    1    2    0    0  0.87130375706E+02 -0.31273329360E+02  0.30251652671E+04  0.30276365630E+04  0.79928349016E+02 0.  0.
        -11    1    3    3    0    0  0.91431725171E+00  0.28922426628E+02 -0.20959659476E+03  0.21158467637E+03  0.00000000000E+00 0.  1.
         12    1    3    3    0    0 -0.18638825717E+01 -0.28042232038E+02 -0.11919667043E+04  0.11922979766E+04  0.00000000000E+00 0. -1.
         11    1    5    5    0    0  0.11019284534E+02  0.13709556493E+02  0.13779381433E+03  0.13891188516E+03  0.00000000000E+00 0. -1.
        -12    1    5    5    0    0  0.76111091172E+02 -0.44982885853E+02  0.28873714528E+04  0.28887246779E+04  0.00000000000E+00 0.  1.
          5    1    4    4  501    0 -0.75277783884E+02  0.67497077341E+02 -0.14414317862E+03  0.17611737148E+03  0.41800000000E+01 0. -1.
         -5    1    4    4    0  501 -0.10903026502E+02 -0.37103942571E+02 -0.55269035873E+01  0.39288644727E+02  0.41800000000E+01 0. -1.
</event>
<event>
11    1  0.1002087E-008  0.2554277E+03  0.7561462E-02  0.1021047E+00
         22   -1    0    0    0    0  0.00000000000E+00  0.00000000000E+00  0.69420047381E+03  0.69420047381E+03  0.00000000000E+00 0. -1.
         22   -1    0    0    0    0 -0.00000000000E+00 -0.00000000000E+00 -0.33944476246E+03  0.33944476246E+03  0.00000000000E+00 0.  1.
         24    2    1    2    0    0 -0.27265355956E+02 -0.87156469122E+02 -0.18046341446E+03  0.21789354801E+03  0.81061116207E+02 0.  0.
         25    2    1    2    0    0 -0.12400758389E+03  0.23837111068E+03  0.81677951369E+02  0.30742325361E+03  0.12505639470E+03 0.  0.
        -24    2    1    2    0    0  0.15127293984E+03 -0.15121464156E+03  0.45354117445E+03  0.50832843465E+03  0.83359644926E+02 0.  0.
        -11    1    3    3    0    0 -0.70602253678E+01 -0.65986120140E+02 -0.17624652606E+03  0.18832645269E+03  0.00000000000E+00 0.  1.
         12    1    3    3    0    0 -0.20205130588E+02 -0.21170348982E+02 -0.42168884005E+01  0.29567095324E+02  0.00000000000E+00 0. -1.
         11    1    5    5    0    0  0.12171803780E+03 -0.14727492488E+03  0.33075454452E+03  0.38197349770E+03  0.00000000000E+00 0. -1.
        -12    1    5    5    0    0  0.29554902042E+02 -0.39397166775E+01  0.12278662992E+03  0.12635493695E+03  0.00000000000E+00 0.  1.
          5    1    4    4  501    0 -0.52576601225E+02  0.21149547658E+03  0.44676775158E+02  0.22250420727E+03  0.41800000000E+01 0.  1.
         -5    1    4    4    0  501 -0.71430982660E+02  0.26875634096E+02  0.37001176212E+02  0.84919046349E+02  0.41800000000E+01 0.  1.
</event>
<event>
11    1  0.1002087E-008  0.1497725E+03  0.7561462E-02  0.1097112E+00
         22   -1    0    0    0    0  0.00000000000E+00  0.00000000000E+00  0.91622758003E+03  0.91622758003E+03  0.00000000000E+00 0.  1.
         22   -1    0    0    0    0 -0.00000000000E+00 -0.00000000000E+00 -0.19432833822E+03  0.19432833822E+03  0.00000000000E+00 0. -1.
        -24    2    1    2    0    0 -0.18557826906E+01  0.81542997776E+02 -0.12056293308E+03  0.16628667546E+03  0.80393614098E+02 0.  0.
         25    2    1    2    0    0  0.41899073725E+01 -0.86438292639E+02  0.69806220974E+02  0.16736164947E+03  0.12509148440E+03 0.  0.
         24    2    1    2    0    0 -0.23341246819E+01  0.48952948627E+01  0.77265595390E+03  0.77690759332E+03  0.80986254394E+02 0.  0.
        -11    1    5    5    0    0 -0.12202053299E+02 -0.18418547161E+02  0.69242159232E+03  0.69277398514E+03  0.00000000000E+00 0.  1.
         12    1    5    5    0    0  0.98679286173E+01  0.23313842024E+02  0.80234361586E+02  0.84133608173E+02  0.00000000000E+00 0. -1.
         11    1    3    3    0    0 -0.15443637061E+02  0.40697867935E+02 -0.11490081211E+03  0.12286992717E+03  0.00000000000E+00 0. -1.
        -12    1    3    3    0    0  0.13587854370E+02  0.40845129841E+02 -0.56621209690E+01  0.43416748289E+02  0.00000000000E+00 0.  1.
          5    1    4    4  501    0  0.38239677963E+02 -0.37807753470E+02  0.89652587480E+02  0.10462675583E+03  0.41800000000E+01 0.  1.
         -5    1    4    4    0  501 -0.34049770591E+02 -0.48630539169E+02 -0.19846366506E+02  0.62734893645E+02  0.41800000000E+01 0.  1.
</event>
<event>
11    1  0.1002087E-008  0.2058879E+04  0.7561462E-02  0.8043267E-01
         22   -1    0    0    0    0  0.00000000000E+00  0.00000000000E+00  0.19154299278E+04  0.19154299278E+04  0.00000000000E+00 0.  1.
         22   -1    0    0    0    0 -0.00000000000E+00 -0.00000000000E+00 -0.55326786190E+03  0.55326786190E+03  0.00000000000E+00 0.  1.
        -24    2    1    2    0    0  0.55223405468E+03 -0.15683734143E+03  0.30064020923E+03  0.65334767721E+03  0.83176012732E+02 0.  0.
         25    2    1    2    0    0 -0.87664520544E+03  0.42559296464E+03  0.48123085254E+03  0.10940148073E+04  0.12509627269E+03 0.  0.
         24    2    1    2    0    0  0.32441115077E+03 -0.26875562321E+03  0.58029100411E+03  0.72133530514E+03  0.78197143471E+02 0.  0.
        -13    1    5    5    0    0  0.13629910208E+03 -0.15984102879E+03  0.26010235745E+03  0.33433491601E+03  0.00000000000E+00 0.  1.
         14    1    5    5    0    0  0.18811204869E+03 -0.10891459441E+03  0.32018864666E+03  0.38700038913E+03  0.00000000000E+00 0. -1.
         11    1    3    3    0    0  0.13589302646E+03 -0.74946624445E+02  0.93353983882E+02  0.18110460365E+03  0.00000000000E+00 0. -1.
        -12    1    3    3    0    0  0.41634102821E+03 -0.81890716986E+02  0.20728622535E+03  0.47224307355E+03  0.00000000000E+00 0.  1.
          5    1    4    4  501    0 -0.10197829527E+03  0.21655549864E+02  0.20583596807E+02  0.10634703758E+03  0.41800000000E+01 0. -1.
         -5    1    4    4    0  501 -0.77466691018E+03  0.40393741477E+03  0.46064725573E+03  0.98766776974E+03  0.41800000000E+01 0. -1.
</event>
<event>
11    1  0.1002087E-008  0.1331393E+03  0.7561462E-02  0.1115471E+00
         22   -1    0    0    0    0  0.00000000000E+00  0.00000000000E+00  0.39444456529E+03  0.39444456529E+03  0.00000000000E+00 0. -1.
         22   -1    0    0    0    0 -0.00000000000E+00 -0.00000000000E+00 -0.79961842124E+03  0.79961842124E+03  0.00000000000E+00 0.  1.
         24    2    1    2    0    0 -0.89964600829E+01 -0.40158675662E+02 -0.36638259063E+03  0.37727026041E+03  0.80018692482E+02 0.  0.
         25    2    1    2    0    0 -0.25070895558E+02  0.70079554368E+02 -0.40984984052E+03  0.43492981747E+03  0.12508941043E+03 0.  0.
        -24    2    1    2    0    0  0.34067355641E+02 -0.29920878707E+02  0.37105857521E+03  0.38186290866E+03  0.77967756607E+02 0.  0.
        -11    1    3    3    0    0 -0.14993160143E+02 -0.34370120943E+02 -0.36700186825E+03  0.36891255246E+03  0.00000000000E+00 0.  1.
         12    1    3    3    0    0  0.59967000597E+01 -0.57885547183E+01  0.61927762075E+00  0.83577079456E+01  0.00000000000E+00 0. -1.
         11    1    5    5    0    0  0.21008586987E+02  0.11843112121E+02  0.27784227922E+03  0.27888698814E+03  0.00000000000E+00 0. -1.
        -12    1    5    5    0    0  0.13058768654E+02 -0.41763990828E+02  0.93216295984E+02  0.10297592051E+03  0.00000000000E+00 0.  1.
          5    1    4    4  501    0  0.24386466555E+02 -0.26538984908E+02 -0.85688802996E+02  0.93054074762E+02  0.41800000000E+01 0. -1.
         -5    1    4    4    0  501 -0.49457362114E+02  0.96618539277E+02 -0.32416103753E+03  0.34187574271E+03  0.41800000000E+01 0. -1.
</event>
<event>
11    1  0.1002087E-008  0.2034976E+03  0.7561462E-02  0.1052078E+00
         22   -1    0    0    0    0  0.00000000000E+00  0.00000000000E+00  0.86524390839E+03  0.86524390839E+03  0.00000000000E+00 0. -1.
         22   -1    0    0    0    0 -0.00000000000E+00 -0.00000000000E+00 -0.70966984173E+03  0.70966984173E+03  0.00000000000E+00 0. -1.
        -24    2    1    2    0    0  0.90176698816E+01 -0.42824951683E+02 -0.64153675986E+03  0.64788020877E+03  0.79145788262E+02 0.  0.
         25    2    1    2    0    0  0.10628224184E+03  0.14816935050E+03  0.17897338485E+03  0.28447989572E+03  0.12508903720E+03 0.  0.
         24    2    1    2    0    0 -0.11529991172E+03 -0.10534439882E+03  0.61813744167E+03  0.64255364563E+03  0.79936091448E+02 0.  0.
        -13    1    5    5    0    0  0.25476872127E+01  0.33576733352E+01  0.26908297031E+00  0.42233974481E+01  0.00000000000E+00 0.  1.
         14    1    5    5    0    0 -0.11784759894E+03 -0.10870207215E+03  0.61786835870E+03  0.63833024819E+03  0.00000000000E+00 0. -1.
         13    1    3    3    0    0  0.36002703904E+02  0.41413019841E+00 -0.18213407951E+03  0.18565879756E+03  0.00000000000E+00 0. -1.
        -14    1    3    3    0    0 -0.26985034023E+02 -0.43239081881E+02 -0.45940268036E+03  0.46222141121E+03  0.00000000000E+00 0.  1.
          5    1    4    4  501    0  0.53228725707E+02  0.66853728940E+02  0.16558089718E+03  0.18637924838E+03  0.41800000000E+01 0. -1.
         -5    1    4    4    0  501  0.53053516135E+02  0.81315621559E+02  0.13392487666E+02  0.98100647346E+02  0.41800000000E+01 0. -1.
</event>
<event>
11    1  0.1002087E-008  0.1419967E+03  0.7561462E-02  0.1105349E+00
         22   -1    0    0    0    0  0.00000000000E+00  0.00000000000E+00  0.24483427270E+03  0.24483427270E+03  0.00000000000E+00 0. -1.
         22   -1    0    0    0    0 -0.00000000000E+00 -0.00000000000E+00 -0.98494958339E+03  0.98494958339E+03  0.00000000000E+00 0.  1.
         24    2    1    2    0    0  0.49678608414E+01 -0.63927485806E+02 -0.81245509835E+03  0.82010579809E+03  0.91535950009E+02 0.  0.
         25    2    1    2    0    0 -0.53630889105E+02  0.98060286700E+02 -0.11178238301E+03  0.20158550375E+03  0.12509725047E+03 0.  0.
        -24    2    1    2    0    0  0.48663028264E+02 -0.34132800894E+02  0.18412217067E+03  0.20809255425E+03  0.76605476226E+02 0.  0.
        -11    1    3    3    0    0 -0.34089999806E+01 -0.11075133452E+02 -0.62642559364E+03  0.62653276389E+03  0.00000000000E+00 0.  1.
         12    1    3    3    0    0  0.83768608219E+01 -0.52852352353E+02 -0.18602950471E+03  0.19357303420E+03  0.00000000000E+00 0. -1.
         13    1    5    5    0    0  0.58411409211E+02  0.28923173216E+00  0.13696375643E+03  0.14889945250E+03  0.00000000000E+00 0. -1.
        -14    1    5    5    0    0 -0.97483809476E+01 -0.34422032626E+02  0.47158414243E+02  0.59193101753E+02  0.00000000000E+00 0.  1.
          5    1    4    4  501    0 -0.18173541759E+02  0.88489879644E+02 -0.13157506753E+03  0.15965652889E+03  0.41800000000E+01 0.  1.
         -5    1    4    4    0  501 -0.35457347346E+02  0.95704070552E+01  0.19792684527E+02  0.41928974860E+02  0.41800000000E+01 0.  1.
</event>
<event>
11    1  0.1002087E-008  0.1573486E+03  0.7561462E-02  0.1089598E+00
         22   -1    0    0    0    0  0.00000000000E+00  0.00000000000E+00  0.90137928379E+03  0.90137928379E+03  0.00000000000E+00 0. -1.
         22   -1    0    0    0    0 -0.00000000000E+00 -0.00000000000E+00 -0.36365238055E+03  0.36365238055E+03  0.00000000000E+00 0. -1.
         24    2    1    2    0    0  0.67805197087E+02 -0.63334014081E+02 -0.25101678054E+03  0.27931998527E+03  0.80009299226E+02 0.  0.
         25    2    1    2    0    0 -0.10343059237E+03  0.48212318740E+02 -0.21385064931E+02  0.17066552315E+03  0.12508830750E+03 0.  0.
        -24    2    1    2    0    0  0.35625395278E+02  0.15121695340E+02  0.81012874872E+03  0.81504615592E+03  0.80584194035E+02 0.  0.
        -11    1    3    3    0    0 -0.14953290640E+02  0.35287584738E+01 -0.43219032555E+02  0.45868701881E+02  0.00000000000E+00 0.  1.
         12    1    3    3    0    0  0.82758487727E+02 -0.66862772554E+02 -0.20779774799E+03  0.23345128338E+03  0.00000000000E+00 0. -1.
         11    1    5    5    0    0 -0.89661911072E+01  0.25415898031E+02  0.56746939035E+03  0.56810902953E+03  0.00000000000E+00 0. -1.
        -12    1    5    5    0    0  0.44591586385E+02 -0.10294202691E+02  0.24265935837E+03  0.24693712639E+03  0.00000000000E+00 0.  1.
          5    1    4    4  501    0 -0.81290835247E+01 -0.33658843022E+02  0.17577570600E+02  0.39056921291E+02  0.41800000000E+01 0. -1.
         -5    1    4    4    0  501 -0.95301508841E+02  0.81871161762E+02 -0.38962635531E+02  0.13160860186E+03  0.41800000000E+01 0. -1.
</event>
<event>
11    1  0.1002087E-008  0.1782472E+03  0.7561462E-02  0.1071070E+00
         22   -1    0    0    0    0  0.00000000000E+00  0.00000000000E+00  0.53658638643E+03  0.53658638643E+03  0.00000000000E+00 0. -1.
         22   -1    0    0    0    0 -0.00000000000E+00 -0.00000000000E+00 -0.30101963030E+03  0.30101963030E+03  0.00000000000E+00 0.  1.
         24    2    1    2    0    0  0.25001650234E+02 -0.10899815445E+02 -0.21606928009E+03  0.23140640899E+03  0.78224700885E+02 0.  0.
         25    2    1    2    0    0  0.55824760308E+02  0.11080218548E+03  0.71638231035E+02  0.19020500146E+03  0.12510946513E+03 0.  0.
        -24    2    1    2    0    0 -0.80826410542E+02 -0.99902370033E+02  0.37999780519E+03  0.41599460627E+03  0.11018070758E+03 0.  0.
        -11    1    3    3    0    0 -0.58930653640E+01  0.73917537262E+00 -0.18793919023E+03  0.18803301259E+03  0.00000000000E+00 0.  1.
         12    1    3    3    0    0  0.30894715598E+02 -0.11638990818E+02 -0.28130089863E+02  0.43373396395E+02  0.00000000000E+00 0. -1.
         13    1    5    5    0    0 -0.97429000386E+02 -0.83153706077E+02  0.36775390501E+03  0.38942250012E+03  0.00000000000E+00 0. -1.
        -14    1    5    5    0    0  0.16602589843E+02 -0.16748663956E+02  0.12243900176E+02  0.26572106152E+02  0.00000000000E+00 0.  1.
          5    1    4    4  501    0  0.58160879435E+02  0.11068233204E+02  0.68043238499E+02  0.90291463541E+02  0.41800000000E+01 0. -1.
         -5    1    4    4    0  501 -0.23361191269E+01  0.99733952275E+02  0.35949925355E+01  0.99913537923E+02  0.41800000000E+01 0. -1.
</event>
<event>
11    1  0.1002087E-008  0.3349775E+03  0.7561462E-02  0.9863863E-01
         22   -1    0    0    0    0  0.00000000000E+00  0.00000000000E+00  0.26018719072E+03  0.26018719072E+03  0.00000000000E+00 0. -1.
         22   -1    0    0    0    0 -0.00000000000E+00 -0.00000000000E+00 -0.64791604935E+03  0.64791604935E+03  0.00000000000E+00 0.  1.
        -24    2    1    2    0    0  0.55635134232E+02 -0.59941181077E+02 -0.17845188198E+03  0.21183052738E+03  0.79617113733E+02 0.  0.
         25    2    1    2    0    0  0.10428304974E+03 -0.24629812094E+03 -0.16627618759E+03  0.33886956023E+03  0.12508832659E+03 0.  0.
         24    2    1    2    0    0 -0.15991818398E+03  0.30623930202E+03 -0.43000789062E+02  0.35740315246E+03  0.80818375779E+02 0.  0.
        -11    1    5    5    0    0 -0.94801655049E+01  0.94301711549E+02 -0.15741156514E+02  0.96075336833E+02  0.00000000000E+00 0.  1.
         12    1    5    5    0    0 -0.15043801847E+03  0.21193759047E+03 -0.27259632548E+02  0.26132781563E+03  0.00000000000E+00 0. -1.
         13    1    3    3    0    0 -0.12270611636E+02  0.79501758869E+01 -0.45761804704E+02  0.48040774102E+02  0.00000000000E+00 0. -1.
        -14    1    3    3    0    0  0.67905745868E+02 -0.67891356964E+02 -0.13269007727E+03  0.16378975328E+03  0.00000000000E+00 0.  1.
          5    1    4    4  501    0  0.10064708766E+03 -0.15186717533E+03 -0.16255521713E+03  0.24420308396E+03  0.41800000000E+01 0.  1.
         -5    1    4    4    0  501  0.36359620823E+01 -0.94430945605E+02 -0.37209704542E+01  0.94666476269E+02  0.41800000000E+01 0.  1.
</event>
<event>
11    1  0.1002087E-008  0.1302061E+03  0.7561462E-02  0.1119016E+00
         22   -1    0    0    0    0  0.00000000000E+00  0.00000000000E+00  0.15112892669E+04  0.15112892669E+04  0.00000000000E+00 0. -1.
         22   -1    0    0    0    0 -0.00000000000E+00 -0.00000000000E+00 -0.19095424695E+03  0.19095424695E+03  0.00000000000E+00 0. -1.
         24    2    1    2    0    0  0.54521527767E+01 -0.37006398191E+02 -0.15152106112E+03  0.17998555978E+03  0.89649151079E+02 0.  0.
         25    2    1    2    0    0  0.12753168918E+02  0.23044064734E+02  0.14383560885E+03  0.19243106200E+03  0.12508940409E+03 0.  0.
        -24    2    1    2    0    0 -0.18205321694E+02  0.13962333457E+02  0.13280204722E+04  0.13298268921E+04  0.65382013801E+02 0.  0.
        -13    1    3    3    0    0  0.39509552090E+02 -0.10955236899E+02 -0.29113918610E+02  0.50285606079E+02  0.00000000000E+00 0.  1.
         14    1    3    3    0    0 -0.34057399313E+02 -0.26051161292E+02 -0.12240714251E+03  0.12969995370E+03  0.00000000000E+00 0. -1.
         13    1    5    5    0    0 -0.14151990085E+02  0.40233781179E+02  0.84435222170E+03  0.84542871389E+03  0.00000000000E+00 0. -1.
        -14    1    5    5    0    0 -0.40533316092E+01 -0.26271447722E+02  0.48366825052E+03  0.48439817818E+03  0.00000000000E+00 0.  1.
          5    1    4    4  501    0 -0.29150805040E+01 -0.42635812858E+02  0.12543386808E+02  0.44733870669E+02  0.41800000000E+01 0. -1.
         -5    1    4    4    0  501  0.15668249422E+02  0.65679877592E+02  0.13129222204E+03  0.14769719134E+03  0.41800000000E+01 0. -1.
</event>
<event>
11    1  0.1002087E-008  0.1885696E+03  0.7561462E-02  0.1062914E+00
         22   -1    0    0    0    0  0.00000000000E+00  0.00000000000E+00  0.75915071653E+03  0.75915071653E+03  0.00000000000E+00 0. -1.
         22   -1    0    0    0    0 -0.00000000000E+00 -0.00000000000E+00 -0.44095193276E+03  0.44095193276E+03  0.00000000000E+00 0.  1.
         24    2    1    2    0    0  0.67169751912E+01 -0.44576034921E+02 -0.38735526012E+03  0.39860076664E+03  0.82500502906E+02 0.  0.
         25    2    1    2    0    0 -0.12277597663E+03  0.10950045003E+03  0.27494074308E+03  0.34395949788E+03  0.12510569524E+03 0.  0.
        -24    2    1    2    0    0  0.11605900144E+03 -0.64924415113E+02  0.43061330081E+03  0.45754238476E+03  0.78945218518E+02 0.  0.
        -13    1    3    3    0    0 -0.33460629383E+02 -0.30740498218E+02 -0.26983855460E+03  0.27363741977E+03  0.00000000000E+00 0.  1.
         14    1    3    3    0    0  0.40177604574E+02 -0.13835536702E+02 -0.11751670551E+03  0.12496334687E+03  0.00000000000E+00 0. -1.
         13    1    5    5    0    0  0.93836778899E+02 -0.18058362744E+02  0.33958661953E+03  0.35277544941E+03  0.00000000000E+00 0. -1.
        -14    1    5    5    0    0  0.22222222544E+02 -0.46866052369E+02  0.91026681276E+02  0.10476693535E+03  0.00000000000E+00 0.  1.
          5    1    4    4  501    0 -0.12748099756E+03  0.58778851163E+02  0.13430234055E+03  0.19432176708E+03  0.41800000000E+01 0.  1.
         -5    1    4    4    0  501  0.47050209254E+01  0.50721598870E+02  0.14063840253E+03  0.14963773081E+03  0.41800000000E+01 0.  1.
</event>
<event>
11    1  0.1002087E-008  0.1391373E+03  0.7561462E-02  0.1108526E+00
         22   -1    0    0    0    0  0.00000000000E+00  0.00000000000E+00  0.26972225482E+03  0.26972225482E+03  0.00000000000E+00 0. -1.
         22   -1    0    0    0    0 -0.00000000000E+00 -0.00000000000E+00 -0.29280020375E+04  0.29280020375E+04  0.00000000000E+00 0.  1.
        -24    2    1    2    0    0  0.94912701513E+01  0.85342233961E+02 -0.28645593303E+04  0.28669097319E+04  0.78088877067E+02 0.  0.
         25    2    1    2    0    0 -0.11098351113E+02  0.76241690507E+01  0.63409174791E+02  0.14088239066E+03  0.12508326507E+03 0.  0.
         24    2    1    2    0    0  0.16070809614E+01 -0.92966403012E+02  0.14287037283E+03  0.18993216980E+03  0.83767242364E+02 0.  0.
        -11    1    5    5    0    0 -0.18325232912E+02 -0.53293518738E+01 -0.22691431211E+01  0.19218875180E+02  0.00000000000E+00 0.  1.
         12    1    5    5    0    0  0.19932313874E+02 -0.87637051138E+02  0.14513951596E+03  0.17071329462E+03  0.00000000000E+00 0. -1.
         13    1    3    3    0    0 -0.13848396752E+02 -0.36113179186E+01 -0.98309445495E+03  0.98319862036E+03  0.00000000000E+00 0. -1.
        -14    1    3    3    0    0  0.23339666903E+02  0.88953551880E+02 -0.18814648754E+04  0.18837111116E+04  0.00000000000E+00 0.  1.
          5    1    4    4  501    0  0.32780374819E+02 -0.44752773317E+02  0.40061715121E+02  0.68554920401E+02  0.41800000000E+01 0. -1.
         -5    1    4    4    0  501 -0.43878725931E+02  0.52376942367E+02  0.23347459670E+02  0.72327470260E+02  0.41800000000E+01 0. -1.
</event>
<event>
11    1  0.1002087E-008  0.5571576E+03  0.7561462E-02  0.9274153E-01
         22   -1    0    0    0    0  0.00000000000E+00  0.00000000000E+00  0.69368843826E+03  0.69368843826E+03  0.00000000000E+00 0.  1.
         22   -1    0    0    0    0 -0.00000000000E+00 -0.00000000000E+00 -0.96697904095E+03  0.96697904095E+03  0.00000000000E+00 0.  1.
         24    2    1    2    0    0 -0.18151408305E+03 -0.38801092219E+01 -0.45268570308E+03  0.49419072308E+03  0.79609719342E+02 0.  0.
         25    2    1    2    0    0 -0.40822033494E+03 -0.15008927231E+03 -0.13999222411E+03  0.47372511334E+03  0.12508808367E+03 0.  0.
        -24    2    1    2    0    0  0.58973441799E+03  0.15396938153E+03  0.31938732450E+03  0.69275164278E+03  0.80020755463E+02 0.  0.
        -11    1    3    3    0    0 -0.12653399265E+03 -0.37457878674E+02 -0.33446489876E+03  0.35955627163E+03  0.00000000000E+00 0.  1.
         12    1    3    3    0    0 -0.54980090405E+02  0.33577769452E+02 -0.11822080433E+03  0.13463445145E+03  0.00000000000E+00 0. -1.
         13    1    5    5    0    0  0.33514608879E+01  0.83595314882E+01 -0.65612167824E+00  0.90302022371E+01  0.00000000000E+00 0. -1.
        -14    1    5    5    0    0  0.58638295711E+03  0.14560985005E+03  0.32004344618E+03  0.68372144054E+03  0.00000000000E+00 0.  1.
          5    1    4    4  501    0 -0.17007747901E+03 -0.10869921468E+03 -0.11059034279E+03  0.23019462300E+03  0.41800000000E+01 0. -1.
         -5    1    4    4    0  501 -0.23814285593E+03 -0.41390057632E+02 -0.29401881317E+02  0.24353049034E+03  0.41800000000E+01 0. -1.
</event>
<event>
11    1  0.1002087E-008  0.1816923E+03  0.7561462E-02  0.1068282E+00
         22   -1    0    0    0    0  0.00000000000E+00  0.00000000000E+00  0.14460192874E+04  0.14460192874E+04  0.00000000000E+00 0.  1.
         22   -1    0    0    0    0 -0.00000000000E+00 -0.00000000000E+00 -0.15989371037E+04  0.15989371037E+04  0.00000000000E+00 0. -1.
         24    2    1    2    0    0  0.11184516450E+03 -0.69593955592E+02 -0.15533482175E+04  0.15608558809E+04  0.77638499437E+02 0.  0.
         25    2    1    2    0    0 -0.12009215002E+03  0.61068734890E+02  0.16814254141E+03  0.24914091327E+03  0.12509102908E+03 0.  0.
        -24    2    1    2    0    0  0.82469855248E+01  0.85252207021E+01  0.12322878598E+04  0.12349595969E+04  0.80319016274E+02 0.  0.
        -11    1    3    3    0    0  0.25997892989E+01 -0.27374266479E+02 -0.14075844695E+03  0.14341914013E+03  0.00000000000E+00 0.  1.
         12    1    3    3    0    0  0.10924537520E+03 -0.42219689113E+02 -0.14125897706E+04  0.14174367408E+04  0.00000000000E+00 0. -1.
         13    1    5    5    0    0 -0.26933364506E+02 -0.10693753151E+02  0.22287569881E+03  0.22475172881E+03  0.00000000000E+00 0. -1.
        -14    1    5    5    0    0  0.35180350031E+02  0.19218973853E+02  0.10094121610E+04  0.10102078681E+04  0.00000000000E+00 0.  1.
          5    1    4    4  501    0  0.54812238437E+01  0.45605590124E+02  0.11120653478E+02  0.47445284267E+02  0.41800000000E+01 0.  1.
         -5    1    4    4    0  501 -0.12557337386E+03  0.15463144766E+02  0.15702188793E+03  0.20169562900E+03  0.41800000000E+01 0.  1.
</event>
<event>
11    1  0.1002087E-008  0.1444391E+03  0.7561462E-02  0.1102700E+00
         22   -1    0    0    0    0  0.00000000000E+00  0.00000000000E+00  0.14609022713E+04  0.14609022713E+04  0.00000000000E+00 0. -1.
         22   -1    0    0    0    0 -0.00000000000E+00 -0.00000000000E+00 -0.33109008110E+02  0.33109008110E+02  0.00000000000E+00 0. -1.
         24    2    1    2    0    0  0.81682595118E+02  0.13496163966E+02  0.19491050593E+03  0.23568959912E+03  0.10346636664E+03 0.  0.
         25    2    1    2    0    0 -0.39999358508E+02 -0.40674125162E+02  0.47258004449E+03  0.49217265235E+03  0.12509071962E+03 0.  0.
        -24    2    1    2    0    0 -0.41683236610E+02  0.27177961196E+02  0.76030271282E+03  0.76614902798E+03  0.80299341040E+02 0.  0.
        -11    1    3    3    0    0  0.55654049716E+02 -0.36982449059E+02  0.14666498722E+03  0.16116976536E+03  0.00000000000E+00 0.  1.
         12    1    3    3    0    0  0.26028545402E+02  0.50478613025E+02  0.48245518701E+02  0.74519833758E+02  0.00000000000E+00 0. -1.
         13    1    5    5    0    0 -0.15046305261E+02  0.53132663359E+02  0.52912959124E+03  0.53200337925E+03  0.00000000000E+00 0. -1.
        -14    1    5    5    0    0 -0.26636931349E+02 -0.25954702162E+02  0.23117312158E+03  0.23414564873E+03  0.00000000000E+00 0.  1.
          5    1    4    4  501    0 -0.49712332577E+02 -0.56834070588E+02  0.46550135809E+03  0.47160408647E+03  0.41800000000E+01 0. -1.
         -5    1    4    4    0  501  0.97129740694E+01  0.16159945426E+02  0.70786864018E+01  0.20568565886E+02  0.41800000000E+01 0. -1.
</event>
<event>
11    1  0.1002087E-008  0.2940164E+03  0.7561462E-02  0.1002756E+00
         22   -1    0    0    0    0  0.00000000000E+00  0.00000000000E+00  0.12725378754E+03  0.12725378754E+03  0.00000000000E+00 0.  1.
         22   -1    0    0    0    0 -0.00000000000E+00 -0.00000000000E+00 -0.97483849373E+03  0.97483849373E+03  0.00000000000E+00 0. -1.
         24    2    1    2    0    0 -0.33509609236E+02 -0.35096376308E+02 -0.28331761136E+03  0.29749777975E+03  0.76690354743E+02 0.  0.
         25    2    1    2    0    0 -0.44847162307E-01 -0.24709614510E+03 -0.30529042528E+03  0.41219940689E+03  0.12509836266E+03 0.  0.
        -24    2    1    2    0    0  0.33554456398E+02  0.28219252140E+03 -0.25897666955E+03  0.39239509463E+03  0.78399453038E+02 0.  0.
        -11    1    3    3    0    0  0.21513321246E+02 -0.26770393104E+02 -0.90007909864E+02  0.96337431853E+02  0.00000000000E+00 0.  1.
         12    1    3    3    0    0 -0.55022930481E+02 -0.83259832042E+01 -0.19330970149E+03  0.20116034790E+03  0.00000000000E+00 0. -1.
         13    1    5    5    0    0  0.27120963525E+02  0.52184200713E+02 -0.87506401224E+02  0.10543295368E+03  0.00000000000E+00 0. -1.
        -14    1    5    5    0    0  0.64334928737E+01  0.23000832069E+03 -0.17147026832E+03  0.28696214095E+03  0.00000000000E+00 0.  1.
          5    1    4    4  501    0 -0.27295027211E+02 -0.22931432839E+02 -0.46778176410E+01  0.36197009550E+02  0.41800000000E+01 0. -1.
         -5    1    4    4    0  501  0.27250180049E+02 -0.22416471226E+03 -0.30061260764E+03  0.37600239734E+03  0.41800000000E+01 0. -1.
</event>
<event>
11    1  0.1002087E-008  0.1962545E+03  0.7561462E-02  0.1057204E+00
         22   -1    0    0    0    0  0.00000000000E+00  0.00000000000E+00  0.97376751262E+03  0.97376751262E+03  0.00000000000E+00 0.  1.
         22   -1    0    0    0    0 -0.00000000000E+00 -0.00000000000E+00 -0.59459119819E+02  0.59459119819E+02  0.00000000000E+00 0. -1.
        -24    2    1    2    0    0 -0.13012323468E+03  0.85323871015E+02  0.22212349535E+03  0.28238500336E+03  0.78677975108E+02 0.  0.
         25    2    1    2    0    0  0.13808231805E+03 -0.49271955006E+02  0.39140464768E+03  0.43628613647E+03  0.12511411809E+03 0.  0.
         24    2    1    2    0    0 -0.79590833652E+01 -0.36051916008E+02  0.30078024978E+03  0.31455549261E+03  0.84340450679E+02 0.  0.
        -11    1    5    5    0    0  0.12686798675E+02 -0.25153936116E+02  0.28497204097E+03  0.28636120460E+03  0.00000000000E+00 0.  1.
         12    1    5    5    0    0 -0.20645882040E+02 -0.10897979892E+02  0.15808208802E+02  0.28194288011E+02  0.00000000000E+00 0. -1.
         11    1    3    3    0    0 -0.10950453784E+03  0.86429602299E+02  0.22144746018E+03  0.26172561507E+03  0.00000000000E+00 0. -1.
        -12    1    3    3    0    0 -0.20618696839E+02 -0.11057312841E+01  0.67603516702E+00  0.20659388291E+02  0.00000000000E+00 0.  1.
          5    1    4    4  501    0 -0.77471524578E+01 -0.13431848589E+02  0.15735270852E+03  0.15817009896E+03  0.41800000000E+01 0.  1.
         -5    1    4    4    0  501  0.14582947051E+03 -0.35840106417E+02  0.23405193916E+03  0.27811603751E+03  0.41800000000E+01 0.  1.
</event>
<event>
11    1  0.1002087E-008  0.2012098E+03  0.7561462E-02  0.1053671E+00
         22   -1    0    0    0    0  0.00000000000E+00  0.00000000000E+00  0.71694376032E+03  0.71694376032E+03  0.00000000000E+00 0. -1.
         22   -1    0    0    0    0 -0.00000000000E+00 -0.00000000000E+00 -0.34095569083E+03  0.34095569083E+03  0.00000000000E+00 0.  1.
         24    2    1    2    0    0  0.34885092920E+02 -0.15022131824E+03 -0.24041209673E+03  0.29642709095E+03  0.79294576316E+02 0.  0.
         25    2    1    2    0    0 -0.14267402596E+02  0.17961198604E+03  0.10404808633E+03  0.24277409493E+03  0.12509689282E+03 0.  0.
        -24    2    1    2    0    0 -0.20617690324E+02 -0.29390667806E+02  0.51235207990E+03  0.51869826526E+03  0.72486799494E+02 0.  0.
        -13    1    3    3    0    0  0.57483234629E+02 -0.13318042055E+03 -0.20376019662E+03  0.25011910045E+03  0.00000000000E+00 0.  1.
         14    1    3    3    0    0 -0.22598141709E+02 -0.17040897685E+02 -0.36651900114E+02  0.46307990504E+02  0.00000000000E+00 0. -1.
         13    1    5    5    0    0 -0.86873608258E+01 -0.87110141659E+01  0.46936677039E+03  0.46952797270E+03  0.00000000000E+00 0. -1.
        -14    1    5    5    0    0 -0.11930329498E+02 -0.20679653640E+02  0.42985309509E+02  0.49170292557E+02  0.00000000000E+00 0.  1.
          5    1    4    4  501    0 -0.58283975461E+02  0.16077781369E+03  0.76656731532E+02  0.18745733931E+03  0.41800000000E+01 0. -1.
         -5    1    4    4    0  501  0.44016572865E+02  0.18834172350E+02  0.27391354796E+02  0.55316755621E+02  0.41800000000E+01 0. -1.
</event>
<event>
11    1  0.1002087E-008  0.1300098E+03  0.7561462E-02  0.1119257E+00
         22   -1    0    0    0    0  0.00000000000E+00  0.00000000000E+00  0.17874528637E+03  0.17874528637E+03  0.00000000000E+00 0.  1.
         22   -1    0    0    0    0 -0.00000000000E+00 -0.00000000000E+00 -0.95618049401E+03  0.95618049401E+03  0.00000000000E+00 0. -1.
        -24    2    1    2    0    0  0.41646953684E+01 -0.31406525629E+02 -0.65856809172E+03  0.66430954977E+03  0.81188250060E+02 0.  0.
         25    2    1    2    0    0  0.45977125534E+01  0.56670723496E+02 -0.26684967208E+03  0.30017046887E+03  0.12514332994E+03 0.  0.
         24    2    1    2    0    0 -0.87624079218E+01 -0.25264197867E+02  0.14798255616E+03  0.17044576175E+03  0.80236284095E+02 0.  0.
        -13    1    5    5    0    0  0.23086638061E+02  0.15524959877E+02  0.81992208031E+02  0.86583713329E+02  0.00000000000E+00 0.  1.
         14    1    5    5    0    0 -0.31849045983E+02 -0.40789157744E+02  0.65990348125E+02  0.83862048420E+02  0.00000000000E+00 0. -1.
         11    1    3    3    0    0  0.29238132347E+02  0.82801438594E+00 -0.48973212548E+03  0.49060483968E+03  0.00000000000E+00 0. -1.
        -12    1    3    3    0    0 -0.25073436979E+02 -0.32234540015E+02 -0.16883596624E+03  0.17370471009E+03  0.00000000000E+00 0.  1.
          5    1    4    4  501    0  0.30428152038E+02  0.38814347930E+02 -0.26373464187E+03  0.26833907610E+03  0.41800000000E+01 0.  1.
         -5    1    4    4    0  501 -0.25830439485E+02  0.17856375566E+02 -0.31150302133E+01  0.31831392768E+02  0.41800000000E+01 0.  1.
</event>
<event>
11    1  0.1002087E-008  0.1325889E+03  0.7561462E-02  0.1116128E+00
         22   -1    0    0    0    0  0.00000000000E+00  0.00000000000E+00  0.14844609611E+04  0.14844609611E+04  0.00000000000E+00 0.  1.
         22   -1    0    0    0    0 -0.00000000000E+00 -0.00000000000E+00 -0.47162180786E+03  0.47162180786E+03  0.00000000000E+00 0. -1.
         24    2    1    2    0    0 -0.16500328391E+02 -0.35550540347E+00 -0.40309702258E+03  0.41116665128E+03  0.79362574922E+02 0.  0.
         25    2    1    2    0    0 -0.22842487602E+02  0.20715230047E+02  0.29181477593E+01  0.12886765040E+03  0.12508979070E+03 0.  0.
        -24    2    1    2    0    0  0.39342815993E+02 -0.20359724644E+02  0.14130180281E+04  0.14160484673E+04  0.81307678111E+02 0.  0.
        -11    1    3    3    0    0  0.52984962311E+01 -0.33378502475E+01  0.11112258425E+01  0.63600416240E+01  0.00000000000E+00 0.  1.
         12    1    3    3    0    0 -0.21798824622E+02  0.29823448441E+01 -0.40420824842E+03  0.40480660966E+03  0.00000000000E+00 0. -1.
         11    1    5    5    0    0  0.18214920226E+02  0.29880978659E+02  0.38519111472E+03  0.38677752140E+03  0.00000000000E+00 0. -1.
        -12    1    5    5    0    0  0.21127895767E+02 -0.50240703303E+02  0.10278269134E+04  0.10292709459E+04  0.00000000000E+00 0.  1.
          5    1    4    4  501    0 -0.56770419659E+02 -0.20232715512E+02  0.31733910454E+02  0.68240433747E+02  0.41800000000E+01 0. -1.
         -5    1    4    4    0  501  0.33927932057E+02  0.40947945559E+02 -0.28815762695E+02  0.60627216651E+02  0.41800000000E+01 0. -1.
</event>
<event>
11    1  0.1002087E-008  0.1373449E+03  0.7561462E-02  0.1110560E+00
         22   -1    0    0    0    0  0.00000000000E+00  0.00000000000E+00  0.13510958214E+03  0.13510958214E+03  0.00000000000E+00 0. -1.
         22   -1    0    0    0    0 -0.00000000000E+00 -0.00000000000E+00 -0.48515428184E+03  0.48515428184E+03  0.00000000000E+00 0. -1.
        -24    2    1    2    0    0  0.19422543883E+02 -0.22687517745E+02 -0.17568975265E+03  0.19569763097E+03  0.80862320698E+02 0.  0.
         25    2    1    2    0    0 -0.55771375875E+02  0.63321732094E+02 -0.25698543916E+03  0.29800880998E+03  0.12509055426E+03 0.  0.
         24    2    1    2    0    0  0.36348831992E+02 -0.40634214349E+02  0.82630492104E+02  0.12655742302E+03  0.78845457281E+02 0.  0.
        -11    1    5    5    0    0  0.92352840880E+01  0.29813640797E+01 -0.14054428784E+02  0.17079401992E+02  0.00000000000E+00 0.  1.
         12    1    5    5    0    0  0.27113547904E+02 -0.43615578428E+02  0.96684920888E+02  0.10947802103E+03  0.00000000000E+00 0. -1.
         13    1    3    3    0    0  0.42653134586E+02 -0.17482989920E+02 -0.16157345676E+03  0.16802061408E+03  0.00000000000E+00 0. -1.
        -14    1    3    3    0    0 -0.23230590703E+02 -0.52045278253E+01 -0.14116295893E+02  0.27677016892E+02  0.00000000000E+00 0.  1.
          5    1    4    4  501    0 -0.32985264840E+02  0.83375312782E+02 -0.86034675828E+02  0.12433385831E+03  0.41800000000E+01 0.  1.
         -5    1    4    4    0  501 -0.22786111035E+02 -0.20053580688E+02 -0.17095076333E+03  0.17367495167E+03  0.41800000000E+01 0.  1.
</event>
<event>
11    1  0.1002087E-008  0.2004676E+03  0.7561462E-02  0.1054193E+00
         22   -1    0    0    0    0  0.00000000000E+00  0.00000000000E+00  0.59868981866E+02  0.59868981866E+02  0.00000000000E+00 0. -1.
         22   -1    0    0    0    0 -0.00000000000E+00 -0.00000000000E+00 -0.12695272092E+04  0.12695272092E+04  0.00000000000E+00 0.  1.
        -24    2    1    2    0    0 -0.97202696773E+01  0.52926016443E+02 -0.53681674558E+03  0.54525225171E+03  0.78943985189E+02 0.  0.
         25    2    1    2    0    0 -0.34489210953E+02 -0.18781496054E+03 -0.47910707695E+03  0.53071098415E+03  0.12508633996E+03 0.  0.
         24    2    1    2    0    0  0.44209480630E+02  0.13488894410E+03 -0.19373440477E+03  0.25343295517E+03  0.80905733764E+02 0.  0.
        -11    1    5    5    0    0  0.58927674057E+02  0.11461904301E+03 -0.18766560782E+03  0.22765846381E+03  0.00000000000E+00 0.  1.
         12    1    5    5    0    0 -0.14718193427E+02  0.20269901095E+02 -0.60687969548E+01  0.25774491356E+02  0.00000000000E+00 0. -1.
         11    1    3    3    0    0 -0.18009373961E+02 -0.61404797018E+01 -0.31444921406E+03  0.31502436614E+03  0.00000000000E+00 0. -1.
        -12    1    3    3    0    0  0.82891042837E+01  0.59066496145E+02 -0.22236753152E+03  0.23022788556E+03  0.00000000000E+00 0.  1.
          5    1    4    4  501    0  0.16103083221E+02  0.89760829836E+01 -0.15260523004E+02  0.24294759050E+02  0.41800000000E+01 0. -1.
         -5    1    4    4    0  501 -0.50592294174E+02 -0.19679104353E+03 -0.46384655394E+03  0.50641622510E+03  0.41800000000E+01 0. -1.
</event>
<event>
11    1  0.1002087E-008  0.1503296E+03  0.7561462E-02  0.1096543E+00
         22   -1    0    0    0    0  0.00000000000E+00  0.00000000000E+00  0.12065174014E+03  0.12065174014E+03  0.00000000000E+00 0. -1.
         22   -1    0    0    0    0 -0.00000000000E+00 -0.00000000000E+00 -0.97183618687E+03  0.97183618687E+03  0.00000000000E+00 0. -1.
         24    2    1    2    0    0  0.34090057283E+01  0.87263679058E+02 -0.64657033470E+03  0.65737348280E+03  0.80374916324E+02 0.  0.
         25    2    1    2    0    0  0.14553413646E+02 -0.70883744613E+02 -0.28447137336E+03  0.31907448363E+03  0.12509299239E+03 0.  0.
        -24    2    1    2    0    0 -0.17962419374E+02 -0.16379934446E+02  0.79857261340E+02  0.11603996058E+03  0.80604835461E+02 0.  0.
        -13    1    3    3    0    0  0.54349751854E+01 -0.14411825244E+02 -0.54579379202E+02  0.56711095001E+02  0.00000000000E+00 0.  1.
         14    1    3    3    0    0 -0.20259694571E+01  0.10167550430E+03 -0.59199095550E+03  0.60066238780E+03  0.00000000000E+00 0. -1.
         13    1    5    5    0    0 -0.22794559423E+02 -0.37487057250E+02  0.83268540872E+02  0.94119717910E+02  0.00000000000E+00 0. -1.
        -14    1    5    5    0    0  0.48321400487E+01  0.21107122804E+02 -0.34112795318E+01  0.21920242666E+02  0.00000000000E+00 0.  1.
          5    1    4    4  501    0  0.43607541231E+02 -0.78133327179E+02 -0.10931772164E+03  0.14133036168E+03  0.41800000000E+01 0. -1.
         -5    1    4    4    0  501 -0.29054127585E+02  0.72495825666E+01 -0.17515365172E+03  0.17774412195E+03  0.41800000000E+01 0. -1.
</event>
<event>
11    1  0.1002087E-008  0.1818274E+03  0.7561462E-02  0.1068174E+00
         22   -1    0    0    0    0  0.00000000000E+00  0.00000000000E+00  0.40395888279E+03  0.40395888279E+03  0.00000000000E+00 0. -1.
         22   -1    0    0    0    0 -0.00000000000E+00 -0.00000000000E+00 -0.73955334764E+03  0.73955334764E+03  0.00000000000E+00 0.  1.
         24    2    1    2    0    0 -0.76300530324E+02 -0.30546968317E+02 -0.59624245833E+03  0.60738837507E+03  0.81612994359E+02 0.  0.
         25    2    1    2    0    0  0.14938139701E+03  0.12846982392E+03 -0.41693563667E+01  0.23341737311E+03  0.12508792550E+03 0.  0.
        -24    2    1    2    0    0 -0.73080866681E+02 -0.97922855603E+02  0.26481734985E+03  0.30270648226E+03  0.81075809560E+02 0.  0.
        -11    1    3    3    0    0 -0.43040355002E+02  0.21505561998E+01 -0.48297780028E+03  0.48489653805E+03  0.00000000000E+00 0.  1.
         12    1    3    3    0    0 -0.33260175322E+02 -0.32697524516E+02 -0.11326465805E+03  0.12249183701E+03  0.00000000000E+00 0. -1.
         11    1    5    5    0    0 -0.86700262883E+01 -0.71035461086E+02  0.93703336602E+02  0.11790471313E+03  0.00000000000E+00 0. -1.
        -12    1    5    5    0    0 -0.64410840392E+02 -0.26887394517E+02  0.17111401325E+03  0.18480176913E+03  0.00000000000E+00 0.  1.
          5    1    4    4  501    0 -0.79420828022E+01  0.58517382287E+02  0.12099965834E+02  0.60425510193E+02  0.41800000000E+01 0. -1.
         -5    1    4    4    0  501  0.15732347981E+03  0.69952441633E+02 -0.16269322201E+02  0.17299186291E+03  0.41800000000E+01 0. -1.
</event>
<event>
11    1  0.1002087E-008  0.1258434E+03  0.7561462E-02  0.1124484E+00
         22   -1    0    0    0    0  0.00000000000E+00  0.00000000000E+00  0.11020824332E+03  0.11020824332E+03  0.00000000000E+00 0. -1.
         22   -1    0    0    0    0 -0.00000000000E+00 -0.00000000000E+00 -0.11981904964E+04  0.11981904964E+04  0.00000000000E+00 0. -1.
         24    2    1    2    0    0 -0.15246918315E+02  0.47797923112E+01 -0.87081945224E+03  0.87480563805E+03  0.81872284903E+02 0.  0.
         25    2    1    2    0    0  0.10695992972E+01  0.44028804187E+01 -0.29506884867E+03  0.32051927919E+03  0.12508578447E+03 0.  0.
        -24    2    1    2    0    0  0.14177319018E+02 -0.91826727298E+01  0.77906047854E+02  0.11307382246E+03  0.80193635534E+02 0.  0.
        -11    1    3    3    0    0  0.29237419843E+02 -0.11998476151E+02 -0.22086369547E+03  0.22311333919E+03  0.00000000000E+00 0.  1.
         12    1    3    3    0    0 -0.44484338158E+02  0.16778268463E+02 -0.64995575677E+03  0.65169229886E+03  0.00000000000E+00 0. -1.
         11    1    5    5    0    0  0.46234377928E+02 -0.16450652859E+02  0.47465323337E+02  0.68272971236E+02  0.00000000000E+00 0. -1.
        -12    1    5    5    0    0 -0.32057058910E+02  0.72679801295E+01  0.30440724517E+02  0.44800851223E+02  0.00000000000E+00 0.  1.
          5    1    4    4  501    0 -0.43178211499E+02 -0.37818603090E+02 -0.93098032051E+02  0.10945008296E+03  0.41800000000E+01 0.  1.
         -5    1    4    4    0  501  0.44247810796E+02  0.42221483509E+02 -0.20197081662E+03  0.21106919623E+03  0.41800000000E+01 0.  1.
</event>
<event>
11    1  0.1002087E-008  0.1813095E+03  0.7561462E-02  0.1068588E+00
         22   -1    0    0    0    0  0.00000000000E+00  0.00000000000E+00  0.15653304742E+04  0.15653304742E+04  0.00000000000E+00 0.  1.
         22   -1    0    0    0    0 -0.00000000000E+00 -0.00000000000E+00 -0.16883790008E+03  0.16883790008E+03  0.00000000000E+00 0. -1.
         24    2    1    2    0    0  0.17823576445E+02  0.20972494319E+02 -0.11199138041E+03  0.14062586572E+03  0.80473843120E+02 0.  0.
         25    2    1    2    0    0 -0.13753803633E+03 -0.68277723523E+02  0.21914432577E+03  0.29538122870E+03  0.12508907138E+03 0.  0.
        -24    2    1    2    0    0  0.11971445989E+03  0.47305229205E+02  0.12893396288E+04  0.12981612799E+04  0.79099264642E+02 0.  0.
        -13    1    3    3    0    0  0.36934587439E+02 -0.13711577195E+02 -0.29822201888E+02  0.49411889500E+02  0.00000000000E+00 0.  1.
         14    1    3    3    0    0 -0.19111010994E+02  0.34684071513E+02 -0.82169178523E+02  0.91213976216E+02  0.00000000000E+00 0. -1.
         13    1    5    5    0    0 -0.59915715402E+01  0.21993063507E+02  0.18195286961E+03  0.18337513607E+03  0.00000000000E+00 0. -1.
        -14    1    5    5    0    0  0.12570603143E+03  0.25312165697E+02  0.11073867592E+04  0.11147861438E+04  0.00000000000E+00 0.  1.
          5    1    4    4  501    0 -0.62286753307E+02  0.21132299142E+02  0.13835266331E+03  0.15324863963E+03  0.41800000000E+01 0.  1.
         -5    1    4    4    0  501 -0.75251283025E+02 -0.89410022666E+02  0.80791662463E+02  0.14213258906E+03  0.41800000000E+01 0.  1.
</event>
<event>
11    1  0.1002087E-008  0.1259911E+03  0.7561462E-02  0.1124295E+00
         22   -1    0    0    0    0  0.00000000000E+00  0.00000000000E+00  0.71364692373E+03  0.71364692373E+03  0.00000000000E+00 0. -1.
         22   -1    0    0    0    0 -0.00000000000E+00 -0.00000000000E+00 -0.37697973340E+03  0.37697973340E+03  0.00000000000E+00 0.  1.
         24    2    1    2    0    0 -0.34257135859E+01  0.14864392214E+02 -0.34950895256E+03  0.36057758901E+03  0.87332720683E+02 0.  0.
         25    2    1    2    0    0 -0.33987191328E+02 -0.16753502928E+02  0.22078976333E+03  0.25657125889E+03  0.12507950377E+03 0.  0.
        -24    2    1    2    0    0  0.37412904914E+02  0.18891107139E+01  0.46538637956E+03  0.47347780924E+03  0.78698534715E+02 0.  0.
        -11    1    3    3    0    0 -0.32096553988E+02 -0.60428164839E+01 -0.28574266855E+03  0.28760315895E+03  0.00000000000E+00 0.  1.
         12    1    3    3    0    0  0.28670840402E+02  0.20907208698E+02 -0.63766284017E+02  0.72974430058E+02  0.00000000000E+00 0. -1.
         11    1    5    5    0    0  0.53288220317E+02  0.12272408690E+02  0.19779142160E+03  0.20521133716E+03  0.00000000000E+00 0. -1.
        -12    1    5    5    0    0 -0.15875315404E+02 -0.10383297976E+02  0.26759495796E+03  0.26826647208E+03  0.00000000000E+00 0.  1.
          5    1    4    4  501    0  0.21683717629E+02 -0.21105482235E+02  0.18705977252E+01  0.30603864567E+02  0.41800000000E+01 0.  1.
         -5    1    4    4    0  501 -0.55670908957E+02  0.43519793069E+01  0.21891916561E+03  0.22596739432E+03  0.41800000000E+01 0.  1.
</event>
<event>
11    1  0.1002087E-008  0.1684089E+03  0.7561462E-02  0.1079425E+00
         22   -1    0    0    0    0  0.00000000000E+00  0.00000000000E+00  0.64645559020E+03  0.64645559020E+03  0.00000000000E+00 0.  1.
         22   -1    0    0    0    0 -0.00000000000E+00 -0.00000000000E+00 -0.50083127705E+03  0.50083127705E+03  0.00000000000E+00 0.  1.
         24    2    1    2    0    0  0.58891555062E+02 -0.54092892721E+02 -0.38619034034E+03  0.40256654931E+03  0.80762561578E+02 0.  0.
         25    2    1    2    0    0 -0.16647395564E+03  0.40514430152E+02  0.17271280238E+02  0.21284280756E+03  0.12509503049E+03 0.  0.
        -24    2    1    2    0    0  0.10758240057E+03  0.13578462569E+02  0.51454337325E+03  0.53187751037E+03  0.79877753645E+02 0.  0.
        -13    1    3    3    0    0  0.66029281324E+02 -0.67592789178E+02 -0.36052121090E+03  0.37269853051E+03  0.00000000000E+00 0.  1.
         14    1    3    3    0    0 -0.71377262617E+01  0.13499896457E+02 -0.25669129444E+02  0.29868018798E+02  0.00000000000E+00 0. -1.
         11    1    5    5    0    0  0.89757209441E+01 -0.12724046934E+02  0.13693293161E+02  0.20735747260E+02  0.00000000000E+00 0. -1.
        -12    1    5    5    0    0  0.98606679630E+02  0.26302509504E+02  0.50085008009E+03  0.51114176311E+03  0.00000000000E+00 0.  1.
          5    1    4    4  501    0 -0.56918290444E+02 -0.34461963504E+02 -0.28292336443E+02  0.72424080368E+02  0.41800000000E+01 0.  1.
         -5    1    4    4    0  501 -0.10955566519E+03  0.74976393656E+02  0.45563616682E+02  0.14041872719E+03  0.41800000000E+01 0.  1.
</event>
<event>
11    1  0.1002087E-008  0.1731207E+03  0.7561462E-02  0.1075347E+00
         22   -1    0    0    0    0  0.00000000000E+00  0.00000000000E+00  0.72845494117E+03  0.72845494117E+03  0.00000000000E+00 0.  1.
         22   -1    0    0    0    0 -0.00000000000E+00 -0.00000000000E+00 -0.27472138470E+03  0.27472138470E+03  0.00000000000E+00 0. -1.
        -24    2    1    2    0    0  0.17290474866E+02 -0.11960708455E+03 -0.19538121150E+03  0.24385259377E+03  0.81764628566E+02 0.  0.
         25    2    1    2    0    0  0.15447261285E+02  0.11565110265E+03  0.89149415258E+02  0.19289579221E+03  0.12508945993E+03 0.  0.
         24    2    1    2    0    0 -0.32737736151E+02  0.39559819051E+01  0.55996535272E+03  0.56642793989E+03  0.78689298391E+02 0.  0.
        -13    1    5    5    0    0 -0.37875366843E+02  0.22535472680E+02  0.52192199768E+03  0.52377949807E+03  0.00000000000E+00 0.  1.
         14    1    5    5    0    0  0.51376306916E+01 -0.18579490775E+02  0.38043355043E+02  0.42648441818E+02  0.00000000000E+00 0. -1.
         13    1    3    3    0    0  0.48918255639E+02 -0.90510118823E+02 -0.14075045583E+03  0.17434382168E+03  0.00000000000E+00 0. -1.
        -14    1    3    3    0    0 -0.31627780773E+02 -0.29096965729E+02 -0.54630755677E+02  0.69508772088E+02  0.00000000000E+00 0.  1.
          5    1    4    4  501    0  0.11318320286E+02 -0.11144805646E+02 -0.19724345861E+02  0.25667747986E+02  0.41800000000E+01 0.  1.
         -5    1    4    4    0  501  0.41289409986E+01  0.12679590829E+03  0.10887376112E+03  0.16722804422E+03  0.41800000000E+01 0.  1.
</event>
<event>
11    1  0.1002087E-008  0.1369410E+03  0.7561462E-02  0.1111023E+00
         22   -1    0    0    0    0  0.00000000000E+00  0.00000000000E+00  0.59311290280E+02  0.59311290280E+02  0.00000000000E+00 0. -1.
         22   -1    0    0    0    0 -0.00000000000E+00 -0.00000000000E+00 -0.10222369823E+04  0.10222369823E+04  0.00000000000E+00 0.  1.
        -24    2    1    2    0    0 -0.11755569498E+02 -0.52513932132E+02 -0.71760384450E+03  0.72423556039E+03  0.81645347773E+02 0.  0.
         25    2    1    2    0    0 -0.24275271009E+02  0.74564175236E+02 -0.20823241476E+03  0.25526063936E+03  0.12509256748E+03 0.  0.
         24    2    1    2    0    0  0.36030840507E+02 -0.22050243104E+02 -0.37089432759E+02  0.10205207282E+03  0.85173733373E+02 0.  0.
        -11    1    5    5    0    0 -0.12703379085E+02  0.24444438793E+02 -0.80258990231E+01  0.28693579129E+02  0.00000000000E+00 0.  1.
         12    1    5    5    0    0  0.48734219592E+02 -0.46494681897E+02 -0.29063533736E+02  0.73358493695E+02  0.00000000000E+00 0. -1.
         11    1    3    3    0    0 -0.15247798166E+02  0.11074118476E+02 -0.47338162392E+02  0.50951281315E+02  0.00000000000E+00 0. -1.
        -12    1    3    3    0    0  0.34922286683E+01 -0.63588050608E+02 -0.67026568211E+03  0.67328427908E+03  0.00000000000E+00 0.  1.
          5    1    4    4  501    0 -0.34860935429E+02  0.49166174203E+02 -0.18052757711E+02  0.63055308784E+02  0.41800000000E+01 0.  1.
         -5    1    4    4    0  501  0.10585664420E+02  0.25398001032E+02 -0.19017965705E+03  0.19220533058E+03  0.41800000000E+01 0.  1.
</event>
<event>
11    1  0.1002087E-008  0.1741099E+03  0.7561462E-02  0.1074509E+00
         22   -1    0    0    0    0  0.00000000000E+00  0.00000000000E+00  0.53220955115E+03  0.53220955115E+03  0.00000000000E+00 0. -1.
         22   -1    0    0    0    0 -0.00000000000E+00 -0.00000000000E+00 -0.89750518091E+03  0.89750518091E+03  0.00000000000E+00 0. -1.
        -24    2    1    2    0    0  0.11967949682E+03  0.12911466717E+02 -0.82838017066E+03  0.84059158683E+03  0.76750379558E+02 0.  0.
         25    2    1    2    0    0 -0.13528902291E+03 -0.53868831724E+02  0.10407525564E+03  0.21836555384E+03  0.12508751143E+03 0.  0.
         24    2    1    2    0    0  0.15609526084E+02  0.40957365007E+02  0.35900928527E+03  0.37075759139E+03  0.81562010843E+02 0.  0.
        -11    1    5    5    0    0 -0.16253806597E+02  0.11912306801E+02  0.17958999656E+02  0.26992868519E+02  0.00000000000E+00 0.  1.
         12    1    5    5    0    0  0.31863332681E+02  0.29045058205E+02  0.34105028561E+03  0.34376472287E+03  0.00000000000E+00 0. -1.
         13    1    3    3    0    0  0.34398019400E+02  0.57483212784E+00 -0.49706871042E+03  0.49825782186E+03  0.00000000000E+00 0. -1.
        -14    1    3    3    0    0  0.85281477422E+02  0.12336634589E+02 -0.33131146024E+03  0.34233376496E+03  0.00000000000E+00 0.  1.
          5    1    4    4  501    0 -0.93876755118E+02 -0.75284939902E+02  0.19887337105E+02  0.12203952599E+03  0.41800000000E+01 0. -1.
         -5    1    4    4    0  501 -0.41412267788E+02  0.21416108178E+02  0.84187918537E+02  0.96326027845E+02  0.41800000000E+01 0. -1.
</event>
<event>
11    1  0.1002087E-008  0.1701978E+03  0.7561462E-02  0.1077860E+00
         22   -1    0    0    0    0  0.00000000000E+00  0.00000000000E+00  0.22559632595E+04  0.22559632595E+04  0.00000000000E+00 0. -1.
         22   -1    0    0    0    0 -0.00000000000E+00 -0.00000000000E+00 -0.15862974702E+04  0.15862974702E+04  0.00000000000E+00 0.  1.
         24    2    1    2    0    0 -0.13581378150E+02 -0.11583576675E+02 -0.14708906369E+04  0.14731480583E+04  0.79544345425E+02 0.  0.
         25    2    1    2    0    0  0.12806790301E+03 -0.95939185782E+00 -0.40509713543E+02  0.18354984172E+03  0.12508876565E+03 0.  0.
        -24    2    1    2    0    0 -0.11448652486E+03  0.12542968533E+02  0.21810661396E+04  0.21855628297E+04  0.79817834780E+02 0.  0.
        -13    1    3    3    0    0  0.17583917961E+02  0.23833021757E+02 -0.34482222992E+03  0.34609186258E+03  0.00000000000E+00 0.  1.
         14    1    3    3    0    0 -0.31165296111E+02 -0.35416598432E+02 -0.11260684069E+04  0.11270561957E+04  0.00000000000E+00 0. -1.
         11    1    5    5    0    0 -0.67989116992E+01 -0.18377411828E+02  0.69624799750E+03  0.69652367403E+03  0.00000000000E+00 0. -1.
        -12    1    5    5    0    0 -0.10768761316E+03  0.30920380360E+02  0.14848181421E+04  0.14890391557E+04  0.00000000000E+00 0.  1.
          5    1    4    4  501    0  0.99959705375E+02  0.41374609157E+02  0.13701395226E+02  0.10912837217E+03  0.41800000000E+01 0.  1.
         -5    1    4    4    0  501  0.28108197636E+02 -0.42334001015E+02 -0.54211108769E+02  0.74421469552E+02  0.41800000000E+01 0.  1.
</event>
<event>
11    1  0.1002087E-008  0.2219984E+03  0.7561462E-02  0.1039973E+00
         22   -1    0    0    0    0  0.00000000000E+00  0.00000000000E+00  0.11597551993E+04  0.11597551993E+04  0.00000000000E+00 0. -1.
         22   -1    0    0    0    0 -0.00000000000E+00 -0.00000000000E+00 -0.42636866832E+03  0.42636866832E+03  0.00000000000E+00 0. -1.
        -24    2    1    2    0    0  0.17068510053E+03  0.59286715558E+02 -0.26811030480E+03  0.33358633764E+03  0.82148590560E+02 0.  0.
         25    2    1    2    0    0 -0.20103475578E+03 -0.12074615865E+01 -0.88524402065E+01  0.23694168222E+03  0.12508622659E+03 0.  0.
         24    2    1    2    0    0  0.30349655243E+02 -0.58079253971E+02  0.10103492760E+04  0.10155958477E+04  0.79592494461E+02 0.  0.
        -13    1    5    5    0    0 -0.23076047079E+02 -0.40579937974E+02  0.42725933909E+03  0.42980202204E+03  0.00000000000E+00 0.  1.
         14    1    5    5    0    0  0.53425702321E+02 -0.17499315997E+02  0.58308993689E+03  0.58579382570E+03  0.00000000000E+00 0. -1.
         13    1    3    3    0    0  0.96886609248E+02  0.44523405293E+02 -0.21939956763E+03  0.24393753083E+03  0.00000000000E+00 0. -1.
        -14    1    3    3    0    0  0.73798491287E+02  0.14763310265E+02 -0.48710737169E+02  0.89648806806E+02  0.00000000000E+00 0.  1.
          5    1    4    4  501    0 -0.19494008771E+03 -0.21377699614E+02 -0.38931518143E+02  0.19997944730E+03  0.41800000000E+01 0. -1.
         -5    1    4    4    0  501 -0.60946680681E+01  0.20170238028E+02  0.30079077937E+02  0.36962234923E+02  0.41800000000E+01 0. -1.
</event>
<event>
11    1  0.1002087E-008  0.1327869E+03  0.7561462E-02  0.1115891E+00
         22   -1    0    0    0    0  0.00000000000E+00  0.00000000000E+00  0.94672723616E+02  0.94672723616E+02  0.00000000000E+00 0. -1.
         22   -1    0    0    0    0 -0.00000000000E+00 -0.00000000000E+00 -0.11592518539E+04  0.11592518539E+04  0.00000000000E+00 0. -1.
        -24    2    1    2    0    0  0.19984615863E+02 -0.14209980503E+01 -0.95095621871E+03  0.95374054754E+03  0.70013555997E+02 0.  0.
         25    2    1    2    0    0 -0.37141504897E+02 -0.38568604605E+02 -0.15113489968E+03  0.20336513853E+03  0.12509433649E+03 0.  0.
         24    2    1    2    0    0  0.17156889034E+02  0.39989602655E+02  0.37511988069E+02  0.96818891475E+02  0.77930875369E+02 0.  0.
        -13    1    5    5    0    0  0.62699011750E+01  0.12286602556E+01 -0.23148170643E+02  0.24013726718E+02  0.00000000000E+00 0.  1.
         14    1    5    5    0    0  0.10886987859E+02  0.38760942399E+02  0.60660158712E+02  0.72805164757E+02  0.00000000000E+00 0. -1.
         11    1    3    3    0    0  0.42876379288E+02  0.98075344693E+01 -0.72877939245E+03  0.73010545437E+03  0.00000000000E+00 0. -1.
        -12    1    3    3    0    0 -0.22891763425E+02 -0.11228532520E+02 -0.22217682626E+03  0.22363509318E+03  0.00000000000E+00 0.  1.
          5    1    4    4  501    0  0.39586607338E+02  0.35789547664E+01 -0.83800990455E+02  0.92843884015E+02  0.41800000000E+01 0. -1.
         -5    1    4    4    0  501 -0.76728112236E+02 -0.42147559371E+02 -0.67333909225E+02  0.11052125452E+03  0.41800000000E+01 0. -1.
</event>
<event>
11    1  0.1002087E-008  0.1393005E+03  0.7561462E-02  0.1108342E+00
         22   -1    0    0    0    0  0.00000000000E+00  0.00000000000E+00  0.75588685866E+03  0.75588685866E+03  0.00000000000E+00 0. -1.
         22   -1    0    0    0    0 -0.00000000000E+00 -0.00000000000E+00 -0.17112079519E+03  0.17112079519E+03  0.00000000000E+00 0. -1.
        -24    2    1    2    0    0  0.58849771817E+02 -0.10104742739E+02 -0.12920704006E+03  0.16324864088E+03  0.79939089803E+02 0.  0.
         25    2    1    2    0    0 -0.95386408194E+02 -0.16364910651E+02  0.30614891803E+03  0.34458748570E+03  0.12508796154E+03 0.  0.
         24    2    1    2    0    0  0.36536636377E+02  0.26469653390E+02  0.40782418550E+03  0.41917152727E+03  0.85724177705E+02 0.  0.
        -11    1    5    5    0    0 -0.10603657362E+02 -0.10923336832E+01  0.35637531081E+01  0.11239709896E+02  0.00000000000E+00 0.  1.
         12    1    5    5    0    0  0.47140293739E+02  0.27561987073E+02  0.40426043240E+03  0.40793181737E+03  0.00000000000E+00 0. -1.
         13    1    3    3    0    0  0.67945736299E+02 -0.10529407071E+02 -0.13565924872E+03  0.15208853756E+03  0.00000000000E+00 0. -1.
        -14    1    3    3    0    0 -0.90959644825E+01  0.42466433131E+00  0.64522086524E+01  0.11160103322E+02  0.00000000000E+00 0.  1.
          5    1    4    4  501    0 -0.10385879862E+03 -0.55049809531E+02  0.21379804249E+03  0.24401681695E+03  0.41800000000E+01 0.  1.
         -5    1    4    4    0  501  0.84723904236E+01  0.38684898881E+02  0.92350875535E+02  0.10057066875E+03  0.41800000000E+01 0.  1.
</event>
<event>
11    1  0.1002087E-008  0.1518195E+03  0.7561462E-02  0.1095034E+00
         22   -1    0    0    0    0  0.00000000000E+00  0.00000000000E+00  0.95819380029E+03  0.95819380029E+03  0.00000000000E+00 0. -1.
         22   -1    0    0    0    0 -0.00000000000E+00 -0.00000000000E+00 -0.25892639159E+03  0.25892639159E+03  0.00000000000E+00 0. -1.
        -24    2    1    2    0    0 -0.25776351645E+01  0.31921467165E+00 -0.22855393258E+03  0.24186410447E+03  0.79086021701E+02 0.  0.
         25    2    1    2    0    0 -0.52968369177E+02 -0.66420932245E+02  0.29007900710E+03  0.32712494406E+03  0.12509000876E+03 0.  0.
         24    2    1    2    0    0  0.55546004342E+02  0.66101717574E+02  0.63774233418E+03  0.64813114336E+03  0.76836830503E+02 0.  0.
        -13    1    5    5    0    0  0.48409038405E+02 -0.47266793117E+00  0.24840982946E+03  0.25308319143E+03  0.00000000000E+00 0.  1.
         14    1    5    5    0    0  0.71369659367E+01  0.66574385505E+02  0.38933250472E+03  0.39504795193E+03  0.00000000000E+00 0. -1.
         13    1    3    3    0    0 -0.31252961648E+02 -0.40443228234E+01 -0.19491826927E+03  0.19744932478E+03  0.00000000000E+00 0. -1.
        -14    1    3    3    0    0  0.28675326483E+02  0.43635374950E+01 -0.33635663311E+02  0.44414779689E+02  0.00000000000E+00 0.  1.
          5    1    4    4  501    0 -0.47279583409E+02 -0.94702901880E+02  0.14750607383E+03  0.18160262347E+03  0.41800000000E+01 0. -1.
         -5    1    4    4    0  501 -0.56887857682E+01  0.28281969635E+02  0.14257293327E+03  0.14552232059E+03  0.41800000000E+01 0. -1.
</event>
<event>
11    1  0.1002087E-008  0.1539312E+03  0.7561462E-02  0.1092928E+00
         22   -1    0    0    0    0  0.00000000000E+00  0.00000000000E+00  0.19004613714E+03  0.19004613714E+03  0.00000000000E+00 0.  1.
         22   -1    0    0    0    0 -0.00000000000E+00 -0.00000000000E+00 -0.82542629563E+03  0.82542629563E+03  0.00000000000E+00 0.  1.
        -24    2    1    2    0    0  0.43197289398E+02 -0.15496356856E+02 -0.65079262609E+03  0.65757565082E+03  0.82271206919E+02 0.  0.
         25    2    1    2    0    0 -0.62457446381E+02  0.99118791403E+02 -0.95199235825E+02  0.19605032619E+03  0.12508944192E+03 0.  0.
         24    2    1    2    0    0  0.19260156983E+02 -0.83622434547E+02  0.11061170342E+03  0.16184645576E+03  0.81213675590E+02 0.  0.
        -11    1    5    5    0    0 -0.27661502841E+02 -0.49835706257E+02  0.74012452490E+02  0.93416269895E+02  0.00000000000E+00 0.  1.
         12    1    5    5    0    0  0.46921659824E+02 -0.33786728290E+02  0.36599250928E+02  0.68430185866E+02  0.00000000000E+00 0. -1.
         13    1    3    3    0    0  0.32928013031E+02 -0.41183074901E+02 -0.23405669024E+03  0.23992255823E+03  0.00000000000E+00 0. -1.
        -14    1    3    3    0    0  0.10269276368E+02  0.25686718045E+02 -0.41673593585E+03  0.41765309259E+03  0.00000000000E+00 0.  1.
          5    1    4    4  501    0  0.98580404605E+01  0.20337097275E+02 -0.85562922975E+02  0.88596075959E+02  0.41800000000E+01 0. -1.
         -5    1    4    4    0  501 -0.72315486842E+02  0.78781694128E+02 -0.96363128494E+01  0.10745425023E+03  0.41800000000E+01 0. -1.
</event>
<event>
11    1  0.1002087E-008  0.5993682E+03  0.7561462E-02  0.9195346E-01
         22   -1    0    0    0    0  0.00000000000E+00  0.00000000000E+00  0.97892306601E+03  0.97892306601E+03  0.00000000000E+00 0. -1.
         22   -1    0    0    0    0 -0.00000000000E+00 -0.00000000000E+00 -0.47263280633E+03  0.47263280633E+03  0.00000000000E+00 0. -1.
         24    2    1    2    0    0  0.23820378956E+03  0.52660855446E+03  0.25911104493E+02  0.58412706085E+03  0.80470012344E+02 0.  0.
         25    2    1    2    0    0 -0.26757784373E+03 -0.53786515702E+03  0.35664322880E+03  0.70974527625E+03  0.12508850834E+03 0.  0.
        -24    2    1    2    0    0  0.29374054167E+02  0.11256602563E+02  0.12373592638E+03  0.15768353525E+03  0.92541729238E+02 0.  0.
        -11    1    3    3    0    0  0.86578738722E+02  0.17752407144E+03 -0.28880283437E+02  0.19961148442E+03  0.00000000000E+00 0.  1.
         12    1    3    3    0    0  0.15162505084E+03  0.34908448302E+03  0.54791387930E+02  0.38451557643E+03  0.00000000000E+00 0. -1.
         11    1    5    5    0    0 -0.31746345471E+02  0.12147491918E+02  0.62585923476E+02  0.71220712072E+02  0.00000000000E+00 0. -1.
        -12    1    5    5    0    0  0.61120399638E+02 -0.89088935488E+00  0.61150002909E+02  0.86462823175E+02  0.00000000000E+00 0.  1.
          5    1    4    4  501    0 -0.16224294715E+03 -0.19329789674E+03  0.12806586455E+03  0.28302860076E+03  0.41800000000E+01 0. -1.
         -5    1    4    4    0  501 -0.10533489658E+03 -0.34456726028E+03  0.22857736425E+03  0.42671667549E+03  0.41800000000E+01 0. -1.
</event>
<event>
11    1  0.1002087E-008  0.1894854E+03  0.7561462E-02  0.1062218E+00
         22   -1    0    0    0    0  0.00000000000E+00  0.00000000000E+00  0.16471633542E+03  0.16471633542E+03  0.00000000000E+00 0.  1.
         22   -1    0    0    0    0 -0.00000000000E+00 -0.00000000000E+00 -0.40833319165E+04  0.40833319165E+04  0.00000000000E+00 0.  1.
         24    2    1    2    0    0 -0.12492715207E+03 -0.52994246355E+02 -0.27801036556E+04  0.27845869243E+04  0.80825860222E+02 0.  0.
         25    2    1    2    0    0  0.16909007995E+03  0.29330019515E+02 -0.12779188989E+04  0.12954447162E+04  0.12509434601E+03 0.  0.
        -24    2    1    2    0    0 -0.44162927874E+02  0.23664226840E+02  0.13940697332E+03  0.16801661149E+03  0.79277472819E+02 0.  0.
        -13    1    3    3    0    0 -0.75094470428E+02 -0.57278124390E+01 -0.20148932065E+04  0.20163002308E+04  0.00000000000E+00 0.  1.
         14    1    3    3    0    0 -0.49832681647E+02 -0.47266433916E+02 -0.76521044911E+03  0.76828669347E+03  0.00000000000E+00 0. -1.
         13    1    5    5    0    0  0.11148116493E+02 -0.16457211921E+02  0.11402168202E+02  0.22915710010E+02  0.00000000000E+00 0. -1.
        -14    1    5    5    0    0 -0.55311044367E+02  0.40121438761E+02  0.12800480512E+03  0.14510090148E+03  0.00000000000E+00 0.  1.
          5    1    4    4  501    0  0.33306437101E+02 -0.39088637295E+02 -0.51076597478E+03  0.51335815345E+03  0.41800000000E+01 0.  1.
         -5    1    4    4    0  501  0.13578364285E+03  0.68418656810E+02 -0.76715292408E+03  0.78208656272E+03  0.41800000000E+01 0.  1.
</event>
<event>
11    1  0.1002087E-008  0.1633167E+03  0.7561462E-02  0.1083999E+00
         22   -1    0    0    0    0  0.00000000000E+00  0.00000000000E+00  0.10142032680E+04  0.10142032680E+04  0.00000000000E+00 0. -1.
         22   -1    0    0    0    0 -0.00000000000E+00 -0.00000000000E+00 -0.21040132605E+04  0.21040132605E+04  0.00000000000E+00 0. -1.
        -24    2    1    2    0    0  0.44071807560E+01  0.16617318178E+02 -0.19612950614E+04  0.19629803390E+04  0.79485437003E+02 0.  0.
         25    2    1    2    0    0  0.88115799335E+02 -0.65990191900E+02 -0.86842272067E+02  0.18790521353E+03  0.12509072522E+03 0.  0.
         24    2    1    2    0    0 -0.92522980091E+02  0.49372873722E+02  0.95832734101E+03  0.96733097602E+03  0.79622497661E+02 0.  0.
        -13    1    5    5    0    0 -0.30621244522E+02 -0.48822756370E+01  0.91646876966E+02  0.96750438185E+02  0.00000000000E+00 0.  1.
         14    1    5    5    0    0 -0.61901735569E+02  0.54255149359E+02  0.86668046405E+03  0.87058053784E+03  0.00000000000E+00 0. -1.
         11    1    3    3    0    0  0.10915810554E+02 -0.20557760016E+02 -0.14882986792E+04  0.14884806801E+04  0.00000000000E+00 0. -1.
        -12    1    3    3    0    0 -0.65086297982E+01  0.37175078195E+02 -0.47299638221E+03  0.47449965889E+03  0.00000000000E+00 0.  1.
          5    1    4    4  501    0  0.54984272428E+02  0.30762954512E+02 -0.22628108549E+02  0.67075578874E+02  0.41800000000E+01 0. -1.
         -5    1    4    4    0  501  0.33131526907E+02 -0.96753146413E+02 -0.64214163517E+02  0.12082963466E+03  0.41800000000E+01 0. -1.
</event>
<event>
11    1  0.1002087E-008  0.2829553E+03  0.7561462E-02  0.1007675E+00
         22   -1    0    0    0    0  0.00000000000E+00  0.00000000000E+00  0.16917761566E+04  0.16917761566E+04  0.00000000000E+00 0.  1.
         22   -1    0    0    0    0 -0.00000000000E+00 -0.00000000000E+00 -0.20662016043E+03  0.20662016043E+03  0.00000000000E+00 0. -1.
        -24    2    1    2    0    0  0.20438434201E+03  0.17518086975E+03 -0.39095758744E+02  0.28525834299E+03  0.85921752264E+02 0.  0.
         25    2    1    2    0    0 -0.12745860733E+03 -0.17035944131E+03  0.31849406195E+03  0.40293170191E+03  0.12508978008E+03 0.  0.
         24    2    1    2    0    0 -0.76925734672E+02 -0.48214284356E+01  0.12057576930E+04  0.12102062722E+04  0.69331033126E+02 0.  0.
        -13    1    5    5    0    0 -0.29326437163E+02  0.17271746180E+02  0.18526809105E+03  0.18836830597E+03  0.00000000000E+00 0.  1.
         14    1    5    5    0    0 -0.47599297508E+02 -0.22093174616E+02  0.10204896019E+04  0.10218379662E+04  0.00000000000E+00 0. -1.
         13    1    3    3    0    0  0.14058573180E+03  0.16480365225E+03 -0.41572090523E+02  0.22057386629E+03  0.00000000000E+00 0. -1.
        -14    1    3    3    0    0  0.63798610202E+02  0.10377217500E+02  0.24763317793E+01  0.64684476699E+02  0.00000000000E+00 0.  1.
          5    1    4    4  501    0 -0.14398090686E+03 -0.13465857733E+03  0.30062664905E+03  0.35952369673E+03  0.41800000000E+01 0. -1.
         -5    1    4    4    0  501  0.16522299525E+02 -0.35700863980E+02  0.17867412901E+02  0.43408005187E+02  0.41800000000E+01 0. -1.
</event>
<event>
11    1  0.1002087E-008  0.1324568E+03  0.7561462E-02  0.1116287E+00
         22   -1    0    0    0    0  0.00000000000E+00  0.00000000000E+00  0.17138674485E+04  0.17138674485E+04  0.00000000000E+00 0. -1.
         22   -1    0    0    0    0 -0.00000000000E+00 -0.00000000000E+00 -0.19576623426E+03  0.19576623426E+03  0.00000000000E+00 0.  1.
        -24    2    1    2    0    0 -0.39570790326E+02 -0.20497458080E+02 -0.15920502049E+03  0.18329798150E+03  0.79157553263E+02 0.  0.
         25    2    1    2    0    0  0.16122919989E+02  0.29829406508E+02  0.15815612318E+03  0.20447793263E+03  0.12509246018E+03 0.  0.
         24    2    1    2    0    0  0.23447870337E+02 -0.93319484283E+01  0.15191501115E+04  0.15218577686E+04  0.87161451147E+02 0.  0.
        -13    1    5    5    0    0  0.17745257010E+02  0.19915173655E+02  0.14803994798E+03  0.15042384946E+03  0.00000000000E+00 0.  1.
         14    1    5    5    0    0  0.57026133279E+01 -0.29247122084E+02  0.13711101635E+04  0.13714339191E+04  0.00000000000E+00 0. -1.
         11    1    3    3    0    0 -0.11750181497E+02  0.10445697546E+02  0.28568383326E+01  0.15979389466E+02  0.00000000000E+00 0. -1.
        -12    1    3    3    0    0 -0.27820608828E+02 -0.30943155626E+02 -0.16206185883E+03  0.16731859204E+03  0.00000000000E+00 0.  1.
          5    1    4    4  501    0 -0.50988979236E+02  0.35172337488E+02  0.79125368938E+02  0.10057467742E+03  0.41800000000E+01 0.  1.
         -5    1    4    4    0  501  0.67111899225E+02 -0.53429309799E+01  0.79030754238E+02  0.10390325522E+03  0.41800000000E+01 0.  1.
</event>
<event>
11    1  0.1002087E-008  0.1538966E+03  0.7561462E-02  0.1092962E+00
         22   -1    0    0    0    0  0.00000000000E+00  0.00000000000E+00  0.11045680060E+04  0.11045680060E+04  0.00000000000E+00 0.  1.
         22   -1    0    0    0    0 -0.00000000000E+00 -0.00000000000E+00 -0.42013034355E+02  0.42013034355E+02  0.00000000000E+00 0. -1.
        -24    2    1    2    0    0 -0.68783407983E+02 -0.68805081012E+02  0.15618634231E+03  0.20140196510E+03  0.81873571029E+02 0.  0.
         25    2    1    2    0    0  0.87675851226E+02  0.63523114986E+01  0.39523758486E+03  0.42377803445E+03  0.12509063612E+03 0.  0.
         24    2    1    2    0    0 -0.18892443243E+02  0.62452769514E+02  0.51113104449E+03  0.52140104082E+03  0.79666981272E+02 0.  0.
        -11    1    5    5    0    0 -0.11226290012E+02 -0.16761357259E+02  0.16554918275E+03  0.16677381267E+03  0.00000000000E+00 0.  1.
         12    1    5    5    0    0 -0.76661532307E+01  0.79214126772E+02  0.34558186174E+03  0.35462722816E+03  0.00000000000E+00 0. -1.
         11    1    3    3    0    0 -0.41653652447E+02 -0.74345691574E+02  0.68162891184E+02  0.10912602051E+03  0.00000000000E+00 0. -1.
        -12    1    3    3    0    0 -0.27129755536E+02  0.55406105614E+01  0.88023451129E+02  0.92275944588E+02  0.00000000000E+00 0.  1.
          5    1    4    4  501    0  0.44991317443E+02  0.65302818035E+02  0.22436816677E+03  0.23800677165E+03  0.41800000000E+01 0. -1.
         -5    1    4    4    0  501  0.42684533782E+02 -0.58950506536E+02  0.17086941809E+03  0.18577126280E+03  0.41800000000E+01 0. -1.
</event>
<event>
11    1  0.1002087E-008  0.1341029E+03  0.7561462E-02  0.1114328E+00
         22   -1    0    0    0    0  0.00000000000E+00  0.00000000000E+00  0.62249800091E+03  0.62249800091E+03  0.00000000000E+00 0. -1.
         22   -1    0    0    0    0 -0.00000000000E+00 -0.00000000000E+00 -0.74331961848E+02  0.74331961848E+02  0.00000000000E+00 0.  1.
         24    2    1    2    0    0 -0.45742856550E+02  0.11282467275E+02  0.55533165712E+01  0.95794179122E+02  0.83222487559E+02 0.  0.
         25    2    1    2    0    0  0.52846387734E+02 -0.56481970724E+01  0.16031366711E+03  0.21017356930E+03  0.12509122489E+03 0.  0.
        -24    2    1    2    0    0 -0.71035311838E+01 -0.56342702031E+01  0.38229905538E+03  0.39086221433E+03  0.80860977570E+02 0.  0.
        -11    1    3    3    0    0 -0.66914942350E+02 -0.54086172038E+01  0.11692706032E+02  0.68143833353E+02  0.00000000000E+00 0.  1.
         12    1    3    3    0    0  0.21172085799E+02  0.16691084479E+02 -0.61393894609E+01  0.27650345769E+02  0.00000000000E+00 0. -1.
         13    1    5    5    0    0  0.54331962638E+01 -0.39289471334E+02  0.27165567643E+03  0.27453595159E+03  0.00000000000E+00 0. -1.
        -14    1    5    5    0    0 -0.12536727448E+02  0.33655201131E+02  0.11064337895E+03  0.11632626274E+03  0.00000000000E+00 0.  1.
          5    1    4    4  501    0  0.35499790467E+02  0.40225337823E+01  0.17900450385E+03  0.18258285982E+03  0.41800000000E+01 0.  1.
         -5    1    4    4    0  501  0.17346597267E+02 -0.96707308547E+01 -0.18690836737E+02  0.27590709486E+02  0.41800000000E+01 0.  1.
</event>
<event>
11    1  0.1002087E-008  0.1583180E+03  0.7561462E-02  0.1088670E+00
         22   -1    0    0    0    0  0.00000000000E+00  0.00000000000E+00  0.34083284948E+03  0.34083284948E+03  0.00000000000E+00 0. -1.
         22   -1    0    0    0    0 -0.00000000000E+00 -0.00000000000E+00 -0.35781752672E+03  0.35781752672E+03  0.00000000000E+00 0.  1.
         24    2    1    2    0    0 -0.53348852853E+02 -0.66665377145E+02 -0.13220286825E+03  0.17189698051E+03  0.69141889787E+02 0.  0.
         25    2    1    2    0    0  0.14027202225E+03  0.96962013871E+02 -0.13339227421E+03  0.25003840192E+03  0.12509129169E+03 0.  0.
        -24    2    1    2    0    0 -0.86923169400E+02 -0.30296636726E+02  0.24861046522E+03  0.27671499377E+03  0.79312677312E+02 0.  0.
        -11    1    3    3    0    0 -0.59417000952E+02 -0.26302766049E+02 -0.57481468577E+02  0.86754450801E+02  0.00000000000E+00 0.  1.
         12    1    3    3    0    0  0.60681480988E+01 -0.40362611096E+02 -0.74721399670E+02  0.85142529704E+02  0.00000000000E+00 0. -1.
         11    1    5    5    0    0 -0.95809867586E+02 -0.30667547785E+02  0.16948988217E+03  0.19709604099E+03  0.00000000000E+00 0. -1.
        -12    1    5    5    0    0  0.88866981865E+01  0.37091105879E+00  0.79120583051E+02  0.79618952782E+02  0.00000000000E+00 0.  1.
          5    1    4    4  501    0  0.68249701399E+02  0.10731591014E+02 -0.11766724120E+03  0.13651461767E+03  0.41800000000E+01 0. -1.
         -5    1    4    4    0  501  0.72022320853E+02  0.86230422857E+02 -0.15725033012E+02  0.11352378425E+03  0.41800000000E+01 0. -1.
</event>
<event>
11    1  0.1002087E-008  0.2076548E+03  0.7561462E-02  0.1049239E+00
         22   -1    0    0    0    0  0.00000000000E+00  0.00000000000E+00  0.87618035687E+03  0.87618035687E+03  0.00000000000E+00 0. -1.
         22   -1    0    0    0    0 -0.00000000000E+00 -0.00000000000E+00 -0.38421754207E+03  0.38421754207E+03  0.00000000000E+00 0.  1.
        -24    2    1    2    0    0 -0.55638104152E+02 -0.14792510021E+03 -0.28737631786E+03  0.34424454479E+03  0.10460269903E+03 0.  0.
         25    2    1    2    0    0  0.74485067387E+02  0.25385594560E+03  0.30294751813E+03  0.42120676140E+03  0.12508825174E+03 0.  0.
         24    2    1    2    0    0 -0.18846963236E+02 -0.10593084539E+03  0.47639161453E+03  0.49494659275E+03  0.80290766933E+02 0.  0.
        -13    1    5    5    0    0 -0.23000927690E+02 -0.26135875721E+02  0.48758408094E+02  0.59912511499E+02  0.00000000000E+00 0.  1.
         14    1    5    5    0    0  0.41539644546E+01 -0.79794969671E+02  0.42763320644E+03  0.43503408125E+03  0.00000000000E+00 0. -1.
         11    1    3    3    0    0 -0.71332875599E+02 -0.42901485130E+02 -0.12093014152E+03  0.14680945370E+03  0.00000000000E+00 0. -1.
        -12    1    3    3    0    0  0.15694771447E+02 -0.10502361508E+03 -0.16644617635E+03  0.19743509110E+03  0.00000000000E+00 0.  1.
          5    1    4    4  501    0  0.10639670013E+03  0.22633398541E+03  0.26391150674E+03  0.36361255003E+03  0.41800000000E+01 0.  1.
         -5    1    4    4    0  501 -0.31911632745E+02  0.27521960190E+02  0.39036011392E+02  0.57594211363E+02  0.41800000000E+01 0.  1.
</event>
<event>
11    1  0.1002087E-008  0.2335547E+03  0.7561462E-02  0.1033044E+00
         22   -1    0    0    0    0  0.00000000000E+00  0.00000000000E+00  0.89601567524E+03  0.89601567524E+03  0.00000000000E+00 0. -1.
         22   -1    0    0    0    0 -0.00000000000E+00 -0.00000000000E+00 -0.13660086618E+04  0.13660086618E+04  0.00000000000E+00 0. -1.
        -24    2    1    2    0    0  0.27876406273E+02 -0.37778532364E+02 -0.11815399761E+04  0.11848375890E+04  0.74827036996E+02 0.  0.
         25    2    1    2    0    0  0.11878587965E+02 -0.15876253229E+03 -0.10791420981E+03  0.22943088355E+03  0.12508561523E+03 0.  0.
         24    2    1    2    0    0 -0.39754994238E+02  0.19654106465E+03  0.81946119941E+03  0.84775586451E+03  0.83453572777E+02 0.  0.
        -11    1    5    5    0    0 -0.11845316970E+02  0.12778515065E+02  0.20648904213E+03  0.20722289087E+03  0.00000000000E+00 0.  1.
         12    1    5    5    0    0 -0.27909677268E+02  0.18376254959E+03  0.61297215728E+03  0.64053297363E+03  0.00000000000E+00 0. -1.
         11    1    3    3    0    0 -0.69661529207E+01 -0.31293359231E+02 -0.95536026671E+03  0.95589802847E+03  0.00000000000E+00 0. -1.
        -12    1    3    3    0    0  0.34842559194E+02 -0.64851731327E+01 -0.22617970942E+03  0.22893956048E+03  0.00000000000E+00 0.  1.
          5    1    4    4  501    0 -0.54228076151E+02 -0.10039881935E+03 -0.60900279873E+02  0.12940990557E+03  0.41800000000E+01 0.  1.
         -5    1    4    4    0  501  0.66106664115E+02 -0.58363712935E+02 -0.47013929942E+02  0.10002097798E+03  0.41800000000E+01 0.  1.
</event>
<event>
11    1  0.1002087E-008  0.2618877E+03  0.7561462E-02  0.1017750E+00
         22   -1    0    0    0    0  0.00000000000E+00  0.00000000000E+00  0.29780143543E+04  0.29780143543E+04  0.00000000000E+00 0. -1.
         22   -1    0    0    0    0 -0.00000000000E+00 -0.00000000000E+00 -0.16272412317E+04  0.16272412317E+04  0.00000000000E+00 0.  1.
         24    2    1    2    0    0  0.53538089825E+02 -0.22529718289E+03 -0.14948088998E+04  0.15147487022E+04  0.79905171489E+02 0.  0.
         25    2    1    2    0    0 -0.13088149594E+03  0.18325908656E+03  0.15635064570E+02  0.25808226667E+03  0.12509253512E+03 0.  0.
        -24    2    1    2    0    0  0.77343406111E+02  0.42038096334E+02  0.28299469578E+04  0.28324246170E+04  0.79247859558E+02 0.  0.
        -11    1    3    3    0    0  0.54903181313E+02 -0.16398912208E+03 -0.12702198101E+04  0.12819380474E+04  0.00000000000E+00 0.  1.
         12    1    3    3    0    0 -0.13650914880E+01 -0.61308060811E+02 -0.22458908969E+03  0.23281065483E+03  0.00000000000E+00 0. -1.
         13    1    5    5    0    0  0.72378001363E+02  0.43766105341E+02  0.28191210087E+04  0.28203895668E+04  0.00000000000E+00 0. -1.
        -14    1    5    5    0    0  0.49654047480E+01 -0.17280090075E+01  0.10825949131E+02  0.12035050229E+02  0.00000000000E+00 0.  1.
          5    1    4    4  501    0 -0.54421539383E+02  0.15696215273E+03  0.44651968213E+02  0.17207583213E+03  0.41800000000E+01 0. -1.
         -5    1    4    4    0  501 -0.76459956553E+02  0.26296933825E+02 -0.29016903643E+02  0.86006434537E+02  0.41800000000E+01 0. -1.
</event>
<event>
11    1  0.1002087E-008  0.9923231E+03  0.7561462E-02  0.8686350E-01
         22   -1    0    0    0    0  0.00000000000E+00  0.00000000000E+00  0.11693945616E+04  0.11693945616E+04  0.00000000000E+00 0.  1.
         22   -1    0    0    0    0 -0.00000000000E+00 -0.00000000000E+00 -0.21051603490E+03  0.21051603490E+03  0.00000000000E+00 0.  1.
        -24    2    1    2    0    0 -0.14194850892E+03  0.18790828377E+02  0.14613627490E+03  0.22156815887E+03  0.85053887447E+02 0.  0.
         25    2    1    2    0    0  0.43892033809E+03 -0.92284627447E+02  0.29439285575E+03  0.55089227785E+03  0.12509049775E+03 0.  0.
         24    2    1    2    0    0 -0.29697182917E+03  0.73493799070E+02  0.51834939601E+03  0.60745015973E+03  0.81951170784E+02 0.  0.
        -11    1    5    5    0    0 -0.59100324135E+02 -0.16519657461E+02  0.82477302371E+02  0.10280200777E+03  0.00000000000E+00 0.  1.
         12    1    5    5    0    0 -0.23787150504E+03  0.90013456531E+02  0.43587209364E+03  0.50464815196E+03  0.00000000000E+00 0. -1.
         13    1    3    3    0    0 -0.10611796415E+03 -0.24810851224E+02  0.83749609487E+02  0.13744307091E+03  0.00000000000E+00 0. -1.
        -14    1    3    3    0    0 -0.35830544768E+02  0.43601679601E+02  0.62386665414E+02  0.84125087958E+02  0.00000000000E+00 0.  1.
          5    1    4    4  501    0  0.25323079163E+03 -0.10134237406E+03  0.12786412776E+03  0.30126868104E+03  0.41800000000E+01 0.  1.
         -5    1    4    4    0  501  0.18568954646E+03  0.90577466125E+01  0.16652872799E+03  0.24962359681E+03  0.41800000000E+01 0.  1.
</event>
<event>
11    1  0.1002087E-008  0.1967413E+03  0.7561462E-02  0.1056852E+00
         22   -1    0    0    0    0  0.00000000000E+00  0.00000000000E+00  0.37167744551E+03  0.37167744551E+03  0.00000000000E+00 0.  1.
         22   -1    0    0    0    0 -0.00000000000E+00 -0.00000000000E+00 -0.65176579032E+03  0.65176579032E+03  0.00000000000E+00 0.  1.
         24    2    1    2    0    0 -0.98310517881E+02  0.41415266429E+02 -0.49890853008E+03  0.51641207866E+03  0.79947053591E+02 0.  0.
         25    2    1    2    0    0  0.18547344642E+03  0.75178606260E+02  0.34809788117E+01  0.23603145550E+03  0.12508600482E+03 0.  0.
        -24    2    1    2    0    0 -0.87162928544E+02 -0.11659387269E+03  0.21533920646E+03  0.27099970167E+03  0.76670445439E+02 0.  0.
        -13    1    3    3    0    0 -0.59994808766E+02  0.44377720257E+02 -0.17520279994E+03  0.19043313850E+03  0.00000000000E+00 0.  1.
         14    1    3    3    0    0 -0.38315709115E+02 -0.29624538278E+01 -0.32370573015E+03  0.32597894016E+03  0.00000000000E+00 0. -1.
         11    1    5    5    0    0 -0.28821398717E+02 -0.45628260331E+02  0.24644269486E+02  0.59329176493E+02  0.00000000000E+00 0. -1.
        -12    1    5    5    0    0 -0.58341529827E+02 -0.70965612358E+02  0.19069493698E+03  0.21167052518E+03  0.00000000000E+00 0.  1.
          5    1    4    4  501    0  0.62886768777E+01 -0.20490024275E+02  0.23258571133E+02  0.31903324009E+02  0.41800000000E+01 0.  1.
         -5    1    4    4    0  501  0.17918476955E+03  0.95668630535E+02 -0.19777592322E+02  0.20412813149E+03  0.41800000000E+01 0.  1.
</event>
<event>
11    1  0.1002087E-008  0.1973679E+03  0.7561462E-02  0.1056401E+00
         22   -1    0    0    0    0  0.00000000000E+00  0.00000000000E+00  0.91544800701E+02  0.91544800701E+02  0.00000000000E+00 0. -1.
         22   -1    0    0    0    0 -0.00000000000E+00 -0.00000000000E+00 -0.25999458302E+04  0.25999458302E+04  0.00000000000E+00 0.  1.
        -24    2    1    2    0    0  0.29756319490E+02 -0.19467048812E+02 -0.17643863808E+04  0.17664863291E+04  0.78423502384E+02 0.  0.
         25    2    1    2    0    0 -0.99284428052E+02  0.15075994350E+03 -0.70845846005E+03  0.74171888424E+03  0.12509018906E+03 0.  0.
         24    2    1    2    0    0  0.69528108562E+02 -0.13129289469E+03 -0.35556188700E+02  0.18328541758E+03  0.10127842646E+03 0.  0.
        -11    1    5    5    0    0 -0.25635713526E+02 -0.15934241249E+02 -0.79476124897E+01  0.31213048497E+02  0.00000000000E+00 0.  1.
         12    1    5    5    0    0  0.95163822088E+02 -0.11535865344E+03 -0.27608576210E+02  0.15207236908E+03  0.00000000000E+00 0. -1.
         13    1    3    3    0    0  0.20109266884E+02 -0.37810263635E+02 -0.47327424038E+03  0.47520785480E+03  0.00000000000E+00 0. -1.
        -14    1    3    3    0    0  0.96470526062E+01  0.18343214823E+02 -0.12911121404E+04  0.12912784743E+04  0.00000000000E+00 0.  1.
          5    1    4    4  501    0  0.23925252105E+02  0.52169552410E+02 -0.25991573834E+03  0.26620996097E+03  0.41800000000E+01 0. -1.
         -5    1    4    4    0  501 -0.12320968016E+03  0.98590391094E+02 -0.44854272172E+03  0.47550892327E+03  0.41800000000E+01 0. -1.
</event>
<event>
11    1  0.1002087E-008  0.1629093E+03  0.7561462E-02  0.1084372E+00
         22   -1    0    0    0    0  0.00000000000E+00  0.00000000000E+00  0.35606260634E+03  0.35606260634E+03  0.00000000000E+00 0. -1.
         22   -1    0    0    0    0 -0.00000000000E+00 -0.00000000000E+00 -0.77667558267E+03  0.77667558267E+03  0.00000000000E+00 0.  1.
        -24    2    1    2    0    0  0.46133336200E+02 -0.99682698792E+02 -0.68313887388E+03  0.69660852458E+03  0.80745218820E+02 0.  0.
         25    2    1    2    0    0 -0.11992129042E+02  0.55659768472E+02 -0.18283898519E+02  0.13863498724E+03  0.12507412904E+03 0.  0.
         24    2    1    2    0    0 -0.34141207157E+02  0.44022930320E+02  0.28080979607E+03  0.29749467719E+03  0.80903034354E+02 0.  0.
        -11    1    5    5    0    0 -0.16158007885E+02  0.54666890302E+02  0.97071637466E+02  0.11257198992E+03  0.00000000000E+00 0.  1.
         12    1    5    5    0    0 -0.17983199272E+02 -0.10643959983E+02  0.18373815861E+03  0.18492268727E+03  0.00000000000E+00 0. -1.
         11    1    3    3    0    0 -0.17906981194E+02 -0.45718949341E+00 -0.75059600148E+02  0.77167432068E+02  0.00000000000E+00 0. -1.
        -12    1    3    3    0    0  0.64040317394E+02 -0.99225509298E+02 -0.60807927373E+03  0.61944109251E+03  0.00000000000E+00 0.  1.
          5    1    4    4  501    0 -0.20476890356E+02  0.52085347552E+02 -0.67847330976E+02  0.88050662625E+02  0.41800000000E+01 0. -1.
         -5    1    4    4    0  501  0.84847613130E+01  0.35744209202E+01  0.49563432457E+02  0.50584324611E+02  0.41800000000E+01 0. -1.
</event>
<event>
11    1  0.1002087E-008  0.1925526E+03  0.7561462E-02  0.1059919E+00
         22   -1    0    0    0    0  0.00000000000E+00  0.00000000000E+00  0.51838823410E+03  0.51838823410E+03  0.00000000000E+00 0. -1.
         22   -1    0    0    0    0 -0.00000000000E+00 -0.00000000000E+00 -0.16026585021E+04  0.16026585021E+04  0.00000000000E+00 0.  1.
        -24    2    1    2    0    0  0.11891844291E+02 -0.58588735207E+02 -0.11587998844E+04  0.11629558911E+04  0.77943420020E+02 0.  0.
         25    2    1    2    0    0 -0.13829202551E+03 -0.16469993866E+02 -0.40716300366E+03  0.44813488332E+03  0.12508883674E+03 0.  0.
         24    2    1    2    0    0  0.12640018122E+03  0.75058729073E+02  0.48169262000E+03  0.50995596184E+03  0.80102960162E+02 0.  0.
        -11    1    5    5    0    0  0.87601897207E+02  0.81245140032E+02  0.27924346104E+03  0.30372977415E+03  0.00000000000E+00 0.  1.
         12    1    5    5    0    0  0.38798284017E+02 -0.61864109590E+01  0.20244915896E+03  0.20622618768E+03  0.00000000000E+00 0. -1.
         11    1    3    3    0    0  0.32498267577E+02  0.17315220801E+01 -0.28989079575E+03  0.29171185959E+03  0.00000000000E+00 0. -1.
        -12    1    3    3    0    0 -0.20606423286E+02 -0.60320257287E+02 -0.86890908861E+03  0.87124403148E+03  0.00000000000E+00 0.  1.
          5    1    4    4  501    0 -0.15681512727E+03  0.10880988838E+01 -0.37739660251E+03  0.40870262549E+03  0.41800000000E+01 0. -1.
         -5    1    4    4    0  501  0.18523101753E+02 -0.17558092750E+02 -0.29766401152E+02  0.39432257824E+02  0.41800000000E+01 0. -1.
</event>
<event>
11    1  0.1002087E-008  0.1777772E+03  0.7561462E-02  0.1071455E+00
         22   -1    0    0    0    0  0.00000000000E+00  0.00000000000E+00  0.21594982498E+03  0.21594982498E+03  0.00000000000E+00 0.  1.
         22   -1    0    0    0    0 -0.00000000000E+00 -0.00000000000E+00 -0.29746435006E+04  0.29746435006E+04  0.00000000000E+00 0. -1.
         24    2    1    2    0    0  0.25331291512E+01  0.32626302160E+02 -0.23299743920E+04  0.23316118169E+04  0.81006820135E+02 0.  0.
         25    2    1    2    0    0 -0.99394650236E+02 -0.11216295534E+03 -0.60035957302E+03  0.63129920760E+03  0.12508895856E+03 0.  0.
        -24    2    1    2    0    0  0.96861521084E+02  0.79536653183E+02  0.17164028940E+03  0.22768230110E+03  0.81673789075E+02 0.  0.
        -13    1    3    3    0    0 -0.37228174375E+02  0.28858091302E+02 -0.13601610611E+04  0.13609764284E+04  0.00000000000E+00 0.  1.
         14    1    3    3    0    0  0.39761303526E+02  0.37682108581E+01 -0.96981333091E+03  0.97063538853E+03  0.00000000000E+00 0. -1.
         11    1    5    5    0    0  0.42205099515E+02 -0.49565042991E+01  0.23396301505E+02  0.48510043125E+02  0.00000000000E+00 0. -1.
        -12    1    5    5    0    0  0.54656421569E+02  0.84493157482E+02  0.14824398790E+03  0.17917225798E+03  0.00000000000E+00 0.  1.
          5    1    4    4  501    0 -0.51327204118E+02 -0.10013672915E+03 -0.54656364961E+03  0.55804224023E+03  0.41800000000E+01 0. -1.
         -5    1    4    4    0  501 -0.48067446117E+02 -0.12026226189E+02 -0.53795923412E+02  0.73256967371E+02  0.41800000000E+01 0. -1.
</event>
<event>
11    1  0.1002087E-008  0.1426699E+03  0.7561462E-02  0.1104613E+00
         22   -1    0    0    0    0  0.00000000000E+00  0.00000000000E+00  0.10965384987E+03  0.10965384987E+03  0.00000000000E+00 0.  1.
         22   -1    0    0    0    0 -0.00000000000E+00 -0.00000000000E+00 -0.79110341916E+03  0.79110341916E+03  0.00000000000E+00 0. -1.
        -24    2    1    2    0    0  0.26513137656E+02 -0.25421707909E+02 -0.39786457518E+03  0.40737325036E+03  0.79419992574E+02 0.  0.
         25    2    1    2    0    0  0.89008170455E+01  0.83373041505E+02 -0.34136033460E+03  0.37310139548E+03  0.12508990639E+03 0.  0.
         24    2    1    2    0    0 -0.35413954701E+02 -0.57951333596E+02  0.57775340490E+02  0.12028262318E+03  0.80730503641E+02 0.  0.
        -11    1    5    5    0    0 -0.36198433346E+02 -0.61837307773E+02  0.74339956234E+02  0.10325022180E+03  0.00000000000E+00 0.  1.
         12    1    5    5    0    0  0.78447864537E+00  0.38859741777E+01 -0.16564615744E+02  0.17032401381E+02  0.00000000000E+00 0. -1.
         13    1    3    3    0    0  0.47911165677E+02 -0.37631153948E+02 -0.24074504073E+03  0.24833396501E+03  0.00000000000E+00 0. -1.
        -14    1    3    3    0    0 -0.21398028021E+02  0.12209446039E+02 -0.15711953445E+03  0.15903928534E+03  0.00000000000E+00 0.  1.
          5    1    4    4  501    0  0.33770245167E+02  0.25363799581E+02 -0.22516658488E+02  0.48043980864E+02  0.41800000000E+01 0. -1.
         -5    1    4    4    0  501 -0.24869428122E+02  0.58009241924E+02 -0.31884367611E+03  0.32505741462E+03  0.41800000000E+01 0. -1.
</event>
<event>
11    1  0.1002087E-008  0.1327423E+03  0.7561462E-02  0.1115945E+00
         22   -1    0    0    0    0  0.00000000000E+00  0.00000000000E+00  0.11816217293E+03  0.11816217293E+03  0.00000000000E+00 0. -1.
         22   -1    0    0    0    0 -0.00000000000E+00 -0.00000000000E+00 -0.92368215191E+03  0.92368215191E+03  0.00000000000E+00 0.  1.
         24    2    1    2    0    0 -0.38305329877E+02 -0.24569438436E+02 -0.41366328793E+03  0.42398552564E+03  0.81089176640E+02 0.  0.
         25    2    1    2    0    0  0.48864239382E+02 -0.45158192040E+01 -0.47774875804E+03  0.49628714542E+03  0.12509575687E+03 0.  0.
        -24    2    1    2    0    0 -0.10558909506E+02  0.29085257640E+02  0.85892066997E+02  0.12157165378E+03  0.80279368761E+02 0.  0.
        -11    1    3    3    0    0 -0.24797191445E+02 -0.49088956032E+02 -0.35193273930E+03  0.35620398552E+03  0.00000000000E+00 0.  1.
         12    1    3    3    0    0 -0.13508138432E+02  0.24519517596E+02 -0.61730548636E+02  0.67781540127E+02  0.00000000000E+00 0. -1.
         11    1    5    5    0    0  0.33446739404E+02  0.24718672738E+01  0.43479231360E+02  0.54911183416E+02  0.00000000000E+00 0. -1.
        -12    1    5    5    0    0 -0.44005648909E+02  0.26613390366E+02  0.42412835637E+02  0.66660470367E+02  0.00000000000E+00 0.  1.
          5    1    4    4  501    0  0.54558459318E+02  0.17063825931E+02 -0.46813269091E+03  0.47162854911E+03  0.41800000000E+01 0. -1.
         -5    1    4    4    0  501 -0.56942199360E+01 -0.21579645135E+02 -0.96160671300E+01  0.24658596308E+02  0.41800000000E+01 0. -1.
</event>
<event>
11    1  0.1002087E-008  0.1289934E+03  0.7561462E-02  0.1120512E+00
         22   -1    0    0    0    0  0.00000000000E+00  0.00000000000E+00  0.48012311568E+03  0.48012311568E+03  0.00000000000E+00 0.  1.
         22   -1    0    0    0    0 -0.00000000000E+00 -0.00000000000E+00 -0.18573991432E+03  0.18573991432E+03  0.00000000000E+00 0.  1.
        -24    2    1    2    0    0 -0.11595199332E+02  0.28439544648E+02 -0.13348528074E+03  0.15953063480E+03  0.81782925599E+02 0.  0.
         25    2    1    2    0    0  0.36487239276E+02 -0.26929887670E+02  0.96721736537E+02  0.16449321837E+03  0.12508551911E+03 0.  0.
         24    2    1    2    0    0 -0.24892039944E+02 -0.15096569779E+01  0.33114674555E+03  0.34183917683E+03  0.81079979075E+02 0.  0.
        -13    1    5    5    0    0 -0.11747856907E+02 -0.13280099002E+02  0.32099252805E+03  0.32148184434E+03  0.00000000000E+00 0.  1.
         14    1    5    5    0    0 -0.13144183037E+02  0.11770442024E+02  0.10154217500E+02  0.20357332492E+02  0.00000000000E+00 0. -1.
         11    1    3    3    0    0  0.96282703891E+01 -0.90942246119E+01  0.52518152355E+01  0.14247458554E+02  0.00000000000E+00 0. -1.
        -12    1    3    3    0    0 -0.21223469722E+02  0.37533769260E+02 -0.13873709597E+03  0.14528317625E+03  0.00000000000E+00 0.  1.
          5    1    4    4  501    0 -0.19187368710E+02 -0.43816237843E+02 -0.39146539993E+01  0.48174835056E+02  0.41800000000E+01 0.  1.
         -5    1    4    4    0  501  0.55674607986E+02  0.16886350173E+02  0.10063639054E+03  0.11631838331E+03  0.41800000000E+01 0.  1.
</event>
<event>
11    1  0.1002087E-008  0.1487008E+03  0.7561462E-02  0.1098214E+00
         22   -1    0    0    0    0  0.00000000000E+00  0.00000000000E+00  0.83289616442E+03  0.83289616442E+03  0.00000000000E+00 0.  1.
         22   -1    0    0    0    0 -0.00000000000E+00 -0.00000000000E+00 -0.47998343217E+03  0.47998343217E+03  0.00000000000E+00 0.  1.
        -24    2    1    2    0    0 -0.23569698044E+02  0.23322076721E+01 -0.41897881542E+03  0.42752623688E+03  0.81697402614E+02 0.  0.
         25    2    1    2    0    0  0.82374138782E+02 -0.54850933278E+02  0.69911008911E+02  0.17415080427E+03  0.12508728888E+03 0.  0.
         24    2    1    2    0    0 -0.58804440737E+02  0.52518725605E+02  0.70198053876E+03  0.71120255543E+03  0.82560397650E+02 0.  0.
        -13    1    5    5    0    0 -0.20062420346E+02  0.69097761127E+02  0.45442064240E+03  0.46008164660E+03  0.00000000000E+00 0.  1.
         14    1    5    5    0    0 -0.38742020391E+02 -0.16579035521E+02  0.24755989637E+03  0.25112090883E+03  0.00000000000E+00 0. -1.
         11    1    3    3    0    0  0.17277654754E+02 -0.59699837946E+01 -0.23094452085E+02  0.29453552883E+02  0.00000000000E+00 0. -1.
        -12    1    3    3    0    0 -0.40847352798E+02  0.83021914667E+01 -0.39588436334E+03  0.39807268400E+03  0.00000000000E+00 0.  1.
          5    1    4    4  501    0 -0.12441107591E+02 -0.10729419109E+02 -0.26758186821E+02  0.31676088055E+02  0.41800000000E+01 0.  1.
         -5    1    4    4    0  501  0.94815246373E+02 -0.44121514169E+02  0.96669195733E+02  0.14247471622E+03  0.41800000000E+01 0.  1.
</event>
<event>
11    1  0.1002087E-008  0.1624957E+03  0.7561462E-02  0.1084753E+00
         22   -1    0    0    0    0  0.00000000000E+00  0.00000000000E+00  0.61512750540E+03  0.61512750540E+03  0.00000000000E+00 0. -1.
         22   -1    0    0    0    0 -0.00000000000E+00 -0.00000000000E+00 -0.20960005860E+03  0.20960005860E+03  0.00000000000E+00 0.  1.
        -24    2    1    2    0    0 -0.77322996154E+02 -0.69857788374E+02 -0.87419004026E+02  0.15852698968E+03  0.81423386448E+02 0.  0.
         25    2    1    2    0    0  0.39978016447E+02  0.10340564683E+03  0.30139981589E+01  0.16717584288E+03  0.12509080168E+03 0.  0.
         24    2    1    2    0    0  0.37344979707E+02 -0.33547858456E+02  0.48993245266E+03  0.49902473144E+03  0.80447300146E+02 0.  0.
        -13    1    5    5    0    0  0.63719667277E+01  0.18228489374E+01 -0.21162773587E+00  0.66309520075E+01  0.00000000000E+00 0.  1.
         14    1    5    5    0    0  0.30973012979E+02 -0.35370707393E+02  0.49014408040E+03  0.49239377943E+03  0.00000000000E+00 0. -1.
         13    1    3    3    0    0  0.98246190549E+01 -0.35760940184E+02 -0.36299886064E+02  0.51894601942E+02  0.00000000000E+00 0. -1.
        -14    1    3    3    0    0 -0.87147615208E+02 -0.34096848190E+02 -0.51119117962E+02  0.10663238774E+03  0.00000000000E+00 0.  1.
          5    1    4    4  501    0  0.11247574283E+02  0.11690030223E+03  0.34293609580E+02  0.12241614537E+03  0.41800000000E+01 0.  1.
         -5    1    4    4    0  501  0.28730442164E+02 -0.13494655398E+02 -0.31279611422E+02  0.44759697518E+02  0.41800000000E+01 0.  1.
</event>
<event>
11    1  0.1002087E-008  0.1354976E+03  0.7561462E-02  0.1112693E+00
         22   -1    0    0    0    0  0.00000000000E+00  0.00000000000E+00  0.27611889359E+03  0.27611889359E+03  0.00000000000E+00 0.  1.
         22   -1    0    0    0    0 -0.00000000000E+00 -0.00000000000E+00 -0.89624326452E+03  0.89624326452E+03  0.00000000000E+00 0.  1.
        -24    2    1    2    0    0 -0.10743205889E+03  0.25298308975E+02 -0.68376296916E+03  0.69723680877E+03  0.80160575054E+02 0.  0.
         25    2    1    2    0    0  0.13328665907E+00 -0.47035202872E+02 -0.16317220860E+03  0.21089801612E+03  0.12506188655E+03 0.  0.
         24    2    1    2    0    0  0.10729877223E+03  0.21736893897E+02  0.22681080683E+03  0.26422733322E+03  0.79921351653E+02 0.  0.
        -11    1    5    5    0    0  0.95116995621E+02 -0.40422343276E+00  0.11328064183E+03  0.14791859270E+03  0.00000000000E+00 0.  1.
         12    1    5    5    0    0  0.12181776611E+02  0.22141117330E+02  0.11353016500E+03  0.11630874053E+03  0.00000000000E+00 0. -1.
         11    1    3    3    0    0 -0.90376118918E+02  0.48775661779E+02 -0.44390638370E+03  0.45563119466E+03  0.00000000000E+00 0. -1.
        -12    1    3    3    0    0 -0.17055939973E+02 -0.23477352804E+02 -0.23985658546E+03  0.24160561411E+03  0.00000000000E+00 0.  1.
          5    1    4    4  501    0 -0.54496121906E+02  0.54944105897E+01 -0.47913827433E+02  0.72891859009E+02  0.41800000000E+01 0. -1.
         -5    1    4    4    0  501  0.54629408565E+02 -0.52529613462E+02 -0.11525838117E+03  0.13800615711E+03  0.41800000000E+01 0. -1.
</event>
<event>
11    1  0.1002087E-008  0.1515933E+03  0.7561462E-02  0.1095262E+00
         22   -1    0    0    0    0  0.00000000000E+00  0.00000000000E+00  0.37900798437E+03  0.37900798437E+03  0.00000000000E+00 0.  1.
         22   -1    0    0    0    0 -0.00000000000E+00 -0.00000000000E+00 -0.13854080327E+03  0.13854080327E+03  0.00000000000E+00 0. -1.
        -24    2    1    2    0    0 -0.54980145583E+02  0.30507837794E+02 -0.45873900962E+02  0.11244829803E+03  0.81158242741E+02 0.  0.
         25    2    1    2    0    0 -0.50148536008E+02 -0.16504977415E+02  0.82203018323E+02  0.15872135850E+03  0.12509134054E+03 0.  0.
         24    2    1    2    0    0  0.10512868159E+03 -0.14002860379E+02  0.20413806373E+03  0.24637913111E+03  0.88216820339E+02 0.  0.
        -11    1    5    5    0    0  0.64176241572E+02  0.30280203118E+02  0.14730081042E+03  0.16350232241E+03  0.00000000000E+00 0.  1.
         12    1    5    5    0    0  0.40952440020E+02 -0.44283063497E+02  0.56837253311E+02  0.82876808699E+02  0.00000000000E+00 0. -1.
         13    1    3    3    0    0  0.91212772020E+01  0.26863080267E+00 -0.40337102470E+02  0.41356398489E+02  0.00000000000E+00 0. -1.
        -14    1    3    3    0    0 -0.64101422785E+02  0.30239206991E+02 -0.55367984916E+01  0.71091899539E+02  0.00000000000E+00 0.  1.
          5    1    4    4  501    0  0.40532135424E+02  0.79627966725E+01  0.29601234617E+02  0.50989858048E+02  0.41800000000E+01 0. -1.
         -5    1    4    4    0  501 -0.90680671432E+02 -0.24467774088E+02  0.52601783706E+02  0.10773150045E+03  0.41800000000E+01 0. -1.
</event>
<event>
11    1  0.1002087E-008  0.1507994E+03  0.7561462E-02  0.1096065E+00
         22   -1    0    0    0    0  0.00000000000E+00  0.00000000000E+00  0.22908184796E+04  0.22908184796E+04  0.00000000000E+00 0.  1.
         22   -1    0    0    0    0 -0.00000000000E+00 -0.00000000000E+00 -0.27736392610E+03  0.27736392610E+03  0.00000000000E+00 0.  1.
         24    2    1    2    0    0 -0.67436127776E+02  0.56965314098E+02 -0.21979293052E+03  0.24762301721E+03  0.72218751063E+02 0.  0.
         25    2    1    2    0    0  0.65030542527E+02  0.64228223114E+00  0.74266786602E+02  0.15933688665E+03  0.12507319404E+03 0.  0.
        -24    2    1    2    0    0  0.24055852488E+01 -0.57607596329E+02  0.21589806974E+04  0.21612225018E+04  0.79753549316E+02 0.  0.
        -11    1    3    3    0    0 -0.67413626781E+02  0.70741182246E+02 -0.20662108984E+03  0.22856331007E+03  0.00000000000E+00 0.  1.
         12    1    3    3    0    0 -0.22500994594E-01 -0.13775868147E+02 -0.13171840683E+02  0.19059707146E+02  0.00000000000E+00 0. -1.
         13    1    5    5    0    0 -0.90304903496E+01 -0.25777305271E+02  0.19018334547E+03  0.19213465100E+03  0.00000000000E+00 0. -1.
        -14    1    5    5    0    0  0.11436075598E+02 -0.31830291059E+02  0.19687973519E+04  0.19690878508E+04  0.00000000000E+00 0.  1.
          5    1    4    4  501    0 -0.14635746063E+02  0.42134732481E+02  0.35504884633E+01  0.44940172589E+02  0.41800000000E+01 0.  1.
         -5    1    4    4    0  501  0.79666288590E+02 -0.41492450250E+02  0.70716298139E+02  0.11439671406E+03  0.41800000000E+01 0.  1.
</event>
<event>
11    1  0.1002087E-008  0.2080637E+03  0.7561462E-02  0.1048963E+00
         22   -1    0    0    0    0  0.00000000000E+00  0.00000000000E+00  0.86603837116E+03  0.86603837116E+03  0.00000000000E+00 0.  1.
         22   -1    0    0    0    0 -0.00000000000E+00 -0.00000000000E+00 -0.72776324746E+03  0.72776324746E+03  0.00000000000E+00 0. -1.
         24    2    1    2    0    0 -0.27689032655E+02  0.12202455856E+02 -0.52397645732E+03  0.53078742777E+03  0.79173121718E+02 0.  0.
         25    2    1    2    0    0  0.12470129985E+03 -0.14551446863E+03 -0.12076697331E+03  0.25876039447E+03  0.12508958846E+03 0.  0.
        -24    2    1    2    0    0 -0.97012267193E+02  0.13331201277E+03  0.78301855434E+03  0.80425379637E+03  0.80762861574E+02 0.  0.
        -11    1    3    3    0    0 -0.27754205666E+02  0.41990194018E+02 -0.23802597222E+03  0.24328961296E+03  0.00000000000E+00 0.  1.
         12    1    3    3    0    0  0.65173010760E-01 -0.29787738163E+02 -0.28595048510E+03  0.28749781481E+03  0.00000000000E+00 0. -1.
         13    1    5    5    0    0 -0.35870890321E+02  0.55669568469E+02  0.15570732602E+03  0.16920577119E+03  0.00000000000E+00 0. -1.
        -14    1    5    5    0    0 -0.61141376872E+02  0.77642444301E+02  0.62731122832E+03  0.63504802519E+03  0.00000000000E+00 0.  1.
          5    1    4    4  501    0  0.73823384695E+01 -0.95236719505E+02 -0.24131331737E+02  0.98611993362E+02  0.41800000000E+01 0.  1.
         -5    1    4    4    0  501  0.11731896138E+03 -0.50277749121E+02 -0.96635641577E+02  0.16014840111E+03  0.41800000000E+01 0.  1.
</event>
<event>
11    1  0.1002087E-008  0.1341951E+03  0.7561462E-02  0.1114219E+00
         22   -1    0    0    0    0  0.00000000000E+00  0.00000000000E+00  0.10096790838E+04  0.10096790838E+04  0.00000000000E+00 0.  1.
         22   -1    0    0    0    0 -0.00000000000E+00 -0.00000000000E+00 -0.24926890204E+04  0.24926890204E+04  0.00000000000E+00 0. -1.
        -24    2    1    2    0    0  0.19951097147E+02  0.49173565934E+02 -0.24169407966E+04  0.24194541796E+04  0.96641745267E+02 0.  0.
         25    2    1    2    0    0 -0.58415537911E+02 -0.75458693130E+02  0.15832430416E+02  0.15812765292E+03  0.12508916551E+03 0.  0.
         24    2    1    2    0    0  0.38464440764E+02  0.26285127196E+02  0.91809842958E+03  0.92478627165E+03  0.10076954263E+03 0.  0.
        -13    1    5    5    0    0  0.70275469737E+02  0.14734468864E+02  0.74193679241E+03  0.74540321314E+03  0.00000000000E+00 0.  1.
         14    1    5    5    0    0 -0.31811028974E+02  0.11550658332E+02  0.17616163717E+03  0.17938305852E+03  0.00000000000E+00 0. -1.
         11    1    3    3    0    0  0.16746647943E+02  0.56773325932E+02 -0.23987584379E+04  0.23994886339E+04  0.00000000000E+00 0. -1.
        -12    1    3    3    0    0  0.32044492042E+01 -0.75997599978E+01 -0.18182358699E+02  0.19965545687E+02  0.00000000000E+00 0.  1.
          5    1    4    4  501    0 -0.14435025341E+02 -0.53933438326E+01 -0.49894973462E+02  0.52387392482E+02  0.41800000000E+01 0.  1.
         -5    1    4    4    0  501 -0.43980512570E+02 -0.70065349297E+02  0.65727403878E+02  0.10574026044E+03  0.41800000000E+01 0.  1.
</event>
<event>
11    1  0.1002087E-008  0.1569213E+03  0.7561462E-02  0.1090009E+00
         22   -1    0    0    0    0  0.00000000000E+00  0.00000000000E+00  0.26223065008E+04  0.26223065008E+04  0.00000000000E+00 0.  1.
         22   -1    0    0    0    0 -0.00000000000E+00 -0.00000000000E+00 -0.42746346954E+03  0.42746346954E+03  0.00000000000E+00 0.  1.
         24    2    1    2    0    0  0.68898983810E+02  0.69257952982E+02 -0.39624008287E+03  0.41625803590E+03  0.81980577930E+02 0.  0.
         25    2    1    2    0    0 -0.38801640290E+02 -0.58345681309E+01  0.19462083851E+03  0.23465690931E+03  0.12508790841E+03 0.  0.
        -24    2    1    2    0    0 -0.30097343521E+02 -0.63423384851E+02  0.23964622756E+04  0.23988550251E+04  0.80904988968E+02 0.  0.
        -11    1    3    3    0    0 -0.64903114950E+01  0.27765235832E+02 -0.19941804553E+03  0.20144624431E+03  0.00000000000E+00 0.  1.
         12    1    3    3    0    0  0.75389295305E+02  0.41492717150E+02 -0.19682203734E+03  0.21481179159E+03  0.00000000000E+00 0. -1.
         11    1    5    5    0    0 -0.47137136135E+01 -0.18749691893E+02  0.10191485629E+03  0.10373238634E+03  0.00000000000E+00 0. -1.
        -12    1    5    5    0    0 -0.25383629907E+02 -0.44673692958E+02  0.22945474193E+04  0.22951226388E+04  0.00000000000E+00 0.  1.
          5    1    4    4  501    0 -0.46423495856E+02 -0.59132213642E+02  0.93771752259E+02  0.12025960909E+03  0.41800000000E+01 0. -1.
         -5    1    4    4    0  501  0.76218555668E+01  0.53297645511E+02  0.10084908625E+03  0.11439730022E+03  0.41800000000E+01 0. -1.
</event>
<event>
11    1  0.1002087E-008  0.1456522E+03  0.7561462E-02  0.1101406E+00
         22   -1    0    0    0    0  0.00000000000E+00  0.00000000000E+00  0.13573055698E+04  0.13573055698E+04  0.00000000000E+00 0.  1.
         22   -1    0    0    0    0 -0.00000000000E+00 -0.00000000000E+00 -0.15029028864E+04  0.15029028864E+04  0.00000000000E+00 0. -1.
        -24    2    1    2    0    0  0.29948047303E+01  0.50198055336E+01 -0.13998873434E+04  0.14024541337E+04  0.84610020022E+02 0.  0.
         25    2    1    2    0    0  0.69493364945E+02 -0.22877817582E+02 -0.46646680878E+02  0.15223491425E+03  0.12508730540E+03 0.  0.
         24    2    1    2    0    0 -0.72488169675E+02  0.17858012048E+02  0.13009367078E+04  0.13055194083E+04  0.79819573971E+02 0.  0.
        -13    1    5    5    0    0 -0.17909687074E+02 -0.25153482227E+02  0.68111279029E+03  0.68181235516E+03  0.00000000000E+00 0.  1.
         14    1    5    5    0    0 -0.54578482601E+02  0.43011494276E+02  0.61982391749E+03  0.62370705311E+03  0.00000000000E+00 0. -1.
         11    1    3    3    0    0 -0.42307113452E+01  0.17320403622E+02 -0.13595771241E+04  0.13596940287E+04  0.00000000000E+00 0. -1.
        -12    1    3    3    0    0  0.72255160755E+01 -0.12300598089E+02 -0.40310219313E+02  0.42760104969E+02  0.00000000000E+00 0.  1.
          5    1    4    4  501    0  0.45416484753E+02  0.73883619710E+01 -0.85543979060E+02  0.97223915440E+02  0.41800000000E+01 0.  1.
         -5    1    4    4    0  501  0.24076880191E+02 -0.30266179553E+02  0.38897298182E+02  0.55010998812E+02  0.41800000000E+01 0.  1.
</event>
<event>
11    1  0.1002087E-008  0.2276812E+03  0.7561462E-02  0.1036510E+00
         22   -1    0    0    0    0  0.00000000000E+00  0.00000000000E+00  0.19058418567E+03  0.19058418567E+03  0.00000000000E+00 0.  1.
         22   -1    0    0    0    0 -0.00000000000E+00 -0.00000000000E+00 -0.77080568132E+03  0.77080568132E+03  0.00000000000E+00 0. -1.
         24    2    1    2    0    0  0.20015902555E+03 -0.99296581591E+02 -0.48554483978E+03  0.54077922917E+03  0.82249234879E+02 0.  0.
         25    2    1    2    0    0 -0.14709141334E+03 -0.66162450690E+02 -0.10394019742E+03  0.22906229184E+03  0.12511041180E+03 0.  0.
        -24    2    1    2    0    0 -0.53067612213E+02  0.16545903228E+03  0.92635415583E+01  0.19154834599E+03  0.80075544447E+02 0.  0.
        -11    1    3    3    0    0  0.34549598302E+02  0.60209722272E+01 -0.35991572226E+02  0.50252563325E+02  0.00000000000E+00 0.  1.
         12    1    3    3    0    0  0.16560942725E+03 -0.10531755382E+03 -0.44955326756E+03  0.49052666585E+03  0.00000000000E+00 0. -1.
         13    1    5    5    0    0 -0.30075020396E+02  0.11018870348E+03 -0.32268184438E+02  0.11868990249E+03  0.00000000000E+00 0. -1.
        -14    1    5    5    0    0 -0.22992591817E+02  0.55270328797E+02  0.41531725996E+02  0.72858443492E+02  0.00000000000E+00 0.  1.
          5    1    4    4  501    0 -0.25683355657E+02 -0.98635914912E+01  0.29133514250E+02  0.40288450547E+02  0.41800000000E+01 0.  1.
         -5    1    4    4    0  501 -0.12140805768E+03 -0.56298859199E+02 -0.13307371167E+03  0.18877384129E+03  0.41800000000E+01 0.  1.
</event>
<event>
11    1  0.1002087E-008  0.1688955E+03  0.7561462E-02  0.1078997E+00
         22   -1    0    0    0    0  0.00000000000E+00  0.00000000000E+00  0.10841886890E+03  0.10841886890E+03  0.00000000000E+00 0.  1.
         22   -1    0    0    0    0 -0.00000000000E+00 -0.00000000000E+00 -0.10232061580E+04  0.10232061580E+04  0.00000000000E+00 0. -1.
        -24    2    1    2    0    0  0.56208819492E+02  0.60695615039E+02 -0.39916366244E+03  0.41537520497E+03  0.79759277951E+02 0.  0.
         25    2    1    2    0    0  0.49376995260E+02 -0.10781921713E+03 -0.54822933336E+03  0.57468733539E+03  0.12508820987E+03 0.  0.
         24    2    1    2    0    0 -0.10558581475E+03  0.47123602088E+02  0.32605706716E+02  0.14156248653E+03  0.74885294491E+02 0.  0.
        -13    1    5    5    0    0 -0.34361513009E+02 -0.88326864745E+01  0.36501530296E+02  0.50902766532E+02  0.00000000000E+00 0.  1.
         14    1    5    5    0    0 -0.71224301743E+02  0.55956288562E+02 -0.38958235803E+01  0.90659719996E+02  0.00000000000E+00 0. -1.
         13    1    3    3    0    0  0.55334003935E+02  0.18844229795E+01 -0.21697034093E+03  0.22392304903E+03  0.00000000000E+00 0. -1.
        -14    1    3    3    0    0  0.87481555666E+00  0.58811192060E+02 -0.18219332151E+03  0.19145215594E+03  0.00000000000E+00 0.  1.
          5    1    4    4  501    0 -0.26013076762E+02 -0.41255988770E+02 -0.33887393416E+03  0.34239122714E+03  0.41800000000E+01 0. -1.
         -5    1    4    4    0  501  0.75390072022E+02 -0.66563228357E+02 -0.20935539921E+03  0.23229610825E+03  0.41800000000E+01 0. -1.
</event>
<event>
11    1  0.1002087E-008  0.1539580E+03  0.7561462E-02  0.1092902E+00
         22   -1    0    0    0    0  0.00000000000E+00  0.00000000000E+00  0.47178393540E+03  0.47178393540E+03  0.00000000000E+00 0.  1.
         22   -1    0    0    0    0 -0.00000000000E+00 -0.00000000000E+00 -0.67078210753E+03  0.67078210753E+03  0.00000000000E+00 0.  1.
        -24    2    1    2    0    0  0.23669923445E+02 -0.92545112891E+02 -0.50426889767E+03  0.51939626783E+03  0.79752734680E+02 0.  0.
         25    2    1    2    0    0 -0.12960076401E+02  0.63969198650E+02 -0.12254453124E+03  0.18688237806E+03  0.12509132319E+03 0.  0.
         24    2    1    2    0    0 -0.10709847044E+02  0.28575914241E+02  0.42781525677E+03  0.43628739704E+03  0.79934443055E+02 0.  0.
        -11    1    5    5    0    0 -0.37012258013E+02  0.19746927619E+02  0.36762085010E+03  0.37000667267E+03  0.00000000000E+00 0.  1.
         12    1    5    5    0    0  0.26302410969E+02  0.88289866218E+01  0.60194406677E+02  0.66280724368E+02  0.00000000000E+00 0. -1.
         11    1    3    3    0    0  0.10782880316E+02 -0.25259854092E+02 -0.31939389820E+02  0.42124284667E+02  0.00000000000E+00 0. -1.
        -12    1    3    3    0    0  0.12887043129E+02 -0.67285258799E+02 -0.47232950785E+03  0.47727198316E+03  0.00000000000E+00 0.  1.
          5    1    4    4  501    0 -0.36154666885E+02  0.77864397173E+02 -0.31053692867E+02  0.91388339111E+02  0.41800000000E+01 0. -1.
         -5    1    4    4    0  501  0.23194590484E+02 -0.13895198523E+02 -0.91490838371E+02  0.95494038953E+02  0.41800000000E+01 0. -1.
</event>
<event>
11    1  0.1002087E-008  0.1306843E+03  0.7561462E-02  0.1118431E+00
         22   -1    0    0    0    0  0.00000000000E+00  0.00000000000E+00  0.12617238113E+04  0.12617238113E+04  0.00000000000E+00 0.  1.
         22   -1    0    0    0    0 -0.00000000000E+00 -0.00000000000E+00 -0.37884409147E+03  0.37884409147E+03  0.00000000000E+00 0. -1.
        -24    2    1    2    0    0  0.53825192985E+02  0.29074428735E+02 -0.33989483503E+03  0.35447806121E+03  0.79898205197E+02 0.  0.
         25    2    1    2    0    0 -0.85031204228E+02 -0.39085756619E+02  0.18136913292E+03  0.23937473834E+03  0.12508997128E+03 0.  0.
         24    2    1    2    0    0  0.31206011244E+02  0.10011327885E+02  0.10414054219E+04  0.10467151032E+04  0.10006604138E+03 0.  0.
        -13    1    5    5    0    0  0.63614635238E+02  0.26336256848E+02  0.65429624959E+03  0.65790881014E+03  0.00000000000E+00 0.  1.
         14    1    5    5    0    0 -0.32408623995E+02 -0.16324928963E+02  0.38710917231E+03  0.38880629303E+03  0.00000000000E+00 0. -1.
         11    1    3    3    0    0  0.53229562330E+02 -0.11027406164E+02 -0.25300303282E+03  0.25877697852E+03  0.00000000000E+00 0. -1.
        -12    1    3    3    0    0  0.59563065469E+00  0.40101834898E+02 -0.86891802209E+02  0.95701082697E+02  0.00000000000E+00 0.  1.
          5    1    4    4  501    0  0.21048304616E+02 -0.36416126569E+02  0.21430916416E+02  0.47391159302E+02  0.41800000000E+01 0. -1.
         -5    1    4    4    0  501 -0.10607950884E+03 -0.26696300504E+01  0.15993821650E+03  0.19198357904E+03  0.41800000000E+01 0. -1.
</event>
<event>
11    1  0.1002087E-008  0.1638147E+03  0.7561462E-02  0.1083543E+00
         22   -1    0    0    0    0  0.00000000000E+00  0.00000000000E+00  0.11474049467E+04  0.11474049467E+04  0.00000000000E+00 0.  1.
         22   -1    0    0    0    0 -0.00000000000E+00 -0.00000000000E+00 -0.11969987603E+04  0.11969987603E+04  0.00000000000E+00 0. -1.
         24    2    1    2    0    0 -0.83658906475E+02  0.54025698532E+02 -0.92258537778E+03  0.93141007836E+03  0.80270580188E+02 0.  0.
         25    2    1    2    0    0  0.13682957994E+03 -0.82470217100E+02 -0.22907736661E+03  0.30601909261E+03  0.12509026538E+03 0.  0.
        -24    2    1    2    0    0 -0.53170673462E+02  0.28444518568E+02  0.11020689308E+04  0.11069745360E+04  0.84855665956E+02 0.  0.
        -11    1    3    3    0    0 -0.30724314784E+02  0.95526516434E+01 -0.83552567494E+02  0.89533614957E+02  0.00000000000E+00 0.  1.
         12    1    3    3    0    0 -0.52934591691E+02  0.44473046889E+02 -0.83903281029E+03  0.84187646341E+03  0.00000000000E+00 0. -1.
         13    1    5    5    0    0 -0.44594537239E+02 -0.23412153215E+02  0.45675755107E+03  0.45952612779E+03  0.00000000000E+00 0. -1.
        -14    1    5    5    0    0 -0.85761362233E+01  0.51856671783E+02  0.64531137972E+03  0.64744840822E+03  0.00000000000E+00 0.  1.
          5    1    4    4  501    0  0.51793310317E+02 -0.88043670057E+02 -0.18154439878E+03  0.20835084823E+03  0.41800000000E+01 0. -1.
         -5    1    4    4    0  501  0.85036269620E+02  0.55734529563E+01 -0.47532967835E+02  0.97668244378E+02  0.41800000000E+01 0. -1.
</event>
<event>
11    1  0.2265445E-008  0.1843193E+03  0.7561462E-02  0.1066202E+00
         22   -1    0    0    0    0  0.00000000000E+00  0.00000000000E+00  0.18111055278E+04  0.18111055278E+04  0.00000000000E+00 0.  1.
         22   -1    0    0    0    0 -0.00000000000E+00 -0.00000000000E+00 -0.13742137959E+04  0.13742137959E+04  0.00000000000E+00 0. -1.
        -24    2    1    2    0    0  0.48963903883E+02 -0.31181740653E+02 -0.11668700485E+04  0.11723790608E+04  0.97556072974E+02 0.  0.
         25    2    1    2    0    0  0.85902582187E+02  0.11587309378E+02 -0.17228239152E+03  0.22987401057E+03  0.12508924392E+03 0.  0.
         24    2    1    2    0    0 -0.13486648607E+03  0.19594431275E+02  0.17760441719E+04  0.17830662523E+04  0.80121463304E+02 0.  0.
        -13    1    5    5    0    0 -0.14104791366E+03  0.30330429482E+02  0.15561885828E+04  0.15628619114E+04  0.00000000000E+00 0.  1.
         14    1    5    5    0    0  0.61814275892E+01 -0.10735998206E+02  0.21985558908E+03  0.22020434091E+03  0.00000000000E+00 0. -1.
         13    1    3    3    0    0  0.78202899834E+01 -0.53865647916E+02 -0.88048250504E+03  0.88216331064E+03  0.00000000000E+00 0. -1.
        -14    1    3    3    0    0  0.41143613900E+02  0.22683907263E+02 -0.28638754342E+03  0.29021575016E+03  0.00000000000E+00 0.  1.
          5    1    4    4  501    0  0.54600563647E+02 -0.51524406232E+02 -0.12167461157E+03  0.14303205756E+03  0.41800000000E+01 0. -1.
         -5    1    4    4    0  501  0.31302018540E+02  0.63111715610E+02 -0.50607779943E+02  0.86841953010E+02  0.41800000000E+01 0. -1.
</event>
<event>
11    1  0.1002087E-008  0.1344194E+03  0.7561462E-02  0.1113955E+00
         22   -1    0    0    0    0  0.00000000000E+00  0.00000000000E+00  0.40399545729E+03  0.40399545729E+03  0.00000000000E+00 0.  1.
         22   -1    0    0    0    0 -0.00000000000E+00 -0.00000000000E+00 -0.62022474602E+03  0.62022474602E+03  0.00000000000E+00 0.  1.
         24    2    1    2    0    0 -0.26127494110E+02 -0.15631613673E+02 -0.57718984154E+03  0.58344281197E+03  0.79563863495E+02 0.  0.
         25    2    1    2    0    0 -0.15861952948E+02 -0.20579838543E+02  0.97576020533E+02  0.16075867190E+03  0.12508852666E+03 0.  0.
        -24    2    1    2    0    0  0.41989447058E+02  0.36211452216E+02  0.26338453227E+03  0.28001871944E+03  0.77231395595E+02 0.  0.
        -13    1    3    3    0    0  0.14514670386E+02  0.24241238264E+02 -0.19249434622E+03  0.19455689815E+03  0.00000000000E+00 0.  1.
         14    1    3    3    0    0 -0.40642164496E+02 -0.39872851937E+02 -0.38469549531E+03  0.38888591383E+03  0.00000000000E+00 0. -1.
         11    1    5    5    0    0 -0.40819770136E+01  0.15214417559E+02  0.47183290269E+01  0.16443955327E+02  0.00000000000E+00 0. -1.
        -12    1    5    5    0    0  0.46071424071E+02  0.20997034657E+02  0.25866620324E+03  0.26357476412E+03  0.00000000000E+00 0.  1.
          5    1    4    4  501    0 -0.59228613164E+02 -0.39492872568E+02  0.86286001635E+02  0.11193954654E+03  0.41800000000E+01 0.  1.
         -5    1    4    4    0  501  0.43366660216E+02  0.18913034025E+02  0.11290018898E+02  0.48819125361E+02  0.41800000000E+01 0.  1.
</event>
<event>
11    1  0.1002087E-008  0.2258153E+03  0.7561462E-02  0.1037635E+00
         22   -1    0    0    0    0  0.00000000000E+00  0.00000000000E+00  0.53152162248E+03  0.53152162248E+03  0.00000000000E+00 0. -1.
         22   -1    0    0    0    0 -0.00000000000E+00 -0.00000000000E+00 -0.48521906323E+03  0.48521906323E+03  0.00000000000E+00 0. -1.
        -24    2    1    2    0    0 -0.79697671973E+02 -0.14078565338E+03 -0.17406688399E+03  0.25132174542E+03  0.81798658327E+02 0.  0.
         25    2    1    2    0    0  0.81763122128E+02  0.22025652897E+03 -0.19860099018E+03  0.33209663499E+03  0.12509066703E+03 0.  0.
         24    2    1    2    0    0 -0.20654501547E+01 -0.79470875591E+02  0.41897043343E+03  0.43332230530E+03  0.76890246643E+02 0.  0.
        -11    1    5    5    0    0 -0.35930682505E+02 -0.27413244652E+02  0.12649331560E+03  0.13432445354E+03  0.00000000000E+00 0.  1.
         12    1    5    5    0    0  0.33865232351E+02 -0.52057630939E+02  0.29247711783E+03  0.29899785175E+03  0.00000000000E+00 0. -1.
         13    1    3    3    0    0 -0.29175742517E+02 -0.12497585479E+03 -0.12212948632E+03  0.17716037836E+03  0.00000000000E+00 0. -1.
        -14    1    3    3    0    0 -0.50521929456E+02 -0.15809798587E+02 -0.51937397675E+02  0.74161367062E+02  0.00000000000E+00 0.  1.
          5    1    4    4  501    0 -0.32555053422E+02  0.49243512310E+02 -0.31497046540E+02  0.67039476047E+02  0.41800000000E+01 0. -1.
         -5    1    4    4    0  501  0.11431817555E+03  0.17101301666E+03 -0.16710394364E+03  0.26505715894E+03  0.41800000000E+01 0. -1.
</event>
<event>
11    1  0.1002087E-008  0.1350218E+03  0.7561462E-02  0.1113248E+00
         22   -1    0    0    0    0  0.00000000000E+00  0.00000000000E+00  0.25919939999E+03  0.25919939999E+03  0.00000000000E+00 0.  1.
         22   -1    0    0    0    0 -0.00000000000E+00 -0.00000000000E+00 -0.30286329182E+03  0.30286329182E+03  0.00000000000E+00 0. -1.
        -24    2    1    2    0    0 -0.19473509529E+02 -0.23519059158E+02 -0.19957746703E+03  0.21730138639E+03  0.80351499441E+02 0.  0.
         25    2    1    2    0    0 -0.31518749107E+02  0.35523956444E+02 -0.28851316862E+02  0.13687358803E+03  0.12508636052E+03 0.  0.
         24    2    1    2    0    0  0.50992258636E+02 -0.12004897286E+02  0.18476489207E+03  0.20788771739E+03  0.79592145981E+02 0.  0.
        -11    1    5    5    0    0  0.21535945574E+02  0.85066412305E+01  0.16557406021E+03  0.16718531428E+03  0.00000000000E+00 0.  1.
         12    1    5    5    0    0  0.29456313062E+02 -0.20511538517E+02  0.19190831855E+02  0.40702403109E+02  0.00000000000E+00 0. -1.
         11    1    3    3    0    0  0.26748283267E+02 -0.26859007111E+02 -0.11164523552E+03  0.11790477316E+03  0.00000000000E+00 0. -1.
        -12    1    3    3    0    0 -0.46221792796E+02  0.33399479539E+01 -0.87932231512E+02  0.99396613224E+02  0.00000000000E+00 0.  1.
          5    1    4    4  501    0 -0.23884041392E+02  0.33612094192E+02  0.45756095437E+02  0.61735832212E+02  0.41800000000E+01 0.  1.
         -5    1    4    4    0  501 -0.76347077146E+01  0.19118622518E+01 -0.74607412300E+02  0.75137755817E+02  0.41800000000E+01 0.  1.
</event>
<event>
11    1  0.1002087E-008  0.1451908E+03  0.7561462E-02  0.1101897E+00
         22   -1    0    0    0    0  0.00000000000E+00  0.00000000000E+00  0.17635905769E+03  0.17635905769E+03  0.00000000000E+00 0.  1.
         22   -1    0    0    0    0 -0.00000000000E+00 -0.00000000000E+00 -0.89006988680E+03  0.89006988680E+03  0.00000000000E+00 0. -1.
         24    2    1    2    0    0  0.34572565621E+02  0.62255311555E+01 -0.73567694025E+03  0.74094593179E+03  0.80909170577E+02 0.  0.
         25    2    1    2    0    0  0.44604765110E+02 -0.35005732472E+00 -0.92342163160E+02  0.16175356352E+03  0.12508969823E+03 0.  0.
        -24    2    1    2    0    0 -0.79177330731E+02 -0.58754738308E+01  0.11430827430E+03  0.16372944919E+03  0.86240246193E+02 0.  0.
        -11    1    3    3    0    0 -0.14489986759E+00  0.39071497438E+02 -0.26797306198E+03  0.27080650815E+03  0.00000000000E+00 0.  1.
         12    1    3    3    0    0  0.34717465488E+02 -0.32845966282E+02 -0.46770387827E+03  0.47013942364E+03  0.00000000000E+00 0. -1.
         13    1    5    5    0    0 -0.13189873404E+02  0.26563615722E+02  0.23059815325E+01  0.29747537570E+02  0.00000000000E+00 0. -1.
        -14    1    5    5    0    0 -0.65987457327E+02 -0.32439089553E+02  0.11200229277E+03  0.13398191162E+03  0.00000000000E+00 0.  1.
          5    1    4    4  501    0  0.13014157909E+02 -0.59869856169E+02 -0.63500464613E+02  0.88337700841E+02  0.41800000000E+01 0.  1.
         -5    1    4    4    0  501  0.31590607201E+02  0.59519798844E+02 -0.28841698547E+02  0.73415862679E+02  0.41800000000E+01 0.  1.
</event>
<event>
11    1  0.1002087E-008  0.2315675E+03  0.7561462E-02  0.1034204E+00
         22   -1    0    0    0    0  0.00000000000E+00  0.00000000000E+00  0.88401535104E+03  0.88401535104E+03  0.00000000000E+00 0.  1.
         22   -1    0    0    0    0 -0.00000000000E+00 -0.00000000000E+00 -0.56899579625E+03  0.56899579625E+03  0.00000000000E+00 0.  1.
         24    2    1    2    0    0  0.13609565824E+03  0.14065935209E+03 -0.52284364196E+03  0.56499913014E+03  0.86899146137E+02 0.  0.
         25    2    1    2    0    0 -0.11798280731E+03 -0.12250444572E+03  0.59964249058E+03  0.63572424548E+03  0.12508764023E+03 0.  0.
        -24    2    1    2    0    0 -0.18112850932E+02 -0.18154906374E+02  0.23822070617E+03  0.25228777167E+03  0.79008473552E+02 0.  0.
        -11    1    3    3    0    0  0.14216526782E+03  0.14066652686E+03 -0.45661602273E+03  0.49849395921E+03  0.00000000000E+00 0.  1.
         12    1    3    3    0    0 -0.60696095805E+01 -0.71747690732E-02 -0.66227619224E+02  0.66505170927E+02  0.00000000000E+00 0. -1.
         11    1    5    5    0    0 -0.30667947570E+02  0.12495403843E+02  0.19522324015E+03  0.19801204918E+03  0.00000000000E+00 0. -1.
        -12    1    5    5    0    0  0.12555096638E+02 -0.30650310217E+02  0.42997466017E+02  0.54275722491E+02  0.00000000000E+00 0.  1.
          5    1    4    4  501    0 -0.14497258984E+02 -0.73938378970E+02  0.38677247771E+03  0.39406531986E+03  0.41800000000E+01 0.  1.
         -5    1    4    4    0  501 -0.10348554833E+03 -0.48566066745E+02  0.21287001288E+03  0.24165892562E+03  0.41800000000E+01 0.  1.
</event>
<event>
11    1  0.1002087E-008  0.1566113E+03  0.7561462E-02  0.1090309E+00
         22   -1    0    0    0    0  0.00000000000E+00  0.00000000000E+00  0.21369937424E+03  0.21369937424E+03  0.00000000000E+00 0.  1.
         22   -1    0    0    0    0 -0.00000000000E+00 -0.00000000000E+00 -0.39099585030E+03  0.39099585030E+03  0.00000000000E+00 0.  1.
        -24    2    1    2    0    0  0.15981904947E+01 -0.30519314263E+02 -0.19178163155E+03  0.21017448600E+03  0.80368760146E+02 0.  0.
         25    2    1    2    0    0  0.56963282701E+02 -0.47359366278E+02 -0.13389436393E+03  0.19764430504E+03  0.12509134851E+03 0.  0.
         24    2    1    2    0    0 -0.58561473196E+02  0.77878680541E+02  0.14837951943E+03  0.19687643351E+03  0.85142899057E+02 0.  0.
        -13    1    5    5    0    0 -0.53933429555E+02  0.51788040354E+02  0.15270448293E+03  0.17002786553E+03  0.00000000000E+00 0.  1.
         14    1    5    5    0    0 -0.46280436408E+01  0.26090640187E+02 -0.43249635076E+01  0.26848567982E+02  0.00000000000E+00 0. -1.
         13    1    3    3    0    0  0.10829587718E+02 -0.49275085595E+02 -0.68173830226E+02  0.84811468318E+02  0.00000000000E+00 0. -1.
        -14    1    3    3    0    0 -0.92313972233E+01  0.18755771332E+02 -0.12360780133E+03  0.12536301768E+03  0.00000000000E+00 0.  1.
          5    1    4    4  501    0 -0.88168618007E+01  0.18854588348E+02  0.12009275534E+02  0.24391138814E+02  0.41800000000E+01 0. -1.
         -5    1    4    4    0  501  0.65780144502E+02 -0.66213954627E+02 -0.14590363946E+03  0.17325316622E+03  0.41800000000E+01 0. -1.
</event>
<event>
11    1  0.1002087E-008  0.2184832E+03  0.7561462E-02  0.1042172E+00
         22   -1    0    0    0    0  0.00000000000E+00  0.00000000000E+00  0.39091491698E+03  0.39091491698E+03  0.00000000000E+00 0. -1.
         22   -1    0    0    0    0 -0.00000000000E+00 -0.00000000000E+00 -0.15254267011E+04  0.15254267011E+04  0.00000000000E+00 0. -1.
        -24    2    1    2    0    0 -0.43915875086E+02 -0.48521298602E+02 -0.13788280516E+04  0.13829023661E+04  0.83481961263E+02 0.  0.
         25    2    1    2    0    0 -0.94819636161E+02 -0.88885543818E+02 -0.34136489025E+02  0.18358739274E+03  0.12509047762E+03 0.  0.
         24    2    1    2    0    0  0.13873551125E+03  0.13740684242E+03  0.27845275650E+03  0.34985185921E+03  0.82050005263E+02 0.  0.
        -13    1    5    5    0    0 -0.78862487832E+01  0.17881413373E+02  0.11518881224E+02  0.22685292344E+02  0.00000000000E+00 0.  1.
         14    1    5    5    0    0  0.14662176003E+03  0.11952542905E+03  0.26693387528E+03  0.32716656687E+03  0.00000000000E+00 0. -1.
         13    1    3    3    0    0 -0.52556376561E+02 -0.47667284206E+02 -0.13630304429E+04  0.13648759398E+04  0.00000000000E+00 0. -1.
        -14    1    3    3    0    0  0.86405014748E+01 -0.85401439585E+00 -0.15797608680E+02  0.18026426333E+02  0.00000000000E+00 0.  1.
          5    1    4    4  501    0  0.23788076363E+02 -0.31707284110E+02 -0.33157164310E+02  0.51846835851E+02  0.41800000000E+01 0. -1.
         -5    1    4    4    0  501 -0.11860771252E+03 -0.57178259708E+02 -0.97932471442E+00  0.13174055689E+03  0.41800000000E+01 0. -1.
</event>
<event>
11    1  0.1002087E-008  0.1466391E+03  0.7561462E-02  0.1100363E+00
         22   -1    0    0    0    0  0.00000000000E+00  0.00000000000E+00  0.97684003078E+03  0.97684003078E+03  0.00000000000E+00 0.  1.
         22   -1    0    0    0    0 -0.00000000000E+00 -0.00000000000E+00 -0.76912164668E+02  0.76912164668E+02  0.00000000000E+00 0.  1.
        -24    2    1    2    0    0  0.37492105554E+02 -0.39948318914E+02  0.31531507486E+02  0.10154815640E+03  0.79474939078E+02 0.  0.
         25    2    1    2    0    0 -0.10565440119E+03  0.62547010625E+02  0.16512781563E+03  0.24081035432E+03  0.12508976867E+03 0.  0.
         24    2    1    2    0    0  0.68162295633E+02 -0.22598691711E+02  0.70326854300E+03  0.71139368472E+03  0.79608615601E+02 0.  0.
        -13    1    5    5    0    0  0.70827017257E+02  0.94097476598E+01  0.39071971740E+03  0.39719882589E+03  0.00000000000E+00 0.  1.
         14    1    5    5    0    0 -0.26647216248E+01 -0.32008439371E+02  0.31254882559E+03  0.31419485883E+03  0.00000000000E+00 0. -1.
         11    1    3    3    0    0  0.26089274866E+02  0.15145556012E+02 -0.98198222029E+01  0.31724864665E+02  0.00000000000E+00 0. -1.
        -12    1    3    3    0    0  0.11402830688E+02 -0.55093874926E+02  0.41351329689E+02  0.69823291738E+02  0.00000000000E+00 0.  1.
          5    1    4    4  501    0 -0.32580567338E+02 -0.27980702473E+02  0.58803687728E+01  0.43548412323E+02  0.41800000000E+01 0.  1.
         -5    1    4    4    0  501 -0.73073833848E+02  0.90527713098E+02  0.15924744685E+03  0.19726194200E+03  0.41800000000E+01 0.  1.
</event>
<event>
11    1  0.1002087E-008  0.1560348E+03  0.7561462E-02  0.1090867E+00
         22   -1    0    0    0    0  0.00000000000E+00  0.00000000000E+00  0.58573183395E+03  0.58573183395E+03  0.00000000000E+00 0.  1.
         22   -1    0    0    0    0 -0.00000000000E+00 -0.00000000000E+00 -0.11879415549E+03  0.11879415549E+03  0.00000000000E+00 0.  1.
         24    2    1    2    0    0 -0.88697996337E+02  0.12879999999E+01 -0.38636880759E+02  0.12587230140E+03  0.80511081263E+02 0.  0.
         25    2    1    2    0    0  0.11954433316E+03 -0.21876725856E+02  0.22780724502E+03  0.28690389440E+03  0.12509302545E+03 0.  0.
        -24    2    1    2    0    0 -0.30846336827E+02  0.20588725857E+02  0.27776731420E+03  0.29174979364E+03  0.81165689326E+02 0.  0.
        -13    1    3    3    0    0 -0.86314210913E+02  0.29626844470E+02 -0.27255857278E+02  0.95240614629E+02  0.00000000000E+00 0.  1.
         14    1    3    3    0    0 -0.23837854237E+01 -0.28338844470E+02 -0.11381023481E+02  0.30631686770E+02  0.00000000000E+00 0. -1.
         11    1    5    5    0    0 -0.33247367951E+02  0.44243765119E+01  0.35157570451E+02  0.48590300917E+02  0.00000000000E+00 0. -1.
        -12    1    5    5    0    0  0.24010311237E+01  0.16164349345E+02  0.24260974374E+03  0.24315949272E+03  0.00000000000E+00 0.  1.
          5    1    4    4  501    0  0.46022296300E+01  0.35413984064E+02  0.16423907797E+02  0.39529077047E+02  0.41800000000E+01 0.  1.
         -5    1    4    4    0  501  0.11494210353E+03 -0.57290709921E+02  0.21138333722E+03  0.24737481736E+03  0.41800000000E+01 0.  1.
</event>
<event>
11    1  0.1002087E-008  0.1351394E+03  0.7561462E-02  0.1113111E+00
         22   -1    0    0    0    0  0.00000000000E+00  0.00000000000E+00  0.72508694982E+03  0.72508694982E+03  0.00000000000E+00 0. -1.
         22   -1    0    0    0    0 -0.00000000000E+00 -0.00000000000E+00 -0.68158792342E+03  0.68158792342E+03  0.00000000000E+00 0.  1.
        -24    2    1    2    0    0 -0.51275446534E+02  0.39102615854E+01 -0.62647190375E+03  0.63392863098E+03  0.82182731881E+02 0.  0.
         25    2    1    2    0    0  0.45295374995E+02  0.18247376609E+02  0.44076995174E+02  0.14133380667E+03  0.12509126930E+03 0.  0.
         24    2    1    2    0    0  0.59800715392E+01 -0.22157638194E+02  0.62589393498E+03  0.63141243560E+03  0.80073240183E+02 0.  0.
        -13    1    5    5    0    0  0.40922830919E+02 -0.12526406373E+02  0.23700480106E+03  0.24083783895E+03  0.00000000000E+00 0.  1.
         14    1    5    5    0    0 -0.34942759380E+02 -0.96312318211E+01  0.38888913392E+03  0.39057459664E+03  0.00000000000E+00 0. -1.
         13    1    3    3    0    0 -0.71996865036E+02  0.49339972509E+01 -0.54916109188E+03  0.55388247647E+03  0.00000000000E+00 0. -1.
        -14    1    3    3    0    0  0.20721418501E+02 -0.10237356656E+01 -0.77310811876E+02  0.80046154513E+02  0.00000000000E+00 0.  1.
          5    1    4    4  501    0  0.71538477035E+02  0.26260427773E+02 -0.13416746045E+02  0.77490936487E+02  0.41800000000E+01 0. -1.
         -5    1    4    4    0  501 -0.26243102040E+02 -0.80130511635E+01  0.57493741218E+02  0.63842870180E+02  0.41800000000E+01 0. -1.
</event>
<event>
11    1  0.1002087E-008  0.1596838E+03  0.7561462E-02  0.1087375E+00
         22   -1    0    0    0    0  0.00000000000E+00  0.00000000000E+00  0.64411495408E+03  0.64411495408E+03  0.00000000000E+00 0.  1.
         22   -1    0    0    0    0 -0.00000000000E+00 -0.00000000000E+00 -0.60410236112E+03  0.60410236112E+03  0.00000000000E+00 0. -1.
         24    2    1    2    0    0  0.97816913102E+01 -0.12876953081E+02 -0.55064939133E+03  0.55677400322E+03  0.80752963293E+02 0.  0.
         25    2    1    2    0    0 -0.10711682494E+03  0.32671778343E+01  0.12004762324E+03  0.20381718490E+03  0.12508127111E+03 0.  0.
        -24    2    1    2    0    0  0.97335133626E+02  0.96097752471E+01  0.47061436105E+03  0.48762612707E+03  0.82066357023E+02 0.  0.
        -11    1    3    3    0    0 -0.81510122815E+01 -0.32334897250E+02 -0.10132611996E+03  0.10667224179E+03  0.00000000000E+00 0.  1.
         12    1    3    3    0    0  0.17932703592E+02  0.19457944168E+02 -0.44932327137E+03  0.45010176143E+03  0.00000000000E+00 0. -1.
         11    1    5    5    0    0  0.20142358452E+02  0.19780824361E+02  0.34322375608E+02  0.44441209298E+02  0.00000000000E+00 0. -1.
        -12    1    5    5    0    0  0.77192775174E+02 -0.10171049114E+02  0.43629198544E+03  0.44318491777E+03  0.00000000000E+00 0.  1.
          5    1    4    4  501    0  0.27730555316E+02  0.90377272874E+01  0.17631580955E+02  0.34336704263E+02  0.41800000000E+01 0. -1.
         -5    1    4    4    0  501 -0.13484738025E+03 -0.57705494530E+01  0.10241604228E+03  0.16948048064E+03  0.41800000000E+01 0. -1.
</event>
<event>
11    1  0.1002087E-008  0.1409273E+03  0.7561462E-02  0.1106527E+00
         22   -1    0    0    0    0  0.00000000000E+00  0.00000000000E+00  0.36207331806E+03  0.36207331806E+03  0.00000000000E+00 0.  1.
         22   -1    0    0    0    0 -0.00000000000E+00 -0.00000000000E+00 -0.37571758410E+03  0.37571758410E+03  0.00000000000E+00 0. -1.
         24    2    1    2    0    0  0.18012000039E+02 -0.60131155804E+02 -0.28718402781E+03  0.30413378654E+03  0.77990424072E+02 0.  0.
         25    2    1    2    0    0 -0.46016786100E+02  0.74425803291E+02  0.53540344499E+01  0.15274924252E+03  0.12508765170E+03 0.  0.
        -24    2    1    2    0    0  0.28004786061E+02 -0.14294647487E+02  0.26818572732E+03  0.28090787310E+03  0.77440582648E+02 0.  0.
        -11    1    3    3    0    0 -0.14737638975E+02  0.94959335927E+01 -0.22685160360E+02  0.28670320157E+02  0.00000000000E+00 0.  1.
         12    1    3    3    0    0  0.32749639014E+02 -0.69627089396E+02 -0.26449886745E+03  0.27546346639E+03  0.00000000000E+00 0. -1.
         13    1    5    5    0    0  0.26141486799E+01  0.21693760845E+02  0.22720592365E+02  0.31522664074E+02  0.00000000000E+00 0. -1.
        -14    1    5    5    0    0  0.25390637381E+02 -0.35988408332E+02  0.24546513495E+03  0.24938520902E+03  0.00000000000E+00 0.  1.
          5    1    4    4  501    0 -0.67699017895E+02  0.83661100598E+02  0.36274789900E+02  0.11364712737E+03  0.41800000000E+01 0. -1.
         -5    1    4    4    0  501  0.21682231795E+02 -0.92352973069E+01 -0.30920755450E+02  0.39102115155E+02  0.41800000000E+01 0. -1.
</event>
