<event>
11    1  0.8039394E-009  0.1508915E+03  0.7561462E-02  0.1095971E+00
         22   -1    0    0    0    0  0.00000000000E+00  0.00000000000E+00  0.27243849132E+04  0.27243849132E+04  0.00000000000E+00 0.  1.
         22   -1    0    0    0    0 -0.00000000000E+00 -0.00000000000E+00 -0.26309476721E+03  0.26309476721E+03  0.00000000000E+00 0.  1.
         24    2    1    2    0    0 -0.51834466233E+02  0.62972582505E+02 -0.17238406281E+03  0.20705911705E+03  0.80652680072E+02 0.  0.
         25    2    1    2    0    0  0.64427360611E+01  0.99982461608E+01 -0.17112451685E+02  0.12681453094E+03  0.12509042921E+03 0.  0.
        -24    2    1    2    0    0  0.45391730172E+02 -0.72970828666E+02  0.26507866605E+04  0.26536060324E+04  0.87005200251E+02 0.  0.
        -11    1    3    3    0    0 -0.38183422538E+01  0.21292097809E+02 -0.12727430629E+03  0.12909950507E+03  0.00000000000E+00 0.  1.
         12    1    3    3    0    0 -0.48016123979E+02  0.41680484696E+02 -0.45109756524E+02  0.77959611981E+02  0.00000000000E+00 0. -1.
         13    1    5    5    0    0  0.20533185704E+02  0.98162260610E+01  0.19918345980E+03  0.20047947692E+03  0.00000000000E+00 0. -1.
        -14    1    5    5    0    0  0.24858544468E+02 -0.82787054727E+02  0.24516032007E+04  0.24531265555E+04  0.00000000000E+00 0.  1.
          5    1    4    4  501    0  0.26406526361E+02 -0.19629346647E+02  0.44482047645E+02  0.55486402361E+02  0.41800000000E+01 0. -1.
         -5    1    4    4    0  501 -0.19963790300E+02  0.29627592807E+02 -0.61594499330E+02  0.71328128578E+02  0.41800000000E+01 0. -1.
</event>
<event>
11    1  0.8039394E-009  0.1315562E+03  0.7561462E-02  0.1117372E+00
         22   -1    0    0    0    0  0.00000000000E+00  0.00000000000E+00  0.42221207448E+03  0.42221207448E+03  0.00000000000E+00 0. -1.
         22   -1    0    0    0    0 -0.00000000000E+00 -0.00000000000E+00 -0.10578860720E+04  0.10578860720E+04  0.00000000000E+00 0.  1.
         24    2    1    2    0    0 -0.38985144965E+02  0.19954403921E+02 -0.73651719523E+03  0.74227235315E+03  0.81195120651E+02 0.  0.
         25    2    1    2    0    0  0.54695786587E+02 -0.56833888248E+02 -0.29559233724E+03  0.33053005505E+03  0.12511421795E+03 0.  0.
        -24    2    1    2    0    0 -0.15710641622E+02  0.36879484328E+02  0.39643553491E+03  0.40729573832E+03  0.84390547412E+02 0.  0.
        -11    1    3    3    0    0 -0.67789070623E+01  0.18914507750E+02 -0.64383396751E+03  0.64414741317E+03  0.00000000000E+00 0.  1.
         12    1    3    3    0    0 -0.32206237902E+02  0.10398961708E+01 -0.92683227719E+02  0.98124939971E+02  0.00000000000E+00 0. -1.
         13    1    5    5    0    0  0.10735986565E+02  0.14461924160E+02  0.34377995885E+03  0.34425146153E+03  0.00000000000E+00 0. -1.
        -14    1    5    5    0    0 -0.26446628187E+02  0.22417560168E+02  0.52655576061E+02  0.63044276795E+02  0.00000000000E+00 0.  1.
          5    1    4    4  501    0  0.26382581455E+02  0.38620933185E+02 -0.75236809909E+02  0.88688595938E+02  0.41800000000E+01 0. -1.
         -5    1    4    4    0  501  0.28313205132E+02 -0.95454821434E+02 -0.22035552733E+03  0.24184145911E+03  0.41800000000E+01 0. -1.
</event>
<event>
11    1  0.8039394E-009  0.1712885E+03  0.7561462E-02  0.1076916E+00
         22   -1    0    0    0    0  0.00000000000E+00  0.00000000000E+00  0.57030385541E+03  0.57030385541E+03  0.00000000000E+00 0.  1.
         22   -1    0    0    0    0 -0.00000000000E+00 -0.00000000000E+00 -0.11516609295E+03  0.11516609295E+03  0.00000000000E+00 0.  1.
         24    2    1    2    0    0 -0.66440048968E+01  0.70554876756E+02  0.26475073508E+02  0.11152445130E+03  0.81942908692E+02 0.  0.
         25    2    1    2    0    0  0.11723906804E+03 -0.91166432181E+02  0.10235988301E+03  0.21950185856E+03  0.12508877978E+03 0.  0.
        -24    2    1    2    0    0 -0.11059506315E+03  0.20611555424E+02  0.32630280594E+03  0.35444363851E+03  0.80626717084E+02 0.  0.
        -13    1    3    3    0    0 -0.36344918692E+02  0.28314894070E+02 -0.11429172223E+02  0.47469066965E+02  0.00000000000E+00 0.  1.
         14    1    3    3    0    0  0.29700913795E+02  0.42239982687E+02  0.37904245731E+02  0.64055384333E+02  0.00000000000E+00 0. -1.
         13    1    5    5    0    0 -0.89432267849E+02  0.42588020022E+02  0.29293993910E+03  0.30923401802E+03  0.00000000000E+00 0. -1.
        -14    1    5    5    0    0 -0.21162795299E+02 -0.21976464598E+02  0.33362866838E+02  0.45209620489E+02  0.00000000000E+00 0.  1.
          5    1    4    4  501    0  0.63803189181E+02 -0.11785020284E+03  0.65871077894E+02  0.14938536930E+03  0.41800000000E+01 0.  1.
         -5    1    4    4    0  501  0.53435878863E+02  0.26683770656E+02  0.36488805120E+02  0.70116489255E+02  0.41800000000E+01 0.  1.
</event>
<event>
11    1  0.8039394E-009  0.1495273E+03  0.7561462E-02  0.1097363E+00
         22   -1    0    0    0    0  0.00000000000E+00  0.00000000000E+00  0.14969350441E+04  0.14969350441E+04  0.00000000000E+00 0.  1.
         22   -1    0    0    0    0 -0.00000000000E+00 -0.00000000000E+00 -0.69117751336E+02  0.69117751336E+02  0.00000000000E+00 0.  1.
        -24    2    1    2    0    0  0.55813033205E+02 -0.63059072337E+02  0.34861991173E+02  0.12109992946E+03  0.79738906477E+02 0.  0.
         25    2    1    2    0    0 -0.65703952335E+02  0.41524334872E+02  0.19673848619E+03  0.24575616901E+03  0.12509509549E+03 0.  0.
         24    2    1    2    0    0  0.98909191299E+01  0.21534737465E+02  0.11962168154E+04  0.11991966970E+04  0.81095458498E+02 0.  0.
        -11    1    5    5    0    0  0.23329898826E+02  0.11983672841E+02  0.11468427130E+04  0.11471425809E+04  0.00000000000E+00 0.  1.
         12    1    5    5    0    0 -0.13438979696E+02  0.95510646239E+01  0.49374102427E+02  0.52054116083E+02  0.00000000000E+00 0. -1.
         13    1    3    3    0    0  0.13418500942E+02  0.91881399737E-01  0.42583369784E+02  0.44647597828E+02  0.00000000000E+00 0. -1.
        -14    1    3    3    0    0  0.42394532263E+02 -0.63150953737E+02 -0.77213786106E+01  0.76452331628E+02  0.00000000000E+00 0.  1.
          5    1    4    4  501    0  0.26635741846E+01  0.30745704236E+02  0.16772655262E+03  0.17059326426E+03  0.41800000000E+01 0.  1.
         -5    1    4    4    0  501 -0.68367526520E+02  0.10778630637E+02  0.29011933573E+02  0.75162904750E+02  0.41800000000E+01 0.  1.
</event>
<event>
11    1  0.8039394E-009  0.1456762E+03  0.7561462E-02  0.1101381E+00
         22   -1    0    0    0    0  0.00000000000E+00  0.00000000000E+00  0.88870405499E+03  0.88870405499E+03  0.00000000000E+00 0. -1.
         22   -1    0    0    0    0 -0.00000000000E+00 -0.00000000000E+00 -0.29920621307E+04  0.29920621307E+04  0.00000000000E+00 0. -1.
        -24    2    1    2    0    0 -0.42208626879E+02 -0.32740238651E+02 -0.21876790383E+04  0.21897383157E+04  0.78490923169E+02 0.  0.
         25    2    1    2    0    0  0.10204399438E+03  0.77004413221E+02 -0.78986346569E+03  0.80986067744E+03  0.12508943192E+03 0.  0.
         24    2    1    2    0    0 -0.59835367498E+02 -0.44264174570E+02  0.87418442835E+03  0.88116719253E+03  0.81961076559E+02 0.  0.
        -11    1    5    5    0    0 -0.14546588812E+02 -0.60423395752E+02  0.53291324550E+03  0.53652503877E+03  0.00000000000E+00 0.  1.
         12    1    5    5    0    0 -0.45288778686E+02  0.16159221183E+02  0.34127118286E+03  0.34464215376E+03  0.00000000000E+00 0. -1.
         11    1    3    3    0    0 -0.54491556427E+02 -0.19185123425E+02 -0.20541446531E+04  0.20549568498E+04  0.00000000000E+00 0. -1.
        -12    1    3    3    0    0  0.12282929549E+02 -0.13555115227E+02 -0.13353438520E+03  0.13478146586E+03  0.00000000000E+00 0.  1.
          5    1    4    4  501    0  0.95134231076E+02 -0.52017848480E+01 -0.38279078610E+03  0.39449187420E+03  0.41800000000E+01 0. -1.
         -5    1    4    4    0  501  0.69097633004E+01  0.82206198069E+02 -0.40707267959E+03  0.41536880323E+03  0.41800000000E+01 0. -1.
</event>
<event>
11    1  0.8039394E-009  0.1328162E+03  0.7561462E-02  0.1115856E+00
         22   -1    0    0    0    0  0.00000000000E+00  0.00000000000E+00  0.40620600015E+03  0.40620600015E+03  0.00000000000E+00 0. -1.
         22   -1    0    0    0    0 -0.00000000000E+00 -0.00000000000E+00 -0.19460361228E+03  0.19460361228E+03  0.00000000000E+00 0.  1.
        -24    2    1    2    0    0  0.29433741205E+02 -0.42077597163E+01 -0.11859787234E+03  0.14703324589E+03  0.81665596855E+02 0.  0.
         25    2    1    2    0    0 -0.67491711934E+02  0.20113590183E+02  0.39988504000E+02  0.14901584532E+03  0.12508778523E+03 0.  0.
         24    2    1    2    0    0  0.38057970729E+02 -0.15905830467E+02  0.29021175621E+03  0.30476052123E+03  0.83394887604E+02 0.  0.
        -13    1    5    5    0    0 -0.18503817445E+02 -0.49065214124E+01  0.17203240471E+02  0.25737457045E+02  0.00000000000E+00 0.  1.
         14    1    5    5    0    0  0.56561788174E+02 -0.10999309054E+02  0.27300851574E+03  0.27902306418E+03  0.00000000000E+00 0. -1.
         13    1    3    3    0    0  0.15393070061E+02 -0.24533474985E+02 -0.33365058289E+01  0.29154249636E+02  0.00000000000E+00 0. -1.
        -14    1    3    3    0    0  0.14040671144E+02  0.20325715268E+02 -0.11526136651E+03  0.11787899625E+03  0.00000000000E+00 0.  1.
          5    1    4    4  501    0 -0.10951821066E+02 -0.43049797750E+02  0.45801940671E+02  0.63941517343E+02  0.41800000000E+01 0.  1.
         -5    1    4    4    0  501 -0.56539890868E+02  0.63163387933E+02 -0.58134366715E+01  0.85074327975E+02  0.41800000000E+01 0.  1.
</event>
<event>
11    1  0.8039394E-009  0.1382701E+03  0.7561462E-02  0.1109506E+00
         22   -1    0    0    0    0  0.00000000000E+00  0.00000000000E+00  0.21924606139E+03  0.21924606139E+03  0.00000000000E+00 0. -1.
         22   -1    0    0    0    0 -0.00000000000E+00 -0.00000000000E+00 -0.43567161406E+03  0.43567161406E+03  0.00000000000E+00 0.  1.
         24    2    1    2    0    0  0.38230882081E+01 -0.14477473839E+02 -0.31528237483E+03  0.32573174742E+03  0.80461059817E+02 0.  0.
         25    2    1    2    0    0 -0.62139768510E+02  0.92151133125E+01 -0.51286220159E+02  0.14907933049E+03  0.12509237090E+03 0.  0.
        -24    2    1    2    0    0  0.58316680302E+02  0.52623605265E+01  0.15014304232E+03  0.18010659753E+03  0.80417197640E+02 0.  0.
        -13    1    3    3    0    0 -0.39608696409E+01 -0.32237918394E+02 -0.29797511109E+03  0.29974011860E+03  0.00000000000E+00 0.  1.
         14    1    3    3    0    0  0.77839578490E+01  0.17760444555E+02 -0.17307263748E+02  0.25991628826E+02  0.00000000000E+00 0. -1.
         11    1    5    5    0    0  0.30339656774E+02 -0.25398098838E+02  0.12605042251E+03  0.13211459879E+03  0.00000000000E+00 0. -1.
        -12    1    5    5    0    0  0.27977023527E+02  0.30660459365E+02  0.24092619813E+02  0.47991998743E+02  0.00000000000E+00 0.  1.
          5    1    4    4  501    0 -0.83678342549E+02 -0.32259390696E+02 -0.18037054433E+02  0.91572599791E+02  0.41800000000E+01 0. -1.
         -5    1    4    4    0  501  0.21538574040E+02  0.41474504009E+02 -0.33249165726E+02  0.57506730701E+02  0.41800000000E+01 0. -1.
</event>
<event>
11    1  0.8039394E-009  0.2395847E+03  0.7561462E-02  0.1029599E+00
         22   -1    0    0    0    0  0.00000000000E+00  0.00000000000E+00  0.91492200158E+03  0.91492200158E+03  0.00000000000E+00 0.  1.
         22   -1    0    0    0    0 -0.00000000000E+00 -0.00000000000E+00 -0.40900549204E+03  0.40900549204E+03  0.00000000000E+00 0.  1.
         24    2    1    2    0    0  0.79563495957E+02 -0.17191612615E+03 -0.20729230898E+03  0.29242338564E+03  0.81583275195E+02 0.  0.
         25    2    1    2    0    0 -0.43427825539E+02  0.25323796757E+03 -0.21518627460E+02  0.28657695066E+03  0.12509137888E+03 0.  0.
        -24    2    1    2    0    0 -0.36135670418E+02 -0.81321841421E+02  0.73472744597E+03  0.74492715732E+03  0.84693690878E+02 0.  0.
        -11    1    3    3    0    0  0.25825907051E+02 -0.13634962038E+03 -0.11711818437E+03  0.18158982781E+03  0.00000000000E+00 0.  1.
         12    1    3    3    0    0  0.53737588906E+02 -0.35566505765E+02 -0.90174124603E+02  0.11083355783E+03  0.00000000000E+00 0. -1.
         11    1    5    5    0    0 -0.15596463434E+02  0.99665118699E+01  0.41852431404E+02  0.45762506978E+02  0.00000000000E+00 0. -1.
        -12    1    5    5    0    0 -0.20539206983E+02 -0.91288353291E+02  0.69287501457E+03  0.69916465034E+03  0.00000000000E+00 0.  1.
          5    1    4    4  501    0 -0.87835726604E+01  0.13135500659E+03  0.50153587987E+02  0.14094021318E+03  0.41800000000E+01 0. -1.
         -5    1    4    4    0  501 -0.34644252879E+02  0.12188296098E+03 -0.71672215447E+02  0.14563673747E+03  0.41800000000E+01 0. -1.
</event>
<event>
11    1  0.8039394E-009  0.1515923E+03  0.7561462E-02  0.1095263E+00
         22   -1    0    0    0    0  0.00000000000E+00  0.00000000000E+00  0.96135607529E+03  0.96135607529E+03  0.00000000000E+00 0.  1.
         22   -1    0    0    0    0 -0.00000000000E+00 -0.00000000000E+00 -0.25816358421E+03  0.25816358421E+03  0.00000000000E+00 0. -1.
         24    2    1    2    0    0 -0.82494573968E+02  0.25133281582E+02 -0.20800105232E+03  0.23895964980E+03  0.80001499294E+02 0.  0.
         25    2    1    2    0    0  0.65161344081E+02  0.64172656553E+02  0.17458925313E+03  0.23343757325E+03  0.12509021818E+03 0.  0.
        -24    2    1    2    0    0  0.17333229887E+02 -0.89305938135E+02  0.73660429027E+03  0.74712243644E+03  0.85615787916E+02 0.  0.
        -13    1    3    3    0    0 -0.42455351799E+02 -0.26662893575E+02 -0.68759534219E+02  0.85095477766E+02  0.00000000000E+00 0.  1.
         14    1    3    3    0    0 -0.40039222169E+02  0.51796175157E+02 -0.13924151810E+03  0.15386417204E+03  0.00000000000E+00 0. -1.
         11    1    5    5    0    0  0.40770408697E+02 -0.12024320530E+02  0.31481488549E+03  0.31767156410E+03  0.00000000000E+00 0. -1.
        -12    1    5    5    0    0 -0.23437178810E+02 -0.77281617605E+02  0.42178940478E+03  0.42945087235E+03  0.00000000000E+00 0.  1.
          5    1    4    4  501    0 -0.26757901765E+02 -0.17220446675E+02  0.34808709518E+02  0.47346042589E+02  0.41800000000E+01 0.  1.
         -5    1    4    4    0  501  0.91919245847E+02  0.81393103228E+02  0.13978054362E+03  0.18609153066E+03  0.41800000000E+01 0.  1.
</event>
<event>
11    1  0.8039394E-009  0.3436307E+03  0.7561462E-02  0.9832488E-01
         22   -1    0    0    0    0  0.00000000000E+00  0.00000000000E+00  0.19069206040E+04  0.19069206040E+04  0.00000000000E+00 0. -1.
         22   -1    0    0    0    0 -0.00000000000E+00 -0.00000000000E+00 -0.91975790023E+02  0.91975790023E+02  0.00000000000E+00 0. -1.
        -24    2    1    2    0    0 -0.62919858524E+02 -0.34956783258E+03  0.49911907633E+03  0.61785468945E+03  0.80423794731E+02 0.  0.
         25    2    1    2    0    0  0.37765598922E+02  0.26363874589E+03  0.83058512573E+03  0.88116448867E+03  0.12509027225E+03 0.  0.
         24    2    1    2    0    0  0.25154259601E+02  0.85929086685E+02  0.48524061190E+03  0.49987721587E+03  0.80013966276E+02 0.  0.
        -11    1    5    5    0    0  0.46621352804E+02  0.36016296898E+02  0.16830328618E+03  0.17831634900E+03  0.00000000000E+00 0.  1.
         12    1    5    5    0    0 -0.21467093202E+02  0.49912789786E+02  0.31693732572E+03  0.32156086688E+03  0.00000000000E+00 0. -1.
         11    1    3    3    0    0 -0.38911733692E+02 -0.32677091053E+03  0.47006295628E+03  0.57380531006E+03  0.00000000000E+00 0. -1.
        -12    1    3    3    0    0 -0.24008124832E+02 -0.22796922047E+02  0.29056120043E+02  0.44049379391E+02  0.00000000000E+00 0.  1.
          5    1    4    4  501    0  0.10542770356E+02  0.73259095365E+02  0.43520102702E+03  0.44146964944E+03  0.41800000000E+01 0. -1.
         -5    1    4    4    0  501  0.27222828566E+02  0.19037965053E+03  0.39538409871E+03  0.43969483923E+03  0.41800000000E+01 0. -1.
</event>
<event>
11    1  0.8039394E-009  0.1406056E+03  0.7561462E-02  0.1106884E+00
         22   -1    0    0    0    0  0.00000000000E+00  0.00000000000E+00  0.67706461559E+03  0.67706461559E+03  0.00000000000E+00 0.  1.
         22   -1    0    0    0    0 -0.00000000000E+00 -0.00000000000E+00 -0.85974173339E+02  0.85974173339E+02  0.00000000000E+00 0. -1.
         24    2    1    2    0    0  0.10286182693E+01  0.33940431638E+02 -0.15302284024E+02  0.91097774440E+02  0.83136235518E+02 0.  0.
         25    2    1    2    0    0  0.43249864798E+02 -0.74415254458E+02  0.18823361583E+03  0.24184551439E+03  0.12509667382E+03 0.  0.
        -24    2    1    2    0    0 -0.44278483068E+02  0.40474822820E+02  0.41815911044E+03  0.43009550010E+03  0.80785532202E+02 0.  0.
        -13    1    3    3    0    0  0.11649176996E+02  0.58940933779E+02 -0.33040448576E+00  0.60081995361E+02  0.00000000000E+00 0.  1.
         14    1    3    3    0    0 -0.10620558727E+02 -0.25000502141E+02 -0.14971879539E+02  0.31015779079E+02  0.00000000000E+00 0. -1.
         11    1    5    5    0    0 -0.21513934725E+02 -0.23963567300E+02  0.12613979234E+03  0.13018582548E+03  0.00000000000E+00 0. -1.
        -12    1    5    5    0    0 -0.22764548343E+02  0.64438390120E+02  0.29201931811E+03  0.29990967462E+03  0.00000000000E+00 0.  1.
          5    1    4    4  501    0  0.55368663072E+02 -0.96077949011E+02  0.97606237266E+02  0.14778738475E+03  0.41800000000E+01 0.  1.
         -5    1    4    4    0  501 -0.12118798274E+02  0.21662694553E+02  0.90627378565E+02  0.94058129646E+02  0.41800000000E+01 0.  1.
</event>
<event>
11    1  0.8039394E-009  0.1722960E+03  0.7561462E-02  0.1076051E+00
         22   -1    0    0    0    0  0.00000000000E+00  0.00000000000E+00  0.37011915585E+03  0.37011915585E+03  0.00000000000E+00 0. -1.
         22   -1    0    0    0    0 -0.00000000000E+00 -0.00000000000E+00 -0.80877866515E+03  0.80877866515E+03  0.00000000000E+00 0.  1.
        -24    2    1    2    0    0  0.90450216090E+02  0.68427605041E+02 -0.67754338803E+03  0.69379163173E+03  0.97047446493E+02 0.  0.
         25    2    1    2    0    0 -0.18010751398E+03 -0.98250269250E+02  0.29536482150E+02  0.24209993144E+03  0.12509252985E+03 0.  0.
         24    2    1    2    0    0  0.89657297890E+02  0.29822664209E+02  0.20934739658E+03  0.24300625784E+03  0.79359224593E+02 0.  0.
        -11    1    5    5    0    0  0.11420480509E+02  0.43915197914E+01 -0.51490237393E+01  0.13274986501E+02  0.00000000000E+00 0.  1.
         12    1    5    5    0    0  0.78236817381E+02  0.25431144418E+02  0.21449642032E+03  0.22973127134E+03  0.00000000000E+00 0. -1.
         11    1    3    3    0    0  0.45356718803E+02  0.17303221327E+02 -0.89568349237E+02  0.10187797894E+03  0.00000000000E+00 0. -1.
        -12    1    3    3    0    0  0.45093497287E+02  0.51124383714E+02 -0.58797503879E+03  0.59191365278E+03  0.00000000000E+00 0.  1.
          5    1    4    4  501    0  0.16300286524E+02 -0.23956123607E+02 -0.35079472792E+01  0.29485136818E+02  0.41800000000E+01 0. -1.
         -5    1    4    4    0  501 -0.19640780050E+03 -0.74294145643E+02  0.33044429429E+02  0.21261479462E+03  0.41800000000E+01 0. -1.
</event>
<event>
11    1  0.8039394E-009  0.1263630E+03  0.7561462E-02  0.1123820E+00
         22   -1    0    0    0    0  0.00000000000E+00  0.00000000000E+00  0.10008978894E+04  0.10008978894E+04  0.00000000000E+00 0. -1.
         22   -1    0    0    0    0 -0.00000000000E+00 -0.00000000000E+00 -0.14264743532E+03  0.14264743532E+03  0.00000000000E+00 0.  1.
        -24    2    1    2    0    0 -0.86758048483E+01 -0.15770930413E+02 -0.10778657191E+03  0.13552470067E+03  0.80156144942E+02 0.  0.
         25    2    1    2    0    0  0.57427718983E+01  0.15490779454E+02  0.19166318819E+03  0.22946676127E+03  0.12508906085E+03 0.  0.
         24    2    1    2    0    0  0.29330329500E+01  0.28015095931E+00  0.77437383779E+03  0.77855386277E+03  0.80514566479E+02 0.  0.
        -13    1    5    5    0    0 -0.59329550912E+01 -0.35963322722E+02  0.22679960073E+03  0.22970985924E+03  0.00000000000E+00 0.  1.
         14    1    5    5    0    0  0.88659880411E+01  0.36243473681E+02  0.54757423706E+03  0.54884400353E+03  0.00000000000E+00 0. -1.
         13    1    3    3    0    0  0.22937824454E+02  0.12020550524E+01 -0.11332754405E+01  0.22997239840E+02  0.00000000000E+00 0. -1.
        -14    1    3    3    0    0 -0.31613629302E+02 -0.16972985466E+02 -0.10665329647E+03  0.11252746083E+03  0.00000000000E+00 0.  1.
          5    1    4    4  501    0  0.77501967226E+01  0.54018430144E+02  0.18118536075E+03  0.18927140221E+03  0.41800000000E+01 0.  1.
         -5    1    4    4    0  501 -0.20074248243E+01 -0.38527650690E+02  0.10477827437E+02  0.40195359060E+02  0.41800000000E+01 0.  1.
</event>
<event>
11    1  0.8039394E-009  0.1829076E+03  0.7561462E-02  0.1067315E+00
         22   -1    0    0    0    0  0.00000000000E+00  0.00000000000E+00  0.11552195958E+03  0.11552195958E+03  0.00000000000E+00 0. -1.
         22   -1    0    0    0    0 -0.00000000000E+00 -0.00000000000E+00 -0.21727294121E+04  0.21727294121E+04  0.00000000000E+00 0. -1.
        -24    2    1    2    0    0  0.39234287704E+02  0.45765570269E+01 -0.10715685621E+04  0.10753047291E+04  0.80379120184E+02 0.  0.
         25    2    1    2    0    0 -0.90116934135E+02  0.11816945142E+03 -0.10334760375E+04  0.10515726533E+04  0.12508894454E+03 0.  0.
         24    2    1    2    0    0  0.50882646432E+02 -0.12274600845E+03  0.47837147048E+02  0.16137398928E+03  0.78086781731E+02 0.  0.
        -11    1    5    5    0    0  0.60801004419E+02 -0.68847524892E+02  0.53091812795E+01  0.92005060883E+02  0.00000000000E+00 0.  1.
         12    1    5    5    0    0 -0.99183579873E+01 -0.53898483557E+02  0.42527965768E+02  0.69368928399E+02  0.00000000000E+00 0. -1.
         11    1    3    3    0    0  0.41474834814E+02 -0.21927587385E+02 -0.93463732517E+03  0.93581403634E+03  0.00000000000E+00 0. -1.
        -12    1    3    3    0    0 -0.22405471108E+01  0.26504144412E+02 -0.13693123694E+03  0.13949069278E+03  0.00000000000E+00 0.  1.
          5    1    4    4  501    0 -0.43022798390E+02  0.79154172248E+02 -0.90212864071E+03  0.90662555719E+03  0.41800000000E+01 0. -1.
         -5    1    4    4    0  501 -0.47094135745E+02  0.39015279174E+02 -0.13134739678E+03  0.14494709612E+03  0.41800000000E+01 0. -1.
</event>
<event>
11    1  0.8039394E-009  0.1422815E+03  0.7561462E-02  0.1105037E+00
         22   -1    0    0    0    0  0.00000000000E+00  0.00000000000E+00  0.47061690027E+03  0.47061690027E+03  0.00000000000E+00 0.  1.
         22   -1    0    0    0    0 -0.00000000000E+00 -0.00000000000E+00 -0.77749308780E+03  0.77749308780E+03  0.00000000000E+00 0. -1.
        -24    2    1    2    0    0 -0.72800887426E+02 -0.11443464484E+02 -0.63416784513E+03  0.64350638384E+03  0.80626845173E+02 0.  0.
         25    2    1    2    0    0  0.25430983207E+02  0.19885373766E+02 -0.10222633719E+03  0.16473531996E+03  0.12508132806E+03 0.  0.
         24    2    1    2    0    0  0.47369904219E+02 -0.84419092821E+01  0.42951799478E+03  0.43986828427E+03  0.81751000076E+02 0.  0.
        -13    1    5    5    0    0  0.44161687244E+02 -0.41992099093E+02  0.29053454754E+03  0.29685672356E+03  0.00000000000E+00 0.  1.
         14    1    5    5    0    0  0.32082169751E+01  0.33550189811E+02  0.13898344723E+03  0.14301156071E+03  0.00000000000E+00 0. -1.
         11    1    3    3    0    0 -0.47160184783E+02 -0.44361304570E+02 -0.45248310375E+03  0.45709185899E+03  0.00000000000E+00 0. -1.
        -12    1    3    3    0    0 -0.25640702643E+02  0.32917840086E+02 -0.18168474137E+03  0.18641452485E+03  0.00000000000E+00 0.  1.
          5    1    4    4  501    0  0.49928757733E+02  0.12933050550E+02  0.72567096316E+01  0.52252051442E+02  0.41800000000E+01 0. -1.
         -5    1    4    4    0  501 -0.24497774525E+02  0.69523232153E+01 -0.10948304682E+03  0.11248326852E+03  0.41800000000E+01 0. -1.
</event>
<event>
11    1  0.8039394E-009  0.1288620E+03  0.7561462E-02  0.1120675E+00
         22   -1    0    0    0    0  0.00000000000E+00  0.00000000000E+00  0.26714295953E+03  0.26714295953E+03  0.00000000000E+00 0. -1.
         22   -1    0    0    0    0 -0.00000000000E+00 -0.00000000000E+00 -0.57167781047E+03  0.57167781047E+03  0.00000000000E+00 0. -1.
        -24    2    1    2    0    0 -0.19397336477E+02 -0.22990620344E+02 -0.51190896101E+03  0.51889742422E+03  0.79365781148E+02 0.  0.
         25    2    1    2    0    0  0.31325749172E+02  0.44250793631E+02  0.52523624241E+02  0.14611341191E+03  0.12510380785E+03 0.  0.
         24    2    1    2    0    0 -0.11928412695E+02 -0.21260173287E+02  0.15485048583E+03  0.17380993387E+03  0.75079545493E+02 0.  0.
        -13    1    5    5    0    0  0.15147429533E+02 -0.22613631644E+02  0.14449681328E+02  0.30815811657E+02  0.00000000000E+00 0.  1.
         14    1    5    5    0    0 -0.27075842228E+02  0.13534583575E+01  0.14040080450E+03  0.14299412221E+03  0.00000000000E+00 0. -1.
         11    1    3    3    0    0 -0.28285443105E+02 -0.44418403605E+02 -0.44450054048E+03  0.44760897149E+03  0.00000000000E+00 0. -1.
        -12    1    3    3    0    0  0.88881066276E+01  0.21427783261E+02 -0.67408420526E+02  0.71288452731E+02  0.00000000000E+00 0.  1.
          5    1    4    4  501    0  0.25319862033E+02  0.98264538673E+01 -0.39198531242E+02  0.47871200742E+02  0.41800000000E+01 0.  1.
         -5    1    4    4    0  501  0.60058871388E+01  0.34424339764E+02  0.91722155483E+02  0.98242211167E+02  0.41800000000E+01 0.  1.
</event>
<event>
11    1  0.8039394E-009  0.1502353E+03  0.7561462E-02  0.1096639E+00
         22   -1    0    0    0    0  0.00000000000E+00  0.00000000000E+00  0.38941014978E+03  0.38941014978E+03  0.00000000000E+00 0.  1.
         22   -1    0    0    0    0 -0.00000000000E+00 -0.00000000000E+00 -0.16501524706E+04  0.16501524706E+04  0.00000000000E+00 0.  1.
         24    2    1    2    0    0  0.18093584279E+02  0.78935160522E+02 -0.13711856872E+04  0.13760027320E+04  0.81701851007E+02 0.  0.
         25    2    1    2    0    0  0.41001433010E+02 -0.12068874350E+03 -0.23894599826E+03  0.29831340198E+03  0.12509518536E+03 0.  0.
        -24    2    1    2    0    0 -0.59095017289E+02  0.41753582982E+02  0.34938936458E+03  0.36524648641E+03  0.78079990987E+02 0.  0.
        -13    1    3    3    0    0  0.33559154734E+02  0.85421150458E+02 -0.93468135624E+03  0.93917635592E+03  0.00000000000E+00 0.  1.
         14    1    3    3    0    0 -0.15465570455E+02 -0.64859899361E+01 -0.43650433092E+03  0.43682637609E+03  0.00000000000E+00 0. -1.
         13    1    5    5    0    0 -0.26632578184E+02 -0.31771982726E+00  0.24986548776E+02  0.36520169583E+02  0.00000000000E+00 0. -1.
        -14    1    5    5    0    0 -0.32462439105E+02  0.42071302810E+02  0.32440281581E+03  0.32872631683E+03  0.00000000000E+00 0.  1.
          5    1    4    4  501    0 -0.28046137698E+02 -0.93414642416E+02 -0.17433292062E+03  0.19980570780E+03  0.41800000000E+01 0.  1.
         -5    1    4    4    0  501  0.69047570708E+02 -0.27274101088E+02 -0.64613077643E+02  0.98507694183E+02  0.41800000000E+01 0.  1.
</event>
<event>
11    1  0.8039394E-009  0.1385874E+03  0.7561462E-02  0.1109146E+00
         22   -1    0    0    0    0  0.00000000000E+00  0.00000000000E+00  0.85865902384E+03  0.85865902384E+03  0.00000000000E+00 0. -1.
         22   -1    0    0    0    0 -0.00000000000E+00 -0.00000000000E+00 -0.43782353148E+03  0.43782353148E+03  0.00000000000E+00 0. -1.
        -24    2    1    2    0    0  0.49860931607E+02  0.44198182567E+01 -0.26507582606E+03  0.27714613828E+03  0.63554237533E+02 0.  0.
         25    2    1    2    0    0 -0.43409653941E+02  0.55046522758E+02 -0.13247896375E+03  0.19522582200E+03  0.12509167845E+03 0.  0.
         24    2    1    2    0    0 -0.64512776662E+01 -0.59466341014E+02  0.81839028216E+03  0.82411059504E+03  0.76274204163E+02 0.  0.
        -11    1    5    5    0    0 -0.99010547750E+01  0.29037714522E+01  0.14496523694E+02  0.17793593609E+02  0.00000000000E+00 0.  1.
         12    1    5    5    0    0  0.34497771088E+01 -0.62370112467E+02  0.80389375847E+03  0.80631700143E+03  0.00000000000E+00 0. -1.
         11    1    3    3    0    0  0.39736211083E+02 -0.26792487360E+02 -0.14864805788E+03  0.15618274220E+03  0.00000000000E+00 0. -1.
        -12    1    3    3    0    0  0.10124720524E+02  0.31212305617E+02 -0.11642776818E+03  0.12096339608E+03  0.00000000000E+00 0.  1.
          5    1    4    4  501    0 -0.64935768160E+02  0.11221212041E+02 -0.14683688209E+02  0.67643570911E+02  0.41800000000E+01 0.  1.
         -5    1    4    4    0  501  0.21526114220E+02  0.43825310717E+02 -0.11779527554E+03  0.12758225109E+03  0.41800000000E+01 0.  1.
</event>
<event>
11    1  0.8039394E-009  0.1678000E+03  0.7561462E-02  0.1079962E+00
         22   -1    0    0    0    0  0.00000000000E+00  0.00000000000E+00  0.52708159700E+02  0.52708159700E+02  0.00000000000E+00 0.  1.
         22   -1    0    0    0    0 -0.00000000000E+00 -0.00000000000E+00 -0.29590894019E+04  0.29590894019E+04  0.00000000000E+00 0.  1.
        -24    2    1    2    0    0 -0.31911578431E+02  0.29977715486E+02 -0.22808892438E+04  0.22827147312E+04  0.80086135971E+02 0.  0.
         25    2    1    2    0    0 -0.77781920801E+02 -0.65843175394E+02 -0.54392618411E+03  0.56735198231E+03  0.12508887687E+03 0.  0.
         24    2    1    2    0    0  0.10969349923E+03  0.35865459908E+02 -0.81565814314E+02  0.16173084814E+03  0.78644072812E+02 0.  0.
        -13    1    5    5    0    0  0.77992765544E+02  0.25420272993E+02 -0.95208526007E+02  0.12567308853E+03  0.00000000000E+00 0.  1.
         14    1    5    5    0    0  0.31700733688E+02  0.10445186915E+02  0.13642711693E+02  0.36057759614E+02  0.00000000000E+00 0. -1.
         11    1    3    3    0    0  0.10789782216E+02  0.52052280681E+01 -0.55509285284E+02  0.56787274562E+02  0.00000000000E+00 0. -1.
        -12    1    3    3    0    0 -0.42701360647E+02  0.24772487418E+02 -0.22253799585E+04  0.22259274566E+04  0.00000000000E+00 0.  1.
          5    1    4    4  501    0 -0.25684610604E+02  0.36707916718E+02 -0.12298284675E+03  0.13095580692E+03  0.41800000000E+01 0.  1.
         -5    1    4    4    0  501 -0.52097310196E+02 -0.10255109211E+03 -0.42094333736E+03  0.43639617539E+03  0.41800000000E+01 0.  1.
</event>
<event>
11    1  0.8039394E-009  0.2251999E+03  0.7561462E-02  0.1038008E+00
         22   -1    0    0    0    0  0.00000000000E+00  0.00000000000E+00  0.55974426469E+03  0.55974426469E+03  0.00000000000E+00 0.  1.
         22   -1    0    0    0    0 -0.00000000000E+00 -0.00000000000E+00 -0.24623062362E+04  0.24623062362E+04  0.00000000000E+00 0.  1.
         24    2    1    2    0    0  0.58765908514E+02 -0.35087388030E+02 -0.22670187538E+04  0.22695286041E+04  0.81862677016E+02 0.  0.
         25    2    1    2    0    0 -0.22430473194E+03  0.10506958404E+03 -0.60826254492E+02  0.28407419163E+03  0.12508430299E+03 0.  0.
        -24    2    1    2    0    0  0.16553882343E+03 -0.69982196010E+02  0.42528303677E+03  0.46844770517E+03  0.79227402424E+02 0.  0.
        -11    1    3    3    0    0  0.71749736058E+02 -0.48258017740E+02 -0.16863795329E+04  0.16885949159E+04  0.00000000000E+00 0.  1.
         12    1    3    3    0    0 -0.12983827544E+02  0.13170629710E+02 -0.58063922091E+03  0.58093368823E+03  0.00000000000E+00 0. -1.
         13    1    5    5    0    0  0.11248836474E+02  0.90446882874E+00  0.85684334289E+00  0.11317621941E+02  0.00000000000E+00 0. -1.
        -14    1    5    5    0    0  0.15428998695E+03 -0.70886664839E+02  0.42442619343E+03  0.45713008323E+03  0.00000000000E+00 0.  1.
          5    1    4    4  501    0 -0.59407305961E+01 -0.19001636450E+02  0.10589650405E+02  0.22933982722E+02  0.41800000000E+01 0.  1.
         -5    1    4    4    0  501 -0.21836400135E+03  0.12407122049E+03 -0.71415904897E+02  0.26114020891E+03  0.41800000000E+01 0.  1.
</event>
<event>
11    1  0.8039394E-009  0.1746313E+03  0.7561462E-02  0.1074070E+00
         22   -1    0    0    0    0  0.00000000000E+00  0.00000000000E+00  0.27070681193E+03  0.27070681193E+03  0.00000000000E+00 0. -1.
         22   -1    0    0    0    0 -0.00000000000E+00 -0.00000000000E+00 -0.41699302792E+03  0.41699302792E+03  0.00000000000E+00 0.  1.
        -24    2    1    2    0    0 -0.77452873039E+02 -0.88667555311E+02 -0.30753748154E+03  0.33843749001E+03  0.78100891084E+02 0.  0.
         25    2    1    2    0    0  0.81828296547E+02  0.13900410285E+03  0.63728605505E+02  0.21383840866E+03  0.12509004409E+03 0.  0.
         24    2    1    2    0    0 -0.43754235080E+01 -0.50336547543E+02  0.97522660041E+02  0.13542394118E+03  0.79221602313E+02 0.  0.
        -11    1    5    5    0    0  0.13789026009E+02  0.17426619763E+02  0.34957946076E+02  0.41423209780E+02  0.00000000000E+00 0.  1.
         12    1    5    5    0    0 -0.18164449517E+02 -0.67763167306E+02  0.62564713965E+02  0.94000731396E+02  0.00000000000E+00 0. -1.
         13    1    3    3    0    0 -0.40484791494E+01 -0.32038498207E+02 -0.16687477532E+03  0.16997072157E+03  0.00000000000E+00 0. -1.
        -14    1    3    3    0    0 -0.73404393890E+02 -0.56629057104E+02 -0.14066270622E+03  0.16846676845E+03  0.00000000000E+00 0.  1.
          5    1    4    4  501    0  0.10410546214E+02  0.11567044880E+03  0.15495054479E+01  0.11622351554E+03  0.41800000000E+01 0.  1.
         -5    1    4    4    0  501  0.71417750333E+02  0.23333654056E+02  0.62179100057E+02  0.97614893116E+02  0.41800000000E+01 0.  1.
</event>
<event>
11    1  0.8039394E-009  0.1391801E+03  0.7561462E-02  0.1108477E+00
         22   -1    0    0    0    0  0.00000000000E+00  0.00000000000E+00  0.10890241340E+03  0.10890241340E+03  0.00000000000E+00 0.  1.
         22   -1    0    0    0    0 -0.00000000000E+00 -0.00000000000E+00 -0.49910558282E+03  0.49910558282E+03  0.00000000000E+00 0. -1.
        -24    2    1    2    0    0 -0.26352822494E+00 -0.55573206272E+02 -0.23931392828E+03  0.25862954541E+03  0.80806155620E+02 0.  0.
         25    2    1    2    0    0 -0.38473393681E+02  0.71891270109E+02 -0.19763069110E+03  0.24769518946E+03  0.12508581086E+03 0.  0.
         24    2    1    2    0    0  0.38736921906E+02 -0.16318063836E+02  0.46741449971E+02  0.10168326135E+03  0.79924302730E+02 0.  0.
        -11    1    5    5    0    0  0.61499329360E+02 -0.22423002234E+02  0.41607093471E+02  0.77563578876E+02  0.00000000000E+00 0.  1.
         12    1    5    5    0    0 -0.22762407453E+02  0.61049383981E+01  0.51343564996E+01  0.24119682472E+02  0.00000000000E+00 0. -1.
         11    1    3    3    0    0  0.22115519794E+02  0.57671748300E+00 -0.14452288732E+03  0.14620633973E+03  0.00000000000E+00 0. -1.
        -12    1    3    3    0    0 -0.22379048019E+02 -0.56149923755E+02 -0.94791040970E+02  0.11242320568E+03  0.00000000000E+00 0.  1.
          5    1    4    4  501    0 -0.27109913516E+02  0.10767857134E+03 -0.15527659924E+03  0.19093956323E+03  0.41800000000E+01 0. -1.
         -5    1    4    4    0  501 -0.11363480165E+02 -0.35787301233E+02 -0.42354091865E+02  0.56755626230E+02  0.41800000000E+01 0. -1.
</event>
<event>
11    1  0.8039394E-009  0.1319300E+03  0.7561462E-02  0.1116920E+00
         22   -1    0    0    0    0  0.00000000000E+00  0.00000000000E+00  0.49590678411E+03  0.49590678411E+03  0.00000000000E+00 0. -1.
         22   -1    0    0    0    0 -0.00000000000E+00 -0.00000000000E+00 -0.10104771828E+04  0.10104771828E+04  0.00000000000E+00 0. -1.
        -24    2    1    2    0    0 -0.41072547819E+02 -0.76729688939E+01 -0.98344041621E+03  0.98720657344E+03  0.75338819865E+02 0.  0.
         25    2    1    2    0    0  0.58761796558E+02  0.46413542786E+01  0.24799749332E+03  0.28394899674E+03  0.12509910133E+03 0.  0.
         24    2    1    2    0    0 -0.17689248739E+02  0.30316146154E+01  0.22087252420E+03  0.23522839671E+03  0.78902639141E+02 0.  0.
        -13    1    5    5    0    0  0.27881512346E+02  0.85519847542E+01  0.13220023203E+03  0.13537878904E+03  0.00000000000E+00 0.  1.
         14    1    5    5    0    0 -0.45570761085E+02 -0.55203701388E+01  0.88672292173E+02  0.99849607669E+02  0.00000000000E+00 0. -1.
         11    1    3    3    0    0 -0.52466339807E+02  0.19242374269E+02 -0.56937552224E+03  0.57211141494E+03  0.00000000000E+00 0. -1.
        -12    1    3    3    0    0  0.11393791988E+02 -0.26915343163E+02 -0.41406489397E+03  0.41509515850E+03  0.00000000000E+00 0.  1.
          5    1    4    4  501    0  0.77524134903E+02 -0.31861943909E+02  0.21603082552E+03  0.23175841934E+03  0.41800000000E+01 0. -1.
         -5    1    4    4    0  501 -0.18762338346E+02  0.36503298188E+02  0.31966667806E+02  0.52190577400E+02  0.41800000000E+01 0. -1.
</event>
<event>
11    1  0.8039394E-009  0.1378942E+03  0.7561462E-02  0.1109933E+00
         22   -1    0    0    0    0  0.00000000000E+00  0.00000000000E+00  0.73117835962E+03  0.73117835962E+03  0.00000000000E+00 0.  1.
         22   -1    0    0    0    0 -0.00000000000E+00 -0.00000000000E+00 -0.41878677793E+03  0.41878677793E+03  0.00000000000E+00 0. -1.
         24    2    1    2    0    0 -0.65891115462E+01 -0.58034220818E+02 -0.39486834610E+03  0.40682154810E+03  0.78558093590E+02 0.  0.
         25    2    1    2    0    0 -0.27239007154E+01  0.38850010850E+02  0.29686330466E+03  0.32448753764E+03  0.12509035714E+03 0.  0.
        -24    2    1    2    0    0  0.93130122616E+01  0.19184209968E+02  0.41039662312E+03  0.41865605182E+03  0.79954583012E+02 0.  0.
        -13    1    3    3    0    0  0.16047324044E+02  0.74510626622E+01 -0.25662188997E+02  0.31170224380E+02  0.00000000000E+00 0.  1.
         14    1    3    3    0    0 -0.22636435590E+02 -0.65485283480E+02 -0.36920615710E+03  0.37565132372E+03  0.00000000000E+00 0. -1.
         13    1    5    5    0    0  0.29900561505E+02  0.15742882342E+02  0.71138192962E+02  0.78756107196E+02  0.00000000000E+00 0. -1.
        -14    1    5    5    0    0 -0.20587549243E+02  0.34413276261E+01  0.33925843016E+03  0.33989994463E+03  0.00000000000E+00 0.  1.
          5    1    4    4  501    0  0.56745183154E+02  0.50419280094E+01  0.90288697120E+02  0.10684080717E+03  0.41800000000E+01 0.  1.
         -5    1    4    4    0  501 -0.59469083869E+02  0.33808082840E+02  0.20657460754E+03  0.21764673047E+03  0.41800000000E+01 0.  1.
</event>
<event>
11    1  0.8039394E-009  0.1618816E+03  0.7561462E-02  0.1085321E+00
         22   -1    0    0    0    0  0.00000000000E+00  0.00000000000E+00  0.15045432792E+04  0.15045432792E+04  0.00000000000E+00 0.  1.
         22   -1    0    0    0    0 -0.00000000000E+00 -0.00000000000E+00 -0.19933776521E+04  0.19933776521E+04  0.00000000000E+00 0. -1.
        -24    2    1    2    0    0  0.28697494417E+02 -0.21655657706E+02 -0.18434391786E+04  0.18457103531E+04  0.84179501103E+02 0.  0.
         25    2    1    2    0    0 -0.65366365547E+02 -0.74537464856E+02 -0.10223630721E+03  0.18954842998E+03  0.12509096444E+03 0.  0.
         24    2    1    2    0    0  0.36668871130E+02  0.96193122562E+02  0.14568411129E+04  0.14626621482E+04  0.79980050996E+02 0.  0.
        -13    1    5    5    0    0  0.45563568724E+02  0.92150199685E+02  0.14356651618E+04  0.14393408751E+04  0.00000000000E+00 0.  1.
         14    1    5    5    0    0 -0.88946975938E+01  0.40429228766E+01  0.21175951132E+02  0.23321273057E+02  0.00000000000E+00 0. -1.
         11    1    3    3    0    0  0.14499425092E+01 -0.14982504470E+02 -0.16659437915E+04  0.16660117929E+04  0.00000000000E+00 0. -1.
        -12    1    3    3    0    0  0.27247551908E+02 -0.66731532364E+01 -0.17749538716E+03  0.17969856016E+03  0.00000000000E+00 0.  1.
          5    1    4    4  501    0 -0.92982388838E+02 -0.22604874394E+02 -0.39956524874E+02  0.10378198909E+03  0.41800000000E+01 0.  1.
         -5    1    4    4    0  501  0.27616023291E+02 -0.51932590462E+02 -0.62279782336E+02  0.85766440887E+02  0.41800000000E+01 0.  1.
</event>
<event>
11    1  0.8039394E-009  0.1730987E+03  0.7561462E-02  0.1075366E+00
         22   -1    0    0    0    0  0.00000000000E+00  0.00000000000E+00  0.13904776390E+03  0.13904776390E+03  0.00000000000E+00 0. -1.
         22   -1    0    0    0    0 -0.00000000000E+00 -0.00000000000E+00 -0.17510693760E+04  0.17510693760E+04  0.00000000000E+00 0. -1.
         24    2    1    2    0    0  0.10732461638E+03  0.60977381165E+02 -0.15590867109E+04  0.15658503230E+04  0.76805258967E+02 0.  0.
         25    2    1    2    0    0 -0.53027648505E+02 -0.68532210350E+02 -0.13008203888E+03  0.20019333717E+03  0.12508972799E+03 0.  0.
        -24    2    1    2    0    0 -0.54296967876E+02  0.75548291845E+01  0.77147137638E+02  0.12407347971E+03  0.80232857089E+02 0.  0.
        -13    1    3    3    0    0  0.14597469040E+02  0.48176453715E+02 -0.44504562041E+03  0.44788353513E+03  0.00000000000E+00 0.  1.
         14    1    3    3    0    0  0.92727147341E+02  0.12800927451E+02 -0.11140410905E+04  0.11179667879E+04  0.00000000000E+00 0. -1.
         11    1    5    5    0    0 -0.39655898351E+02  0.37361588668E+02  0.72273420317E+02  0.90509258456E+02  0.00000000000E+00 0. -1.
        -12    1    5    5    0    0 -0.14641069525E+02 -0.29806759484E+02  0.48737173205E+01  0.33564221252E+02  0.00000000000E+00 0.  1.
          5    1    4    4  501    0  0.27359171089E+02  0.11452475034E+02 -0.59341739374E+02  0.66472534621E+02  0.41800000000E+01 0.  1.
         -5    1    4    4    0  501 -0.80386819594E+02 -0.79984685383E+02 -0.70740299502E+02  0.13372080255E+03  0.41800000000E+01 0.  1.
</event>
<event>
11    1  0.8039394E-009  0.1333453E+03  0.7561462E-02  0.1115226E+00
         22   -1    0    0    0    0  0.00000000000E+00  0.00000000000E+00  0.56930010509E+03  0.56930010509E+03  0.00000000000E+00 0. -1.
         22   -1    0    0    0    0 -0.00000000000E+00 -0.00000000000E+00 -0.50177365467E+03  0.50177365467E+03  0.00000000000E+00 0. -1.
         24    2    1    2    0    0 -0.76258420527E+01  0.45629084782E+02 -0.38289279966E+03  0.39278429020E+03  0.74380345209E+02 0.  0.
         25    2    1    2    0    0  0.44074788893E+02 -0.72075193521E+02 -0.58182630746E+02  0.16177124645E+03  0.12508915668E+03 0.  0.
        -24    2    1    2    0    0 -0.36448946841E+02  0.26446108739E+02  0.50860188082E+03  0.51651822311E+03  0.78021017867E+02 0.  0.
        -13    1    3    3    0    0 -0.35604869558E+02  0.46491795707E+02 -0.22915946231E+03  0.23652326095E+03  0.00000000000E+00 0.  1.
         14    1    3    3    0    0  0.27979027505E+02 -0.86271092509E+00 -0.15373333735E+03  0.15626102925E+03  0.00000000000E+00 0. -1.
         13    1    5    5    0    0 -0.58572439016E+01 -0.27033025581E+02  0.19140291084E+03  0.19339122538E+03  0.00000000000E+00 0. -1.
        -14    1    5    5    0    0 -0.30591702939E+02  0.53479134320E+02  0.31719896999E+03  0.32312699772E+03  0.00000000000E+00 0.  1.
          5    1    4    4  501    0  0.81639372908E+02 -0.75016362333E+02 -0.54699008898E+02  0.12370083185E+03  0.41800000000E+01 0.  1.
         -5    1    4    4    0  501 -0.37564584014E+02  0.29411688127E+01 -0.34836218483E+01  0.38070414594E+02  0.41800000000E+01 0.  1.
</event>
<event>
11    1  0.8039394E-009  0.1769985E+03  0.7561462E-02  0.1072097E+00
         22   -1    0    0    0    0  0.00000000000E+00  0.00000000000E+00  0.42317753648E+03  0.42317753648E+03  0.00000000000E+00 0. -1.
         22   -1    0    0    0    0 -0.00000000000E+00 -0.00000000000E+00 -0.16439552855E+04  0.16439552855E+04  0.00000000000E+00 0.  1.
         24    2    1    2    0    0 -0.67240590910E+02 -0.10277977142E+03 -0.13294461689E+04  0.13374486580E+04  0.79100052390E+02 0.  0.
         25    2    1    2    0    0  0.11132935491E+03  0.98046864777E+02 -0.27373118303E+03  0.33553790466E+03  0.12509800934E+03 0.  0.
        -24    2    1    2    0    0 -0.44088763996E+02  0.47329066439E+01  0.38239960290E+03  0.39414625934E+03  0.84590767438E+02 0.  0.
        -11    1    3    3    0    0 -0.75668101996E+02 -0.89082148662E+02 -0.88165544944E+03  0.88936922726E+03  0.00000000000E+00 0.  1.
         12    1    3    3    0    0  0.84275110852E+01 -0.13697622758E+02 -0.44779071949E+03  0.44807943077E+03  0.00000000000E+00 0. -1.
         11    1    5    5    0    0 -0.97681073333E+01 -0.21925187703E+02  0.30027010776E+03  0.30122793262E+03  0.00000000000E+00 0. -1.
        -12    1    5    5    0    0 -0.34320656663E+02  0.26658094347E+02  0.82129495140E+02  0.92918326717E+02  0.00000000000E+00 0.  1.
          5    1    4    4  501    0  0.79594420963E+02 -0.16154789133E+01 -0.68308686883E+02  0.10498300207E+03  0.41800000000E+01 0.  1.
         -5    1    4    4    0  501  0.31734933944E+02  0.99662343690E+02 -0.20542249615E+03  0.23055490258E+03  0.41800000000E+01 0.  1.
</event>
<event>
11    1  0.8039394E-009  0.1307517E+03  0.7561462E-02  0.1118349E+00
         22   -1    0    0    0    0  0.00000000000E+00  0.00000000000E+00  0.24984462896E+03  0.24984462896E+03  0.00000000000E+00 0. -1.
         22   -1    0    0    0    0 -0.00000000000E+00 -0.00000000000E+00 -0.19510060776E+04  0.19510060776E+04  0.00000000000E+00 0. -1.
         24    2    1    2    0    0  0.11059279540E+02  0.43430458612E+01 -0.18129399804E+04  0.18147323784E+04  0.79756272276E+02 0.  0.
         25    2    1    2    0    0 -0.72748330153E+01  0.33899406268E+02 -0.94348921775E+02  0.16047389527E+03  0.12509220233E+03 0.  0.
        -24    2    1    2    0    0 -0.37844465244E+01 -0.38242452129E+02  0.20612745353E+03  0.22564443289E+03  0.83367114709E+02 0.  0.
        -13    1    3    3    0    0  0.17630768301E+01  0.29224177032E+02 -0.27337022876E+03  0.27493352458E+03  0.00000000000E+00 0.  1.
         14    1    3    3    0    0  0.92962027095E+01 -0.24881131171E+02 -0.15395697517E+04  0.15397988539E+04  0.00000000000E+00 0. -1.
         11    1    5    5    0    0 -0.37154164057E+02 -0.14769059792E+02  0.15584580852E+03  0.16089273777E+03  0.00000000000E+00 0. -1.
        -12    1    5    5    0    0  0.33369717533E+02 -0.23473392337E+02  0.50281645013E+02  0.64751695123E+02  0.00000000000E+00 0.  1.
          5    1    4    4  501    0 -0.12744993366E+02 -0.18059995016E+02  0.22864293595E+02  0.32075638691E+02  0.41800000000E+01 0.  1.
         -5    1    4    4    0  501  0.54701603507E+01  0.51959401283E+02 -0.11721321537E+03  0.12839825658E+03  0.41800000000E+01 0.  1.
</event>
<event>
11    1  0.8039394E-009  0.2996015E+03  0.7561462E-02  0.1000360E+00
         22   -1    0    0    0    0  0.00000000000E+00  0.00000000000E+00  0.57241482415E+03  0.57241482415E+03  0.00000000000E+00 0.  1.
         22   -1    0    0    0    0 -0.00000000000E+00 -0.00000000000E+00 -0.97607136584E+03  0.97607136584E+03  0.00000000000E+00 0.  1.
        -24    2    1    2    0    0  0.28767011780E+02 -0.43004438222E+02 -0.50659783139E+03  0.51567569710E+03  0.81259701797E+02 0.  0.
         25    2    1    2    0    0 -0.63517300183E+02  0.30905685414E+03 -0.35797438226E+03  0.49329865107E+03  0.12508922530E+03 0.  0.
         24    2    1    2    0    0  0.34750288402E+02 -0.26605241592E+03  0.46091567195E+03  0.53951184183E+03  0.81475764867E+02 0.  0.
        -11    1    5    5    0    0  0.26656012293E+01 -0.18311129153E+03  0.24403473787E+03  0.30510621725E+03  0.00000000000E+00 0.  1.
         12    1    5    5    0    0  0.32084687173E+02 -0.82941124382E+02  0.21688093408E+03  0.23440562457E+03  0.00000000000E+00 0. -1.
         13    1    3    3    0    0 -0.19746239870E+02 -0.43058917299E+02 -0.22544297137E+03  0.23036605151E+03  0.00000000000E+00 0. -1.
        -14    1    3    3    0    0  0.48513251650E+02  0.54479077611E-01 -0.28115486001E+03  0.28530964558E+03  0.00000000000E+00 0.  1.
          5    1    4    4  501    0  0.34708454915E+02  0.41523149350E+02 -0.61767594221E+02  0.82228686420E+02  0.41800000000E+01 0. -1.
         -5    1    4    4    0  501 -0.98225755098E+02  0.26753370479E+03 -0.29620678804E+03  0.41106996465E+03  0.41800000000E+01 0. -1.
</event>
<event>
11    1  0.8039394E-009  0.2007618E+03  0.7561462E-02  0.1053986E+00
         22   -1    0    0    0    0  0.00000000000E+00  0.00000000000E+00  0.46344618316E+03  0.46344618316E+03  0.00000000000E+00 0. -1.
         22   -1    0    0    0    0 -0.00000000000E+00 -0.00000000000E+00 -0.20967176793E+04  0.20967176793E+04  0.00000000000E+00 0.  1.
         24    2    1    2    0    0  0.96453243681E+02 -0.12516678839E+03 -0.13539771553E+04  0.13655781589E+04  0.81114843506E+02 0.  0.
         25    2    1    2    0    0 -0.11205384994E+03  0.10834131484E+03 -0.71944831440E+03  0.74669091002E+03  0.12509009643E+03 0.  0.
        -24    2    1    2    0    0  0.15600606256E+02  0.16825473549E+02  0.44015397353E+03  0.44789479358E+03  0.79672769670E+02 0.  0.
        -13    1    3    3    0    0  0.83074182127E+02 -0.12609108878E+03 -0.99893793950E+03  0.10102857464E+04  0.00000000000E+00 0.  1.
         14    1    3    3    0    0  0.13379061554E+02  0.92430038876E+00 -0.35503921576E+03  0.35529241246E+03  0.00000000000E+00 0. -1.
         11    1    5    5    0    0  0.48392671627E+02  0.98863861048E+01  0.26299095289E+03  0.26758892465E+03  0.00000000000E+00 0. -1.
        -12    1    5    5    0    0 -0.32792065371E+02  0.69390874446E+01  0.17716302064E+03  0.18030586892E+03  0.00000000000E+00 0.  1.
          5    1    4    4  501    0 -0.12522222115E+03  0.46490058054E+02 -0.54309944041E+03  0.55929992378E+03  0.41800000000E+01 0. -1.
         -5    1    4    4    0  501  0.13168371209E+02  0.61851256786E+02 -0.17634887400E+03  0.18739098625E+03  0.41800000000E+01 0. -1.
</event>
<event>
11    1  0.8039394E-009  0.1781009E+03  0.7561462E-02  0.1071189E+00
         22   -1    0    0    0    0  0.00000000000E+00  0.00000000000E+00  0.39056006011E+03  0.39056006011E+03  0.00000000000E+00 0.  1.
         22   -1    0    0    0    0 -0.00000000000E+00 -0.00000000000E+00 -0.19469533663E+04  0.19469533663E+04  0.00000000000E+00 0.  1.
         24    2    1    2    0    0  0.12198760813E+03  0.31131412970E+02 -0.16891902648E+04  0.16957426082E+04  0.79555647492E+02 0.  0.
         25    2    1    2    0    0 -0.14843516640E+03  0.31957846638E+02 -0.20732517224E+03  0.28580676065E+03  0.12508986691E+03 0.  0.
        -24    2    1    2    0    0  0.26447558272E+02 -0.63089259608E+02  0.34012213087E+03  0.35596405756E+03  0.79671942071E+02 0.  0.
        -13    1    3    3    0    0  0.48522247857E+02  0.53354219006E+02 -0.84146020831E+03  0.84454506297E+03  0.00000000000E+00 0.  1.
         14    1    3    3    0    0  0.73465360275E+02 -0.22222806036E+02 -0.84773005648E+03  0.85119754518E+03  0.00000000000E+00 0. -1.
         13    1    5    5    0    0  0.21057125154E+02 -0.80588100979E+02  0.23655950037E+03  0.25079521876E+03  0.00000000000E+00 0. -1.
        -14    1    5    5    0    0  0.53904331175E+01  0.17498841371E+02  0.10356263050E+03  0.10516883880E+03  0.00000000000E+00 0.  1.
          5    1    4    4  501    0 -0.13299447292E+03  0.70949116902E+02 -0.13654264517E+03  0.20342731716E+03  0.41800000000E+01 0.  1.
         -5    1    4    4    0  501 -0.15440693486E+02 -0.38991270264E+02 -0.70782527067E+02  0.82379443493E+02  0.41800000000E+01 0.  1.
</event>
<event>
11    1  0.8039394E-009  0.1390603E+03  0.7561462E-02  0.1108612E+00
         22   -1    0    0    0    0  0.00000000000E+00  0.00000000000E+00  0.97683358205E+02  0.97683358205E+02  0.00000000000E+00 0.  1.
         22   -1    0    0    0    0 -0.00000000000E+00 -0.00000000000E+00 -0.67970503317E+03  0.67970503317E+03  0.00000000000E+00 0. -1.
        -24    2    1    2    0    0  0.29208004181E+02 -0.36653141346E+02 -0.46053540413E+03  0.46929319159E+03  0.77114725787E+02 0.  0.
         25    2    1    2    0    0 -0.61283310194E+02  0.77922957050E+02 -0.13972107598E+03  0.21212474755E+03  0.12508916064E+03 0.  0.
         24    2    1    2    0    0  0.32075306014E+02 -0.41269815704E+02  0.18234805138E+02  0.95970452236E+02  0.78395131481E+02 0.  0.
        -13    1    5    5    0    0  0.26121845485E+02 -0.49033700987E+02  0.42407319334E+02  0.69893028101E+02  0.00000000000E+00 0.  1.
         14    1    5    5    0    0  0.59534605283E+01  0.77638852832E+01 -0.24172514196E+02  0.26077424135E+02  0.00000000000E+00 0. -1.
         11    1    3    3    0    0  0.39869403621E+02 -0.55610223533E+02 -0.34167317548E+03  0.34845749403E+03  0.00000000000E+00 0. -1.
        -12    1    3    3    0    0 -0.10661399440E+02  0.18957082187E+02 -0.11886222865E+03  0.12083569756E+03  0.00000000000E+00 0.  1.
          5    1    4    4  501    0 -0.16751832550E+02  0.63672971050E+02 -0.15017974102E+03  0.16403139379E+03  0.41800000000E+01 0. -1.
         -5    1    4    4    0  501 -0.44531477644E+02  0.14249985999E+02  0.10458665040E+02  0.48093353767E+02  0.41800000000E+01 0. -1.
</event>
<event>
11    1  0.8039394E-009  0.1365936E+03  0.7561462E-02  0.1111423E+00
         22   -1    0    0    0    0  0.00000000000E+00  0.00000000000E+00  0.19996226318E+03  0.19996226318E+03  0.00000000000E+00 0. -1.
         22   -1    0    0    0    0 -0.00000000000E+00 -0.00000000000E+00 -0.79674741458E+03  0.79674741458E+03  0.00000000000E+00 0. -1.
         24    2    1    2    0    0 -0.14037569305E+02  0.40928078512E+02 -0.39370323213E+03  0.40406178539E+03  0.79947047844E+02 0.  0.
         25    2    1    2    0    0 -0.26785172878E+02 -0.76617782814E+02 -0.36851225973E+03  0.39753962779E+03  0.12509492381E+03 0.  0.
        -24    2    1    2    0    0  0.40822742183E+02  0.35689704302E+02  0.16543034046E+03  0.19510826458E+03  0.88089648018E+02 0.  0.
        -11    1    3    3    0    0 -0.14533313049E+02  0.65015836035E+02 -0.27716246409E+03  0.28505667441E+03  0.00000000000E+00 0.  1.
         12    1    3    3    0    0  0.49574374425E+00 -0.24087757523E+02 -0.11654076804E+03  0.11900511098E+03  0.00000000000E+00 0. -1.
         13    1    5    5    0    0  0.42198108474E+02  0.56053299192E+02  0.15886473325E+03  0.17366823595E+03  0.00000000000E+00 0. -1.
        -14    1    5    5    0    0 -0.13753662910E+01 -0.20363594889E+02  0.65656072133E+01  0.21440028622E+02  0.00000000000E+00 0.  1.
          5    1    4    4  501    0 -0.45001363915E+00 -0.10784140757E+03 -0.27437460186E+03  0.29483701641E+03  0.41800000000E+01 0. -1.
         -5    1    4    4    0  501 -0.26335159239E+02  0.31223624760E+02 -0.94137657871E+02  0.10270261138E+03  0.41800000000E+01 0. -1.
</event>
<event>
11    1  0.8039394E-009  0.1407903E+03  0.7561462E-02  0.1106679E+00
         22   -1    0    0    0    0  0.00000000000E+00  0.00000000000E+00  0.15532107617E+04  0.15532107617E+04  0.00000000000E+00 0. -1.
         22   -1    0    0    0    0 -0.00000000000E+00 -0.00000000000E+00 -0.34480217139E+02  0.34480217139E+02  0.00000000000E+00 0. -1.
        -24    2    1    2    0    0  0.61387911395E+02 -0.31641317828E+02  0.94962148446E+02  0.14276701845E+03  0.81209379146E+02 0.  0.
         25    2    1    2    0    0 -0.17213300010E+02  0.54500991734E+02  0.58448909104E+03  0.60045141179E+03  0.12509094523E+03 0.  0.
         24    2    1    2    0    0 -0.44174611385E+02 -0.22859673906E+02  0.83927930510E+03  0.84447254862E+03  0.79184420339E+02 0.  0.
        -11    1    5    5    0    0 -0.46983784752E+02  0.18789302981E+02  0.39275323572E+03  0.39599951780E+03  0.00000000000E+00 0.  1.
         12    1    5    5    0    0  0.28091733669E+01 -0.41648976887E+02  0.44652606938E+03  0.44847303082E+03  0.00000000000E+00 0. -1.
         11    1    3    3    0    0  0.26104305770E+02 -0.41252074325E+02  0.93956139799E+01  0.49713639757E+02  0.00000000000E+00 0. -1.
        -12    1    3    3    0    0  0.35283605625E+02  0.96107564970E+01  0.85566534466E+02  0.93053378697E+02  0.00000000000E+00 0.  1.
          5    1    4    4  501    0  0.42345490795E+02  0.80355635495E+01  0.86347738163E+02  0.96597697478E+02  0.41800000000E+01 0.  1.
         -5    1    4    4    0  501 -0.59558790805E+02  0.46465428184E+02  0.49814135288E+03  0.50385371432E+03  0.41800000000E+01 0.  1.
</event>
<event>
11    1  0.8039394E-009  0.1263173E+03  0.7561462E-02  0.1123878E+00
         22   -1    0    0    0    0  0.00000000000E+00  0.00000000000E+00  0.27097471674E+04  0.27097471674E+04  0.00000000000E+00 0.  1.
         22   -1    0    0    0    0 -0.00000000000E+00 -0.00000000000E+00 -0.17433342258E+03  0.17433342258E+03  0.00000000000E+00 0. -1.
         24    2    1    2    0    0  0.21879982871E+01 -0.17899223607E+02 -0.15288594831E+03  0.17374887818E+03  0.80556749781E+02 0.  0.
         25    2    1    2    0    0  0.12279933221E+02  0.10964457235E+01  0.36882071040E+03  0.38965248287E+03  0.12509333329E+03 0.  0.
        -24    2    1    2    0    0 -0.14467931508E+02  0.16802777884E+02  0.23194789828E+04  0.23206792290E+04  0.71257826753E+02 0.  0.
        -11    1    3    3    0    0 -0.14717838711E+02  0.13868413319E+02 -0.40496090094E+01  0.20623942335E+02  0.00000000000E+00 0.  1.
         12    1    3    3    0    0  0.16905836999E+02 -0.31767636926E+02 -0.14883633930E+03  0.15312493584E+03  0.00000000000E+00 0. -1.
         11    1    5    5    0    0 -0.41738861628E+01 -0.53157485395E+01  0.20794051244E+02  0.21864836505E+02  0.00000000000E+00 0. -1.
        -12    1    5    5    0    0 -0.10294045345E+02  0.22118526423E+02  0.22986849315E+04  0.22988143924E+04  0.00000000000E+00 0.  1.
          5    1    4    4  501    0  0.36178124094E+02 -0.16525342833E+02  0.31253851827E+02  0.50756470255E+02  0.41800000000E+01 0.  1.
         -5    1    4    4    0  501 -0.23898190873E+02  0.17621788556E+02  0.33756685857E+03  0.33889601261E+03  0.41800000000E+01 0.  1.
</event>
<event>
11    1  0.8039394E-009  0.1829227E+03  0.7561462E-02  0.1067303E+00
         22   -1    0    0    0    0  0.00000000000E+00  0.00000000000E+00  0.82442402723E+03  0.82442402723E+03  0.00000000000E+00 0.  1.
         22   -1    0    0    0    0 -0.00000000000E+00 -0.00000000000E+00 -0.24743234499E+03  0.24743234499E+03  0.00000000000E+00 0. -1.
        -24    2    1    2    0    0 -0.35925557042E+02  0.12693927758E+03 -0.15780662006E+03  0.22085533921E+03  0.80435848239E+02 0.  0.
         25    2    1    2    0    0  0.49733186035E+02 -0.13271099222E+03  0.10579534548E+03  0.21662592811E+03  0.12509412598E+03 0.  0.
         24    2    1    2    0    0 -0.13807628993E+02  0.57717146460E+01  0.62900295683E+03  0.63437510491E+03  0.81012904649E+02 0.  0.
        -11    1    5    5    0    0 -0.11061644606E+02 -0.34974290106E+02  0.40680022742E+03  0.40845071426E+03  0.00000000000E+00 0.  1.
         12    1    5    5    0    0 -0.27459843868E+01  0.40746004752E+02  0.22220272940E+03  0.22592439065E+03  0.00000000000E+00 0. -1.
         11    1    3    3    0    0 -0.35921445050E+02  0.83264717429E+02 -0.15172515938E+03  0.17675940533E+03  0.00000000000E+00 0. -1.
        -12    1    3    3    0    0 -0.41119918826E-02  0.43674560147E+02 -0.60814606828E+01  0.44095933883E+02  0.00000000000E+00 0.  1.
          5    1    4    4  501    0  0.71410701993E+02 -0.76645308211E+02  0.11506157990E+03  0.15566191313E+03  0.41800000000E+01 0. -1.
         -5    1    4    4    0  501 -0.21677515959E+02 -0.56065684011E+02 -0.92662344216E+01  0.60964014977E+02  0.41800000000E+01 0. -1.
</event>
<event>
11    1  0.8039394E-009  0.2065589E+03  0.7561462E-02  0.1049980E+00
         22   -1    0    0    0    0  0.00000000000E+00  0.00000000000E+00  0.55912845341E+03  0.55912845341E+03  0.00000000000E+00 0. -1.
         22   -1    0    0    0    0 -0.00000000000E+00 -0.00000000000E+00 -0.37149537982E+03  0.37149537982E+03  0.00000000000E+00 0.  1.
         24    2    1    2    0    0 -0.17137417230E+03 -0.34468037101E+02 -0.23151215500E+03  0.30180858761E+03  0.83266999063E+02 0.  0.
         25    2    1    2    0    0  0.12301284713E+03  0.73993489260E+02 -0.71221458655E+01  0.19054022141E+03  0.12509058318E+03 0.  0.
        -24    2    1    2    0    0  0.48361325170E+02 -0.39525452158E+02  0.42626737444E+03  0.43827502421E+03  0.80498715444E+02 0.  0.
        -13    1    3    3    0    0 -0.11010216889E+03 -0.60747899689E+02 -0.16686893784E+03  0.20894505815E+03  0.00000000000E+00 0.  1.
         14    1    3    3    0    0 -0.61272003408E+02  0.26279862588E+02 -0.64643217159E+02  0.92863529461E+02  0.00000000000E+00 0. -1.
         11    1    5    5    0    0  0.20343250937E+01 -0.50807890357E+01  0.29288125653E+03  0.29293238695E+03  0.00000000000E+00 0. -1.
        -12    1    5    5    0    0  0.46327000077E+02 -0.34444663123E+02  0.13338611792E+03  0.14534263726E+03  0.00000000000E+00 0.  1.
          5    1    4    4  501    0 -0.25304125704E+02  0.55464197244E+01  0.49096338364E+01  0.26695288982E+02  0.41800000000E+01 0.  1.
         -5    1    4    4    0  501  0.14831697283E+03  0.68447069535E+02 -0.12031779702E+02  0.16384493243E+03  0.41800000000E+01 0.  1.
</event>
<event>
11    1  0.8039394E-009  0.1276922E+03  0.7561462E-02  0.1122137E+00
         22   -1    0    0    0    0  0.00000000000E+00  0.00000000000E+00  0.26319585918E+03  0.26319585918E+03  0.00000000000E+00 0. -1.
         22   -1    0    0    0    0 -0.00000000000E+00 -0.00000000000E+00 -0.67263200926E+03  0.67263200926E+03  0.00000000000E+00 0.  1.
         24    2    1    2    0    0 -0.21028434910E+02 -0.65035456792E+01 -0.58878329052E+03  0.59390281210E+03  0.74634414631E+02 0.  0.
         25    2    1    2    0    0  0.10216663135E+02  0.30013168790E+02 -0.15203330576E+02  0.12993235427E+03  0.12508439119E+03 0.  0.
        -24    2    1    2    0    0  0.10811771774E+02 -0.23509623111E+02  0.19455047102E+03  0.21199270206E+03  0.80133782938E+02 0.  0.
        -11    1    3    3    0    0  0.13575621517E+02 -0.30262478476E+02 -0.33882782553E+03  0.34044736811E+03  0.00000000000E+00 0.  1.
         12    1    3    3    0    0 -0.34604056427E+02  0.23758932797E+02 -0.24995546499E+03  0.25345544399E+03  0.00000000000E+00 0. -1.
         13    1    5    5    0    0 -0.15183162296E+02  0.54813192830E+01  0.15723271696E+03  0.15805916791E+03  0.00000000000E+00 0. -1.
        -14    1    5    5    0    0  0.25994934071E+02 -0.28990942394E+02  0.37317754054E+02  0.53933534149E+02  0.00000000000E+00 0.  1.
          5    1    4    4  501    0 -0.55252588976E+01 -0.48422515881E+02 -0.67338261810E+01  0.49376971810E+02  0.41800000000E+01 0. -1.
         -5    1    4    4    0  501  0.15741922033E+02  0.78435684671E+02 -0.84695043954E+01  0.80555382463E+02  0.41800000000E+01 0. -1.
</event>
<event>
11    1  0.8039394E-009  0.1602293E+03  0.7561462E-02  0.1086862E+00
         22   -1    0    0    0    0  0.00000000000E+00  0.00000000000E+00  0.13861422372E+04  0.13861422372E+04  0.00000000000E+00 0. -1.
         22   -1    0    0    0    0 -0.00000000000E+00 -0.00000000000E+00 -0.86621240035E+02  0.86621240035E+02  0.00000000000E+00 0. -1.
        -24    2    1    2    0    0 -0.22650036996E+02 -0.84146016305E+02  0.27751972198E+02  0.12184182666E+03  0.80508897193E+02 0.  0.
         25    2    1    2    0    0 -0.16143581249E+02  0.15299750689E+03  0.23264718366E+03  0.30568038749E+03  0.12508770884E+03 0.  0.
         24    2    1    2    0    0  0.38793618244E+02 -0.68851490585E+02  0.10391218413E+04  0.10452412631E+04  0.80682243336E+02 0.  0.
        -11    1    5    5    0    0 -0.24221065252E+02 -0.22002968917E+02  0.39445993992E+03  0.39581489973E+03  0.00000000000E+00 0.  1.
         12    1    5    5    0    0  0.63014683497E+02 -0.46848521668E+02  0.64466190137E+03  0.64942636334E+03  0.00000000000E+00 0. -1.
         11    1    3    3    0    0 -0.49236455444E+02 -0.29999411525E+02  0.19990088694E+02  0.61022920960E+02  0.00000000000E+00 0. -1.
        -12    1    3    3    0    0  0.26586418448E+02 -0.54146604780E+02  0.77618835039E+01  0.60818905701E+02  0.00000000000E+00 0.  1.
          5    1    4    4  501    0  0.18659437496E+02  0.33890260029E+01  0.10246237348E+03  0.10428648275E+03  0.41800000000E+01 0. -1.
         -5    1    4    4    0  501 -0.34803018744E+02  0.14960848089E+03  0.13018481018E+03  0.20139390475E+03  0.41800000000E+01 0. -1.
</event>
<event>
11    1  0.8039394E-009  0.1933822E+03  0.7561462E-02  0.1059305E+00
         22   -1    0    0    0    0  0.00000000000E+00  0.00000000000E+00  0.16058561360E+04  0.16058561360E+04  0.00000000000E+00 0. -1.
         22   -1    0    0    0    0 -0.00000000000E+00 -0.00000000000E+00 -0.14399206000E+03  0.14399206000E+03  0.00000000000E+00 0.  1.
         24    2    1    2    0    0  0.10272353388E+03  0.98774936305E+02 -0.55950750149E+02  0.17290659287E+03  0.80359137370E+02 0.  0.
         25    2    1    2    0    0 -0.17055443839E+03 -0.95149447790E+02  0.47148884055E+03  0.52544567903E+03  0.12509676647E+03 0.  0.
        -24    2    1    2    0    0  0.67830904501E+02 -0.36254885154E+01  0.10463259856E+04  0.10514959241E+04  0.78939435657E+02 0.  0.
        -13    1    3    3    0    0  0.17385436349E+02  0.66120066003E+02 -0.42626867536E+02  0.80567774955E+02  0.00000000000E+00 0.  1.
         14    1    3    3    0    0  0.85338097536E+02  0.32654870302E+02 -0.13323882613E+02  0.92338817912E+02  0.00000000000E+00 0. -1.
         13    1    5    5    0    0 -0.13809519233E+02 -0.85133857765E+01  0.35130254294E+03  0.35167692167E+03  0.00000000000E+00 0. -1.
        -14    1    5    5    0    0  0.81640423734E+02  0.48878972611E+01  0.69502344262E+03  0.69981900240E+03  0.00000000000E+00 0.  1.
          5    1    4    4  501    0  0.28579389569E+00  0.23479693887E+02  0.51843906068E+02  0.57066984322E+02  0.41800000000E+01 0. -1.
         -5    1    4    4    0  501 -0.17084023228E+03 -0.11862914168E+03  0.41964493448E+03  0.46837869471E+03  0.41800000000E+01 0. -1.
</event>
<event>
11    1  0.8039394E-009  0.1442084E+03  0.7561462E-02  0.1102948E+00
         22   -1    0    0    0    0  0.00000000000E+00  0.00000000000E+00  0.68844121671E+03  0.68844121671E+03  0.00000000000E+00 0. -1.
         22   -1    0    0    0    0 -0.00000000000E+00 -0.00000000000E+00 -0.13593434263E+03  0.13593434263E+03  0.00000000000E+00 0. -1.
         24    2    1    2    0    0  0.57926343777E+02 -0.35274867685E+01 -0.80642404175E+02  0.12718683383E+03  0.79406478837E+02 0.  0.
         25    2    1    2    0    0 -0.11757693771E+03  0.32942134426E+01  0.26567233715E+03  0.31632869577E+03  0.12508742911E+03 0.  0.
        -24    2    1    2    0    0  0.59650593930E+02  0.23327332594E+00  0.36747694112E+03  0.38086002974E+03  0.80354291926E+02 0.  0.
        -13    1    3    3    0    0 -0.17741602838E+02 -0.12288664651E+02 -0.23898976843E+02  0.32201503758E+02  0.00000000000E+00 0.  1.
         14    1    3    3    0    0  0.75667946614E+02  0.87611778824E+01 -0.56743427331E+02  0.94985330067E+02  0.00000000000E+00 0. -1.
         13    1    5    5    0    0  0.45433133787E+02  0.14533710476E+02  0.35257200613E+03  0.35578422941E+03  0.00000000000E+00 0. -1.
        -14    1    5    5    0    0  0.14217460144E+02 -0.14300437150E+02  0.14904934982E+02  0.25075800335E+02  0.00000000000E+00 0.  1.
          5    1    4    4  501    0  0.22512385853E+02 -0.16078501692E+02  0.65279361364E+02  0.71022483436E+02  0.41800000000E+01 0. -1.
         -5    1    4    4    0  501 -0.14008932356E+03  0.19372715135E+02  0.20039297578E+03  0.24530621234E+03  0.41800000000E+01 0. -1.
</event>
<event>
11    1  0.8039394E-009  0.1339047E+03  0.7561462E-02  0.1114562E+00
         22   -1    0    0    0    0  0.00000000000E+00  0.00000000000E+00  0.28983150508E+03  0.28983150508E+03  0.00000000000E+00 0.  1.
         22   -1    0    0    0    0 -0.00000000000E+00 -0.00000000000E+00 -0.25431871373E+04  0.25431871373E+04  0.00000000000E+00 0. -1.
         24    2    1    2    0    0  0.11880382790E+02  0.46824576739E+02 -0.24399411724E+04  0.24417611503E+04  0.80937668236E+02 0.  0.
         25    2    1    2    0    0  0.15072755345E+02 -0.29595387612E+02 -0.50351471425E+02  0.13885294544E+03  0.12506716141E+03 0.  0.
        -24    2    1    2    0    0 -0.26953138135E+02 -0.17229189127E+02  0.23693701162E+03  0.25240454656E+03  0.80904827025E+02 0.  0.
        -13    1    3    3    0    0 -0.50369616190E+01  0.11380703741E+02 -0.50979539971E+02  0.52476708125E+02  0.00000000000E+00 0.  1.
         14    1    3    3    0    0  0.16917344409E+02  0.35443872998E+02 -0.23889616324E+04  0.23892844422E+04  0.00000000000E+00 0. -1.
         13    1    5    5    0    0  0.10498182631E+02  0.95902313882E+01  0.37417455512E+01  0.14703232175E+02  0.00000000000E+00 0. -1.
        -14    1    5    5    0    0 -0.37451320766E+02 -0.26819420515E+02  0.23319526607E+03  0.23770131438E+03  0.00000000000E+00 0.  1.
          5    1    4    4  501    0 -0.15512559373E+02 -0.34310730776E+02 -0.84484485413E+02  0.92590314937E+02  0.41800000000E+01 0.  1.
         -5    1    4    4    0  501  0.30585314718E+02  0.47153431637E+01  0.34133013988E+02  0.46262630507E+02  0.41800000000E+01 0.  1.
</event>
<event>
11    1  0.8039394E-009  0.1318259E+03  0.7561462E-02  0.1117046E+00
         22   -1    0    0    0    0  0.00000000000E+00  0.00000000000E+00  0.34608740931E+03  0.34608740931E+03  0.00000000000E+00 0. -1.
         22   -1    0    0    0    0 -0.00000000000E+00 -0.00000000000E+00 -0.39211491753E+03  0.39211491753E+03  0.00000000000E+00 0.  1.
        -24    2    1    2    0    0  0.16131154721E+02 -0.41717486312E+01 -0.30387290869E+03  0.31427434946E+03  0.78434714589E+02 0.  0.
         25    2    1    2    0    0  0.16955913992E+02 -0.23370963185E+02 -0.20200393410E+02  0.12995511914E+03  0.12508625886E+03 0.  0.
         24    2    1    2    0    0 -0.33087068714E+02  0.27542711816E+02  0.27804579388E+03  0.29397285825E+03  0.85189335020E+02 0.  0.
        -11    1    5    5    0    0 -0.50393575611E+02  0.46522770835E+00  0.23449470605E+03  0.23984890257E+03  0.00000000000E+00 0.  1.
         12    1    5    5    0    0  0.17306506898E+02  0.27077484108E+02  0.43551087828E+02  0.54123955672E+02  0.00000000000E+00 0. -1.
         11    1    3    3    0    0  0.27359570923E+02 -0.34399608941E+02 -0.22141885586E+03  0.22573920560E+03  0.00000000000E+00 0. -1.
        -12    1    3    3    0    0 -0.11228416202E+02  0.30227860310E+02 -0.82454052830E+02  0.88535143855E+02  0.00000000000E+00 0.  1.
          5    1    4    4  501    0  0.27763486975E+02  0.20655675934E+02 -0.60062546152E+02  0.69443862275E+02  0.41800000000E+01 0. -1.
         -5    1    4    4    0  501 -0.10807572983E+02 -0.44026639118E+02  0.39862152742E+02  0.60511256863E+02  0.41800000000E+01 0. -1.
</event>
<event>
11    1  0.8039394E-009  0.1650911E+03  0.7561462E-02  0.1082384E+00
         22   -1    0    0    0    0  0.00000000000E+00  0.00000000000E+00  0.56947081977E+03  0.56947081977E+03  0.00000000000E+00 0.  1.
         22   -1    0    0    0    0 -0.00000000000E+00 -0.00000000000E+00 -0.36147505552E+03  0.36147505552E+03  0.00000000000E+00 0. -1.
        -24    2    1    2    0    0 -0.10331563634E+03 -0.31375281960E+02 -0.27798937062E+03  0.30879932828E+03  0.80127435602E+02 0.  0.
         25    2    1    2    0    0  0.10523513767E+03  0.18387019170E+02  0.40861140698E+02  0.16949732468E+03  0.12508874282E+03 0.  0.
         24    2    1    2    0    0 -0.19195013271E+01  0.12988262790E+02  0.44512399418E+03  0.45264922233E+03  0.81139194153E+02 0.  0.
        -11    1    5    5    0    0  0.14489648399E+02  0.18351736987E+02  0.42692469581E+03  0.42756453554E+03  0.00000000000E+00 0.  1.
         12    1    5    5    0    0 -0.16409149726E+02 -0.53634741967E+01  0.18199298370E+02  0.25084686790E+02  0.00000000000E+00 0. -1.
         11    1    3    3    0    0 -0.10718838198E+03 -0.23564166969E+02 -0.27920166363E+03  0.29999698027E+03  0.00000000000E+00 0. -1.
        -12    1    3    3    0    0  0.38727456425E+01 -0.78111149909E+01  0.12122930042E+01  0.88023480129E+01  0.00000000000E+00 0.  1.
          5    1    4    4  501    0  0.58854719853E+01  0.46593770762E+02  0.46182917828E+02  0.65999640555E+02  0.41800000000E+01 0.  1.
         -5    1    4    4    0  501  0.99349665683E+02 -0.28206751592E+02 -0.53217771303E+01  0.10349768412E+03  0.41800000000E+01 0.  1.
</event>
<event>
11    1  0.8039394E-009  0.1490518E+03  0.7561462E-02  0.1097852E+00
         22   -1    0    0    0    0  0.00000000000E+00  0.00000000000E+00  0.51404325595E+03  0.51404325595E+03  0.00000000000E+00 0.  1.
         22   -1    0    0    0    0 -0.00000000000E+00 -0.00000000000E+00 -0.72855233818E+03  0.72855233818E+03  0.00000000000E+00 0. -1.
         24    2    1    2    0    0  0.72258923545E+02  0.53040699302E+02 -0.53958951700E+03  0.55265107923E+03  0.78941121742E+02 0.  0.
         25    2    1    2    0    0 -0.60554781642E+02  0.10803770262E+02 -0.14848820629E+03  0.20366607676E+03  0.12509004911E+03 0.  0.
        -24    2    1    2    0    0 -0.11704141903E+02 -0.63844469564E+02  0.47356864105E+03  0.48627843814E+03  0.89366427598E+02 0.  0.
        -13    1    3    3    0    0  0.78965128290E+02  0.20462278869E+02 -0.30520119982E+03  0.31591449589E+03  0.00000000000E+00 0.  1.
         14    1    3    3    0    0 -0.67062047448E+01  0.32578420432E+02 -0.23438831718E+03  0.23673658334E+03  0.00000000000E+00 0. -1.
         11    1    5    5    0    0 -0.11709456532E+02 -0.62509835567E+02  0.15279437536E+03  0.16550139593E+03  0.00000000000E+00 0. -1.
        -12    1    5    5    0    0  0.53146285240E-02 -0.13346339969E+01  0.32077426569E+03  0.32077704221E+03  0.00000000000E+00 0.  1.
          5    1    4    4  501    0 -0.71337386419E+02 -0.32289667277E+02 -0.13657306810E+03  0.15748435048E+03  0.41800000000E+01 0. -1.
         -5    1    4    4    0  501  0.10782604776E+02  0.43093437539E+02 -0.11915138184E+02  0.46181726284E+02  0.41800000000E+01 0. -1.
</event>
<event>
11    1  0.8039394E-009  0.1409240E+03  0.7561462E-02  0.1106531E+00
         22   -1    0    0    0    0  0.00000000000E+00  0.00000000000E+00  0.43554863547E+02  0.43554863547E+02  0.00000000000E+00 0.  1.
         22   -1    0    0    0    0 -0.00000000000E+00 -0.00000000000E+00 -0.65637755897E+03  0.65637755897E+03  0.00000000000E+00 0. -1.
         24    2    1    2    0    0  0.11645754870E+02 -0.29775337468E+02 -0.13400971622E+03  0.15777152660E+03  0.76883393773E+02 0.  0.
         25    2    1    2    0    0  0.15731339474E+02 -0.48929097461E+02 -0.32780849051E+03  0.35460865424E+03  0.12508940639E+03 0.  0.
        -24    2    1    2    0    0 -0.27377094344E+02  0.78704434929E+02 -0.15100448869E+03  0.18755224167E+03  0.73685781385E+02 0.  0.
        -13    1    3    3    0    0  0.29942512295E+02  0.14398458698E+02 -0.37731564785E+02  0.50274652029E+02  0.00000000000E+00 0.  1.
         14    1    3    3    0    0 -0.18296757426E+02 -0.44173796167E+02 -0.96278151432E+02  0.10749687457E+03  0.00000000000E+00 0. -1.
         11    1    5    5    0    0 -0.10743673496E+02  0.42703034577E+01 -0.87627720471E+02  0.88387099776E+02  0.00000000000E+00 0. -1.
        -12    1    5    5    0    0 -0.16633420848E+02  0.74434131471E+02 -0.63376768223E+02  0.99165141896E+02  0.00000000000E+00 0.  1.
          5    1    4    4  501    0 -0.36071184047E+02 -0.55898669226E+02 -0.26262335362E+03  0.27095071472E+03  0.41800000000E+01 0.  1.
         -5    1    4    4    0  501  0.51802523522E+02  0.69695717655E+01 -0.65185136891E+02  0.83657939523E+02  0.41800000000E+01 0.  1.
</event>
<event>
11    1  0.8039394E-009  0.1413741E+03  0.7561462E-02  0.1106034E+00
         22   -1    0    0    0    0  0.00000000000E+00  0.00000000000E+00  0.18197795076E+04  0.18197795076E+04  0.00000000000E+00 0.  1.
         22   -1    0    0    0    0 -0.00000000000E+00 -0.00000000000E+00 -0.16852139493E+03  0.16852139493E+03  0.00000000000E+00 0. -1.
         24    2    1    2    0    0 -0.13358490792E+02  0.22544774848E+02 -0.12044797430E+03  0.14871907298E+03  0.83204158587E+02 0.  0.
         25    2    1    2    0    0 -0.19096154409E+02  0.36176668537E+02  0.10142800225E+03  0.16615569700E+03  0.12508661617E+03 0.  0.
        -24    2    1    2    0    0  0.32454645202E+02 -0.58721443385E+02  0.16702780847E+04  0.16734261325E+04  0.77618483154E+02 0.  0.
        -13    1    3    3    0    0 -0.55281877863E+01  0.53559866810E+02 -0.62222527646E+02  0.82285254691E+02  0.00000000000E+00 0.  1.
         14    1    3    3    0    0 -0.78303030061E+01 -0.31015091962E+02 -0.58225446651E+02  0.66433818288E+02  0.00000000000E+00 0. -1.
         11    1    5    5    0    0 -0.24763619206E+02 -0.25861844353E+02  0.49124046089E+03  0.49254366532E+03  0.00000000000E+00 0. -1.
        -12    1    5    5    0    0  0.57218264408E+02 -0.32859599032E+02  0.11790376238E+04  0.11808824672E+04  0.00000000000E+00 0.  1.
          5    1    4    4  501    0  0.34227197105E+01  0.63936375699E+02  0.11162326628E+03  0.12875092669E+03  0.41800000000E+01 0.  1.
         -5    1    4    4    0  501 -0.22518874120E+02 -0.27759707162E+02 -0.10195264034E+02  0.37404770312E+02  0.41800000000E+01 0.  1.
</event>
<event>
11    1  0.8039394E-009  0.2223223E+03  0.7561462E-02  0.1039772E+00
         22   -1    0    0    0    0  0.00000000000E+00  0.00000000000E+00  0.56275042419E+03  0.56275042419E+03  0.00000000000E+00 0.  1.
         22   -1    0    0    0    0 -0.00000000000E+00 -0.00000000000E+00 -0.21827195888E+04  0.21827195888E+04  0.00000000000E+00 0.  1.
        -24    2    1    2    0    0 -0.18244411466E+03  0.15079018541E+02 -0.20410923569E+04  0.20508307517E+04  0.79596049069E+02 0.  0.
         25    2    1    2    0    0  0.20415141609E+03  0.39518268056E+02 -0.18574244597E+02  0.24337622417E+03  0.12508992657E+03 0.  0.
         24    2    1    2    0    0 -0.21707301428E+02 -0.54597286597E+02  0.43969743685E+03  0.45126303715E+03  0.82779357871E+02 0.  0.
        -13    1    5    5    0    0 -0.46602646575E+02 -0.83823634043E+01  0.24955984449E+03  0.25401217818E+03  0.00000000000E+00 0.  1.
         14    1    5    5    0    0  0.24895345147E+02 -0.46214923193E+02  0.19013759236E+03  0.19725085897E+03  0.00000000000E+00 0. -1.
         11    1    3    3    0    0 -0.36339674644E+02  0.26535103424E+02 -0.27384023694E+03  0.27751244843E+03  0.00000000000E+00 0. -1.
        -12    1    3    3    0    0 -0.14610444001E+03 -0.11456084882E+02 -0.17672521199E+04  0.17733183033E+04  0.00000000000E+00 0.  1.
          5    1    4    4  501    0  0.18499271132E+03  0.49900017335E+02 -0.56178223474E+02  0.19971424627E+03  0.41800000000E+01 0. -1.
         -5    1    4    4    0  501  0.19158704764E+02 -0.10381749279E+02  0.37603978877E+02  0.43661977895E+02  0.41800000000E+01 0. -1.
</event>
<event>
11    1  0.8039394E-009  0.1764218E+03  0.7561462E-02  0.1072575E+00
         22   -1    0    0    0    0  0.00000000000E+00  0.00000000000E+00  0.56876337392E+03  0.56876337392E+03  0.00000000000E+00 0.  1.
         22   -1    0    0    0    0 -0.00000000000E+00 -0.00000000000E+00 -0.28632592802E+03  0.28632592802E+03  0.00000000000E+00 0. -1.
         24    2    1    2    0    0 -0.86229362272E+02  0.93293910928E+02 -0.21349873276E+03  0.26106896860E+03  0.80224938407E+02 0.  0.
         25    2    1    2    0    0  0.77519923228E+02 -0.74946273265E+02  0.10616065325E+03  0.19632490452E+03  0.12508837461E+03 0.  0.
        -24    2    1    2    0    0  0.87094390437E+01 -0.18347637663E+02  0.38977552542E+03  0.39769542882E+03  0.76316471065E+02 0.  0.
        -11    1    3    3    0    0 -0.94556850063E+01  0.44304984190E+02 -0.25048918665E+02  0.51766687447E+02  0.00000000000E+00 0.  1.
         12    1    3    3    0    0 -0.76773677265E+02  0.48988926738E+02 -0.18844981410E+03  0.20930228116E+03  0.00000000000E+00 0. -1.
         11    1    5    5    0    0  0.31265932807E+02 -0.33356327897E+02  0.16244164185E+03  0.16875274864E+03  0.00000000000E+00 0. -1.
        -12    1    5    5    0    0 -0.22556493764E+02  0.15008690234E+02  0.22733388357E+03  0.22894268019E+03  0.00000000000E+00 0.  1.
          5    1    4    4  501    0  0.76319364386E+02  0.12081081018E+02  0.41419991452E+02  0.87770644242E+02  0.41800000000E+01 0. -1.
         -5    1    4    4    0  501  0.12005588422E+01 -0.87027354282E+02  0.64740661793E+02  0.10855426028E+03  0.41800000000E+01 0. -1.
</event>
<event>
11    1  0.8039394E-009  0.1374498E+03  0.7561462E-02  0.1110440E+00
         22   -1    0    0    0    0  0.00000000000E+00  0.00000000000E+00  0.25023615698E+03  0.25023615698E+03  0.00000000000E+00 0.  1.
         22   -1    0    0    0    0 -0.00000000000E+00 -0.00000000000E+00 -0.33182983605E+03  0.33182983605E+03  0.00000000000E+00 0.  1.
         24    2    1    2    0    0 -0.73661153797E+01 -0.58390351471E+02 -0.24117768470E+03  0.25937372860E+03  0.75128973724E+02 0.  0.
         25    2    1    2    0    0  0.12122538701E+02  0.43302687530E+02 -0.13789200843E+02  0.13363998686E+03  0.12508966918E+03 0.  0.
        -24    2    1    2    0    0 -0.47564233216E+01  0.15087663941E+02  0.17337320647E+03  0.18905227757E+03  0.73703688965E+02 0.  0.
        -11    1    3    3    0    0 -0.16860757045E+02 -0.62430055067E+02 -0.10860086496E+03  0.12639598401E+03  0.00000000000E+00 0.  1.
         12    1    3    3    0    0  0.94946416657E+01  0.40397035964E+01 -0.13257681973E+03  0.13297774459E+03  0.00000000000E+00 0. -1.
         11    1    5    5    0    0 -0.36532754119E+01  0.42483821340E+02  0.68782740655E+02  0.80927664670E+02  0.00000000000E+00 0. -1.
        -12    1    5    5    0    0 -0.11031479097E+01 -0.27396157399E+02  0.10459046582E+03  0.10812461290E+03  0.00000000000E+00 0.  1.
          5    1    4    4  501    0  0.47403406441E+02  0.72588114732E+02 -0.66849409334E+01  0.87053306530E+02  0.41800000000E+01 0. -1.
         -5    1    4    4    0  501 -0.35280867740E+02 -0.29285427203E+02 -0.71042599096E+01  0.46586680326E+02  0.41800000000E+01 0. -1.
</event>
<event>
11    1  0.8039394E-009  0.1287185E+03  0.7561462E-02  0.1120854E+00
         22   -1    0    0    0    0  0.00000000000E+00  0.00000000000E+00  0.73642850800E+03  0.73642850800E+03  0.00000000000E+00 0.  1.
         22   -1    0    0    0    0 -0.00000000000E+00 -0.00000000000E+00 -0.82938577526E+03  0.82938577526E+03  0.00000000000E+00 0.  1.
        -24    2    1    2    0    0  0.22813924933E+02  0.20075110982E+02 -0.79517677987E+03  0.79976440946E+03  0.79959453100E+02 0.  0.
         25    2    1    2    0    0 -0.35832737866E+01  0.70633755182E+01  0.10782686091E+03  0.16533949665E+03  0.12509111116E+03 0.  0.
         24    2    1    2    0    0 -0.19230651147E+02 -0.27138486500E+02  0.59439265170E+03  0.60071037715E+03  0.80274637526E+02 0.  0.
        -11    1    5    5    0    0 -0.27680559041E+02 -0.52731375365E+02  0.38200748967E+03  0.38662195160E+03  0.00000000000E+00 0.  1.
         12    1    5    5    0    0  0.84499078941E+01  0.25592888865E+02  0.21238516203E+03  0.21408842555E+03  0.00000000000E+00 0. -1.
         11    1    3    3    0    0 -0.17336682272E+02 -0.11544596557E+02 -0.76872258372E+02  0.79644098144E+02  0.00000000000E+00 0. -1.
        -12    1    3    3    0    0  0.40150607205E+02  0.31619707539E+02 -0.71830452150E+03  0.72012031131E+03  0.00000000000E+00 0.  1.
          5    1    4    4  501    0 -0.27524791300E+02 -0.11864092511E+02 -0.18393734813E+02  0.35414300891E+02  0.41800000000E+01 0.  1.
         -5    1    4    4    0  501  0.23941517513E+02  0.18927468029E+02  0.12622059573E+03  0.12992519576E+03  0.41800000000E+01 0.  1.
</event>
<event>
11    1  0.8039394E-009  0.1625208E+03  0.7561462E-02  0.1084730E+00
         22   -1    0    0    0    0  0.00000000000E+00  0.00000000000E+00  0.34916791354E+03  0.34916791354E+03  0.00000000000E+00 0.  1.
         22   -1    0    0    0    0 -0.00000000000E+00 -0.00000000000E+00 -0.63579492644E+03  0.63579492644E+03  0.00000000000E+00 0. -1.
         24    2    1    2    0    0  0.35246856973E+02 -0.26236753028E+02 -0.55287634537E+03  0.56032769007E+03  0.79775678316E+02 0.  0.
         25    2    1    2    0    0 -0.11807517834E+03  0.69755770733E+02  0.81479876818E+02  0.20271605252E+03  0.12508881777E+03 0.  0.
        -24    2    1    2    0    0  0.82828321369E+02 -0.43519017705E+02  0.18476945566E+03  0.22191909740E+03  0.79711343764E+02 0.  0.
        -13    1    3    3    0    0 -0.23613696211E+02  0.22210446372E+01 -0.10107826335E+03  0.10382367268E+03  0.00000000000E+00 0.  1.
         14    1    3    3    0    0  0.58860553184E+02 -0.28457797665E+02 -0.45179808203E+03  0.45650401739E+03  0.00000000000E+00 0. -1.
         11    1    5    5    0    0  0.41669262577E+02 -0.53807953797E+02  0.62137707815E+02  0.92155944290E+02  0.00000000000E+00 0. -1.
        -12    1    5    5    0    0  0.41159058792E+02  0.10288936092E+02  0.12263174784E+03  0.12976315311E+03  0.00000000000E+00 0.  1.
          5    1    4    4  501    0 -0.18186122102E+02  0.20557955034E+02  0.86831058985E+02  0.91161777937E+02  0.41800000000E+01 0. -1.
         -5    1    4    4    0  501 -0.99889056240E+02  0.49197815699E+02 -0.53511821667E+01  0.11155427458E+03  0.41800000000E+01 0. -1.
</event>
<event>
11    1  0.8039394E-009  0.2109351E+03  0.7561462E-02  0.1047049E+00
         22   -1    0    0    0    0  0.00000000000E+00  0.00000000000E+00  0.87247119018E+03  0.87247119018E+03  0.00000000000E+00 0.  1.
         22   -1    0    0    0    0 -0.00000000000E+00 -0.00000000000E+00 -0.34593139239E+03  0.34593139239E+03  0.00000000000E+00 0. -1.
        -24    2    1    2    0    0  0.64724460781E+02  0.12458984323E+02 -0.22804779049E+03  0.25037176789E+03  0.79597395023E+02 0.  0.
         25    2    1    2    0    0 -0.18451790145E+03  0.10154406614E+03  0.64065751657E+02  0.25319945466E+03  0.12508992756E+03 0.  0.
         24    2    1    2    0    0  0.11979344067E+03 -0.11400305046E+03  0.69052183661E+03  0.71483136003E+03  0.82560901764E+02 0.  0.
        -13    1    5    5    0    0  0.10712648455E+03 -0.11852289956E+03  0.67760451492E+03  0.69618362524E+03  0.00000000000E+00 0.  1.
         14    1    5    5    0    0  0.12666956119E+02  0.45198490918E+01  0.12917321696E+02  0.18647734794E+02  0.00000000000E+00 0. -1.
         11    1    3    3    0    0  0.81856173143E+02  0.10774461050E+02 -0.20890004929E+03  0.22462357999E+03  0.00000000000E+00 0. -1.
        -12    1    3    3    0    0 -0.17131712362E+02  0.16845232727E+01 -0.19147741194E+02  0.25748187896E+02  0.00000000000E+00 0.  1.
          5    1    4    4  501    0 -0.19888222519E+03  0.11040204986E+03  0.61009113850E+02  0.23554688808E+03  0.41800000000E+01 0. -1.
         -5    1    4    4    0  501  0.14364323737E+02 -0.88579837236E+01  0.30566378076E+01  0.17652566577E+02  0.41800000000E+01 0. -1.
</event>
<event>
11    1  0.8039394E-009  0.1314165E+03  0.7561462E-02  0.1117541E+00
         22   -1    0    0    0    0  0.00000000000E+00  0.00000000000E+00  0.20115098824E+03  0.20115098824E+03  0.00000000000E+00 0.  1.
         22   -1    0    0    0    0 -0.00000000000E+00 -0.00000000000E+00 -0.40999961188E+03  0.40999961188E+03  0.00000000000E+00 0.  1.
        -24    2    1    2    0    0  0.11716923936E+01 -0.40498017831E+02 -0.33838749634E+03  0.35001341551E+03  0.79761087315E+02 0.  0.
         25    2    1    2    0    0 -0.23968677596E+02  0.35688823042E+02  0.38186132924E+02  0.13767337479E+03  0.12509031850E+03 0.  0.
         24    2    1    2    0    0  0.22796985202E+02  0.48091947891E+01  0.91352739771E+02  0.12346380982E+03  0.79719247258E+02 0.  0.
        -13    1    5    5    0    0  0.27249315932E+02 -0.29256251053E+02  0.20975674688E+02  0.45149001906E+02  0.00000000000E+00 0.  1.
         14    1    5    5    0    0 -0.44523307304E+01  0.34065445842E+02  0.70377065083E+02  0.78314807917E+02  0.00000000000E+00 0. -1.
         11    1    3    3    0    0 -0.30305145278E+02 -0.22743250842E+01 -0.60010431468E+02  0.67266828898E+02  0.00000000000E+00 0. -1.
        -12    1    3    3    0    0  0.31476837672E+02 -0.38223692747E+02 -0.27837706487E+03  0.28274658661E+03  0.00000000000E+00 0.  1.
          5    1    4    4  501    0 -0.31650519443E+02  0.40539728613E+02 -0.35934747085E+02  0.62880866924E+02  0.41800000000E+01 0. -1.
         -5    1    4    4    0  501  0.76818418477E+01 -0.48509055708E+01  0.74120880010E+02  0.74792507863E+02  0.41800000000E+01 0. -1.
</event>
<event>
11    1  0.8039394E-009  0.1768505E+03  0.7561462E-02  0.1072219E+00
         22   -1    0    0    0    0  0.00000000000E+00  0.00000000000E+00  0.25084911774E+03  0.25084911774E+03  0.00000000000E+00 0. -1.
         22   -1    0    0    0    0 -0.00000000000E+00 -0.00000000000E+00 -0.71581970477E+03  0.71581970477E+03  0.00000000000E+00 0.  1.
         24    2    1    2    0    0 -0.76321509183E+02 -0.36341134787E+02 -0.55187919507E+03  0.56420547377E+03  0.81311252890E+02 0.  0.
         25    2    1    2    0    0  0.15232073307E+03 -0.55998633659E+02 -0.40956128310E+02  0.20895476191E+03  0.12508890992E+03 0.  0.
        -24    2    1    2    0    0 -0.75999223890E+02  0.92339768446E+02  0.12786473635E+03  0.19350858683E+03  0.82423707181E+02 0.  0.
        -13    1    3    3    0    0 -0.15110519123E+02 -0.92992832938E+01 -0.36968824686E+03  0.37011377213E+03  0.00000000000E+00 0.  1.
         14    1    3    3    0    0 -0.61210990059E+02 -0.27041851493E+02 -0.18219094821E+03  0.19409170164E+03  0.00000000000E+00 0. -1.
         11    1    5    5    0    0 -0.46388326434E+02 -0.11119184977E+01  0.50888506660E+02  0.68867650622E+02  0.00000000000E+00 0. -1.
        -12    1    5    5    0    0 -0.29610897456E+02  0.93451686944E+02  0.76976229691E+02  0.12464093621E+03  0.00000000000E+00 0.  1.
          5    1    4    4  501    0  0.11890040934E+03 -0.94480059831E+02 -0.42614840542E+02  0.15778873877E+03  0.41800000000E+01 0.  1.
         -5    1    4    4    0  501  0.33420323728E+02  0.38481426171E+02  0.16587122318E+01  0.51166023146E+02  0.41800000000E+01 0.  1.
</event>
<event>
11    1  0.8039394E-009  0.2829874E+03  0.7561462E-02  0.1007660E+00
         22   -1    0    0    0    0  0.00000000000E+00  0.00000000000E+00  0.40183383563E+03  0.40183383563E+03  0.00000000000E+00 0. -1.
         22   -1    0    0    0    0 -0.00000000000E+00 -0.00000000000E+00 -0.31071539715E+03  0.31071539715E+03  0.00000000000E+00 0.  1.
        -24    2    1    2    0    0  0.32900769801E+02  0.84535953213E+01 -0.25457034065E+02  0.95289854771E+02  0.85312202594E+02 0.  0.
         25    2    1    2    0    0 -0.27659127401E+03 -0.28299917992E+02 -0.51774449723E+02  0.30924207685E+03  0.12508577150E+03 0.  0.
         24    2    1    2    0    0  0.24369050421E+03  0.19846322671E+02  0.16834992227E+03  0.30801730117E+03  0.82182863942E+02 0.  0.
        -11    1    5    5    0    0  0.13495929289E+02  0.24036008778E+02  0.14919657038E+02  0.31344313543E+02  0.00000000000E+00 0.  1.
         12    1    5    5    0    0  0.23019457492E+03 -0.41896861073E+01  0.15343026523E+03  0.27667298762E+03  0.00000000000E+00 0. -1.
         13    1    3    3    0    0 -0.70995481286E+01 -0.33232108230E+02 -0.76188351349E+01  0.34825611981E+02  0.00000000000E+00 0. -1.
        -14    1    3    3    0    0  0.40000317929E+02  0.41685703552E+02 -0.17838198930E+02  0.60464242789E+02  0.00000000000E+00 0.  1.
          5    1    4    4  501    0 -0.11543442345E+03 -0.41617700996E+02 -0.77870221899E+02  0.14539045021E+03  0.41800000000E+01 0.  1.
         -5    1    4    4    0  501 -0.16115685056E+03  0.13317783004E+02  0.26095772176E+02  0.16385162664E+03  0.41800000000E+01 0.  1.
</event>
<event>
11    1  0.8039394E-009  0.1451148E+03  0.7561462E-02  0.1101978E+00
         22   -1    0    0    0    0  0.00000000000E+00  0.00000000000E+00  0.16703023444E+04  0.16703023444E+04  0.00000000000E+00 0.  1.
         22   -1    0    0    0    0 -0.00000000000E+00 -0.00000000000E+00 -0.59745416930E+03  0.59745416930E+03  0.00000000000E+00 0.  1.
         24    2    1    2    0    0 -0.41480761204E+02 -0.66713841877E+02 -0.52311795287E+03  0.53498314978E+03  0.79894853901E+02 0.  0.
         25    2    1    2    0    0 -0.27333531754E+02  0.36488011668E+02  0.41091456650E-01  0.13313359455E+03  0.12508419307E+03 0.  0.
        -24    2    1    2    0    0  0.68814292957E+02  0.30225830209E+02  0.15959250365E+04  0.15996397693E+04  0.78877511475E+02 0.  0.
        -11    1    3    3    0    0 -0.61524178814E+02 -0.62555400848E+02 -0.46871334579E+03  0.47685490799E+03  0.00000000000E+00 0.  1.
         12    1    3    3    0    0  0.20043417610E+02 -0.41584410296E+01 -0.54404607086E+02  0.58128241789E+02  0.00000000000E+00 0. -1.
         11    1    5    5    0    0  0.16762980994E+02 -0.58512451226E+01  0.64309177488E+02  0.66715102566E+02  0.00000000000E+00 0. -1.
        -12    1    5    5    0    0  0.52051311964E+02  0.36077075332E+02  0.15316158590E+04  0.15329246668E+04  0.00000000000E+00 0.  1.
          5    1    4    4  501    0 -0.13686474101E+02  0.42527052155E+02 -0.57845538084E+02  0.73208253733E+02  0.41800000000E+01 0. -1.
         -5    1    4    4    0  501 -0.13647057653E+02 -0.60390404868E+01  0.57886629541E+02  0.59925340818E+02  0.41800000000E+01 0. -1.
</event>
<event>
11    1  0.8039394E-009  0.3241675E+03  0.7561462E-02  0.9904518E-01
         22   -1    0    0    0    0  0.00000000000E+00  0.00000000000E+00  0.49828198611E+03  0.49828198611E+03  0.00000000000E+00 0. -1.
         22   -1    0    0    0    0 -0.00000000000E+00 -0.00000000000E+00 -0.12685843420E+04  0.12685843420E+04  0.00000000000E+00 0. -1.
        -24    2    1    2    0    0  0.31277251726E+02  0.64239520619E+02 -0.53751907178E+03  0.54822902228E+03  0.80767108710E+02 0.  0.
         25    2    1    2    0    0 -0.26276260676E+03  0.12697505934E+03 -0.63522714923E+03  0.71015921276E+03  0.12508286512E+03 0.  0.
         24    2    1    2    0    0  0.23148535504E+03 -0.19121457996E+03  0.40244386509E+03  0.50847809309E+03  0.80252236232E+02 0.  0.
        -13    1    5    5    0    0  0.98821293151E+02 -0.36838548567E+02  0.11233015353E+03  0.15408046609E+03  0.00000000000E+00 0.  1.
         14    1    5    5    0    0  0.13266406189E+03 -0.15437603139E+03  0.29011371157E+03  0.35439762700E+03  0.00000000000E+00 0. -1.
         11    1    3    3    0    0  0.23776136488E+02 -0.66237944947E+01 -0.27834484357E+03  0.27943698978E+03  0.00000000000E+00 0. -1.
        -12    1    3    3    0    0  0.75011152375E+01  0.70863315114E+02 -0.25917422822E+03  0.26879203249E+03  0.00000000000E+00 0.  1.
          5    1    4    4  501    0 -0.90961028338E+02 -0.92132921600E+01 -0.12602144689E+03  0.15574874286E+03  0.41800000000E+01 0. -1.
         -5    1    4    4    0  501 -0.17180157842E+03  0.13618835150E+03 -0.50920570235E+03  0.55441046990E+03  0.41800000000E+01 0. -1.
</event>
<event>
11    1  0.8039394E-009  0.2558496E+03  0.7561462E-02  0.1020828E+00
         22   -1    0    0    0    0  0.00000000000E+00  0.00000000000E+00  0.49756839860E+03  0.49756839860E+03  0.00000000000E+00 0.  1.
         22   -1    0    0    0    0 -0.00000000000E+00 -0.00000000000E+00 -0.40943916975E+03  0.40943916975E+03  0.00000000000E+00 0. -1.
         24    2    1    2    0    0 -0.25224191829E+03  0.27948601050E+02 -0.19408747590E+03  0.32894160837E+03  0.78265725440E+02 0.  0.
         25    2    1    2    0    0  0.18404052177E+03  0.16743519381E+02 -0.48623430230E+02  0.22839428882E+03  0.12509378124E+03 0.  0.
        -24    2    1    2    0    0  0.68201396520E+02 -0.44692120430E+02  0.33084013498E+03  0.34967167115E+03  0.78525579115E+02 0.  0.
        -11    1    3    3    0    0 -0.14736800605E+02 -0.34664781397E+01 -0.43286872090E+02  0.45857857103E+02  0.00000000000E+00 0.  1.
         12    1    3    3    0    0 -0.23750511768E+03  0.31415079189E+02 -0.15080060381E+03  0.28308375127E+03  0.00000000000E+00 0. -1.
         11    1    5    5    0    0 -0.10359821447E+02  0.12327172476E+02  0.44370224602E+02  0.47201715147E+02  0.00000000000E+00 0. -1.
        -12    1    5    5    0    0  0.78561217967E+02 -0.57019292906E+02  0.28646991038E+03  0.30246995600E+03  0.00000000000E+00 0.  1.
          5    1    4    4  501    0  0.94114470290E+02  0.60088106016E+02 -0.61676601255E+02  0.12763067635E+03  0.41800000000E+01 0. -1.
         -5    1    4    4    0  501  0.89926051477E+02 -0.43344586635E+02  0.13053171025E+02  0.10076361247E+03  0.41800000000E+01 0. -1.
</event>
<event>
11    1  0.8039394E-009  0.1610246E+03  0.7561462E-02  0.1086118E+00
         22   -1    0    0    0    0  0.00000000000E+00  0.00000000000E+00  0.35408399082E+03  0.35408399082E+03  0.00000000000E+00 0. -1.
         22   -1    0    0    0    0 -0.00000000000E+00 -0.00000000000E+00 -0.12372677780E+04  0.12372677780E+04  0.00000000000E+00 0.  1.
         24    2    1    2    0    0  0.85562007148E+02  0.52579666718E+02 -0.10940678110E+04  0.11003964262E+04  0.61663938430E+02 0.  0.
         25    2    1    2    0    0 -0.13687089420E+03 -0.82510223098E+01 -0.63411763852E+02  0.19613581060E+03  0.12508590391E+03 0.  0.
        -24    2    1    2    0    0  0.51308887056E+02 -0.44328644408E+02  0.27429578764E+03  0.29481953206E+03  0.84159056332E+02 0.  0.
        -11    1    3    3    0    0  0.75529744928E+02  0.38187377783E+02 -0.10424234593E+04  0.10458535685E+04  0.00000000000E+00 0.  1.
         12    1    3    3    0    0  0.10032262220E+02  0.14392288934E+02 -0.51644351679E+02  0.54542857703E+02  0.00000000000E+00 0. -1.
         11    1    5    5    0    0  0.53259583399E+02 -0.37309989378E+02  0.27878106650E+03  0.28626474035E+03  0.00000000000E+00 0. -1.
        -12    1    5    5    0    0 -0.19506963438E+01 -0.70186550296E+01 -0.44852788629E+01  0.85547917058E+01  0.00000000000E+00 0.  1.
          5    1    4    4  501    0 -0.22446043848E+02 -0.56387579025E+02 -0.28064456544E+02  0.66996045210E+02  0.41800000000E+01 0. -1.
         -5    1    4    4    0  501 -0.11442485036E+03  0.48136556715E+02 -0.35347307307E+02  0.12913976539E+03  0.41800000000E+01 0. -1.
</event>
<event>
11    1  0.8039394E-009  0.1718011E+03  0.7561462E-02  0.1076475E+00
         22   -1    0    0    0    0  0.00000000000E+00  0.00000000000E+00  0.19851743933E+04  0.19851743933E+04  0.00000000000E+00 0. -1.
         22   -1    0    0    0    0 -0.00000000000E+00 -0.00000000000E+00 -0.74102161860E+03  0.74102161860E+03  0.00000000000E+00 0.  1.
        -24    2    1    2    0    0 -0.40173330123E+02  0.27627518723E+01 -0.65493022417E+03  0.66074495588E+03  0.77645147553E+02 0.  0.
         25    2    1    2    0    0  0.62509322379E+01 -0.11582737442E+03  0.98767029049E+01  0.17087995241E+03  0.12508938427E+03 0.  0.
         24    2    1    2    0    0  0.33922397885E+02  0.11306462255E+03  0.18892062960E+04  0.18945711036E+04  0.79780322856E+02 0.  0.
        -11    1    5    5    0    0 -0.16049223401E+02  0.42155392523E+01  0.10062152551E+03  0.10198058511E+03  0.00000000000E+00 0.  1.
         12    1    5    5    0    0  0.49971621287E+02  0.10884908329E+03  0.17885847704E+04  0.17925905185E+04  0.00000000000E+00 0. -1.
         13    1    3    3    0    0 -0.58639772824E+02 -0.11240703312E+02 -0.36117885024E+03  0.36608078101E+03  0.00000000000E+00 0. -1.
        -14    1    3    3    0    0  0.18466442701E+02  0.14003455185E+02 -0.29375137393E+03  0.29466417487E+03  0.00000000000E+00 0.  1.
          5    1    4    4  501    0  0.10415477108E+02 -0.21629368281E+02  0.59464553202E+02  0.64263653982E+02  0.41800000000E+01 0. -1.
         -5    1    4    4    0  501 -0.41645448697E+01 -0.94198006137E+02 -0.49587850297E+02  0.10661629843E+03  0.41800000000E+01 0. -1.
</event>
<event>
11    1  0.8039394E-009  0.1316142E+03  0.7561462E-02  0.1117301E+00
         22   -1    0    0    0    0  0.00000000000E+00  0.00000000000E+00  0.39993961891E+03  0.39993961891E+03  0.00000000000E+00 0. -1.
         22   -1    0    0    0    0 -0.00000000000E+00 -0.00000000000E+00 -0.32235720164E+03  0.32235720164E+03  0.00000000000E+00 0.  1.
        -24    2    1    2    0    0 -0.29133926358E+02 -0.34842019012E+02 -0.14150491627E+03  0.16883087014E+03  0.80109109512E+02 0.  0.
         25    2    1    2    0    0  0.10366611900E+02  0.32676625374E+02 -0.13673031164E+03  0.18846070727E+03  0.12508809527E+03 0.  0.
         24    2    1    2    0    0  0.18767314457E+02  0.21653936381E+01  0.35581764518E+03  0.36500524314E+03  0.79156363466E+02 0.  0.
        -13    1    5    5    0    0  0.49139628188E+02 -0.39093456832E+01  0.18813538515E+03  0.19448626992E+03  0.00000000000E+00 0.  1.
         14    1    5    5    0    0 -0.30372313731E+02  0.60747393212E+01  0.16768226003E+03  0.17051897322E+03  0.00000000000E+00 0. -1.
         13    1    3    3    0    0  0.85539654863E+01  0.22156016895E+02 -0.37412102213E+02  0.44313934627E+02  0.00000000000E+00 0. -1.
        -14    1    3    3    0    0 -0.37687891844E+02 -0.56998035907E+02 -0.10409281406E+03  0.12451693551E+03  0.00000000000E+00 0.  1.
          5    1    4    4  501    0 -0.40452186416E+02 -0.32101435329E+01 -0.11566101277E+03  0.12264430962E+03  0.41800000000E+01 0.  1.
         -5    1    4    4    0  501  0.50818798317E+02  0.35886768907E+02 -0.21069298862E+02  0.65816397649E+02  0.41800000000E+01 0.  1.
</event>
<event>
11    1  0.8039394E-009  0.1311786E+03  0.7561462E-02  0.1117829E+00
         22   -1    0    0    0    0  0.00000000000E+00  0.00000000000E+00  0.10150688387E+04  0.10150688387E+04  0.00000000000E+00 0. -1.
         22   -1    0    0    0    0 -0.00000000000E+00 -0.00000000000E+00 -0.94377023307E+02  0.94377023307E+02  0.00000000000E+00 0.  1.
        -24    2    1    2    0    0  0.16126814778E+02 -0.41043309935E+02 -0.48801395364E+02  0.10473275721E+03  0.81503047790E+02 0.  0.
         25    2    1    2    0    0 -0.21161123088E+02 -0.16420405981E+02  0.26550203252E+03  0.29471676719E+03  0.12509684540E+03 0.  0.
         24    2    1    2    0    0  0.50343083105E+01  0.57463715916E+02  0.70399117822E+03  0.70999633759E+03  0.71859567667E+02 0.  0.
        -11    1    5    5    0    0  0.22325345841E+02 -0.53061859383E+01  0.29112822216E+03  0.29203119424E+03  0.00000000000E+00 0.  1.
         12    1    5    5    0    0 -0.17291037530E+02  0.62769901854E+02  0.41286295607E+03  0.41796514334E+03  0.00000000000E+00 0. -1.
         11    1    3    3    0    0  0.31550659318E+02  0.38370974683E+01  0.58877306487E+01  0.32323873415E+02  0.00000000000E+00 0. -1.
        -12    1    3    3    0    0 -0.15423844540E+02 -0.44880407403E+02 -0.54689126013E+02  0.72408883799E+02  0.00000000000E+00 0.  1.
          5    1    4    4  501    0  0.10238127912E+02  0.24052114285E+02  0.23317995204E+01  0.26575047577E+02  0.41800000000E+01 0.  1.
         -5    1    4    4    0  501 -0.31399251000E+02 -0.40472520266E+02  0.26317023300E+03  0.26814171962E+03  0.41800000000E+01 0.  1.
</event>
<event>
11    1  0.8039394E-009  0.2176770E+03  0.7561462E-02  0.1042682E+00
         22   -1    0    0    0    0  0.00000000000E+00  0.00000000000E+00  0.63732790472E+03  0.63732790472E+03  0.00000000000E+00 0.  1.
         22   -1    0    0    0    0 -0.00000000000E+00 -0.00000000000E+00 -0.18806356652E+03  0.18806356652E+03  0.00000000000E+00 0.  1.
        -24    2    1    2    0    0 -0.28256929472E+02 -0.30551606634E+02 -0.91182396050E+02  0.12789998446E+03  0.79450122365E+02 0.  0.
         25    2    1    2    0    0 -0.47189858706E+02 -0.14415727023E+03  0.12453932489E+03  0.23273463421E+03  0.12508862934E+03 0.  0.
         24    2    1    2    0    0  0.75446788178E+02  0.17470887686E+03  0.41590740935E+03  0.46475685257E+03  0.82489692391E+02 0.  0.
        -13    1    5    5    0    0  0.40693635839E+01  0.10994009954E+03  0.19865550045E+03  0.22708455048E+03  0.00000000000E+00 0.  1.
         14    1    5    5    0    0  0.71377424594E+02  0.64768777324E+02  0.21725190891E+03  0.23767230209E+03  0.00000000000E+00 0. -1.
         11    1    3    3    0    0  0.26846731050E+02 -0.70043766994E+00 -0.23879123608E+02  0.35936751735E+02  0.00000000000E+00 0. -1.
        -12    1    3    3    0    0 -0.55103660521E+02 -0.29851168964E+02 -0.67303272441E+02  0.91963232722E+02  0.00000000000E+00 0.  1.
          5    1    4    4  501    0  0.33079917310E+02 -0.93940471007E+02  0.46643319413E+02  0.11005528006E+03  0.41800000000E+01 0.  1.
         -5    1    4    4    0  501 -0.80269776016E+02 -0.50216799223E+02  0.77896005482E+02  0.12267935416E+03  0.41800000000E+01 0.  1.
</event>
<event>
11    1  0.8039394E-009  0.1976329E+03  0.7561462E-02  0.1056210E+00
         22   -1    0    0    0    0  0.00000000000E+00  0.00000000000E+00  0.40011211872E+03  0.40011211872E+03  0.00000000000E+00 0. -1.
         22   -1    0    0    0    0 -0.00000000000E+00 -0.00000000000E+00 -0.23501973106E+04  0.23501973106E+04  0.00000000000E+00 0. -1.
         24    2    1    2    0    0 -0.83952876326E+02 -0.12699587412E+03 -0.21649143561E+04  0.21717327007E+04  0.79954464739E+02 0.  0.
         25    2    1    2    0    0  0.18254649718E+00  0.20477172959E+03 -0.79676014203E+02  0.25284031732E+03  0.12509382183E+03 0.  0.
        -24    2    1    2    0    0  0.83770329829E+02 -0.77775855468E+02  0.29450517844E+03  0.32573641130E+03  0.79399985297E+02 0.  0.
        -11    1    3    3    0    0 -0.65210111917E+01 -0.33693249751E+01 -0.13398076274E+02  0.15276923302E+02  0.00000000000E+00 0.  1.
         12    1    3    3    0    0 -0.77431865135E+02 -0.12362654915E+03 -0.21515162798E+04  0.21564557774E+04  0.00000000000E+00 0. -1.
         11    1    5    5    0    0  0.79981222147E+02 -0.83790484531E+02  0.29652433709E+03  0.31834654652E+03  0.00000000000E+00 0. -1.
        -12    1    5    5    0    0  0.37891076817E+01  0.60146290632E+01 -0.20191586517E+01  0.73898647790E+01  0.00000000000E+00 0.  1.
          5    1    4    4  501    0  0.57689984479E+02  0.93189805905E+02 -0.12460296666E+02  0.11038661888E+03  0.41800000000E+01 0.  1.
         -5    1    4    4    0  501 -0.57507437982E+02  0.11158192369E+03 -0.67215717537E+02  0.14245369845E+03  0.41800000000E+01 0.  1.
</event>
<event>
11    1  0.8039394E-009  0.1468672E+03  0.7561462E-02  0.1100123E+00
         22   -1    0    0    0    0  0.00000000000E+00  0.00000000000E+00  0.32462547135E+03  0.32462547135E+03  0.00000000000E+00 0.  1.
         22   -1    0    0    0    0 -0.00000000000E+00 -0.00000000000E+00 -0.96793409760E+03  0.96793409760E+03  0.00000000000E+00 0.  1.
         24    2    1    2    0    0  0.23957977294E+02 -0.71996588404E+02 -0.83723821757E+03  0.84385580293E+03  0.73261789215E+02 0.  0.
         25    2    1    2    0    0 -0.44801524377E+02  0.83628277906E+02 -0.69837287777E+02  0.17183011627E+03  0.12508987426E+03 0.  0.
        -24    2    1    2    0    0  0.20843547083E+02 -0.11631689501E+02  0.26376687910E+03  0.27687364975E+03  0.80723613405E+02 0.  0.
        -13    1    3    3    0    0 -0.23519839936E+01 -0.75223484741E+02 -0.70363457853E+03  0.70764802309E+03  0.00000000000E+00 0.  1.
         14    1    3    3    0    0  0.26309961287E+02  0.32268963367E+01 -0.13360363905E+03  0.13620777984E+03  0.00000000000E+00 0. -1.
         11    1    5    5    0    0  0.53728843348E+01 -0.28569828315E+01 -0.47801903094E+01  0.77382463368E+01  0.00000000000E+00 0. -1.
        -12    1    5    5    0    0  0.15470662748E+02 -0.87747066698E+01  0.26854706941E+03  0.26913540342E+03  0.00000000000E+00 0.  1.
          5    1    4    4  501    0  0.33128625793E+02  0.68063877633E+02 -0.21838002176E+02  0.78895931608E+02  0.41800000000E+01 0.  1.
         -5    1    4    4    0  501 -0.77930150170E+02  0.15564400273E+02 -0.47999285601E+02  0.92934184666E+02  0.41800000000E+01 0.  1.
</event>
<event>
11    1  0.8039394E-009  0.1988233E+03  0.7561462E-02  0.1055359E+00
         22   -1    0    0    0    0  0.00000000000E+00  0.00000000000E+00  0.29497146136E+02  0.29497146136E+02  0.00000000000E+00 0. -1.
         22   -1    0    0    0    0 -0.00000000000E+00 -0.00000000000E+00 -0.26205374713E+04  0.26205374713E+04  0.00000000000E+00 0. -1.
        -24    2    1    2    0    0 -0.86704341493E+01  0.26229212797E+02 -0.12960914710E+04  0.12987961000E+04  0.79088938662E+02 0.  0.
         25    2    1    2    0    0 -0.43179901083E+02  0.12936356613E+03 -0.85789972270E+03  0.87764027675E+03  0.12514425702E+03 0.  0.
         24    2    1    2    0    0  0.51850335232E+02 -0.15559277893E+03 -0.43704913147E+03  0.47359824066E+03  0.79911076345E+02 0.  0.
        -13    1    5    5    0    0 -0.95175829410E+01 -0.38904139750E+02 -0.18349531210E+03  0.18781545740E+03  0.00000000000E+00 0.  1.
         14    1    5    5    0    0  0.61367918173E+02 -0.11668863918E+03 -0.25355381937E+03  0.28578278326E+03  0.00000000000E+00 0. -1.
         13    1    3    3    0    0  0.21856508933E+02 -0.71021592386E+01 -0.87202171799E+03  0.87232449484E+03  0.00000000000E+00 0. -1.
        -14    1    3    3    0    0 -0.30526943082E+02  0.33331372036E+02 -0.42406975298E+03  0.42647160517E+03  0.00000000000E+00 0.  1.
          5    1    4    4  501    0 -0.84835420791E+02  0.10339055948E+03 -0.68027556891E+03  0.69331016037E+03  0.41800000000E+01 0. -1.
         -5    1    4    4    0  501  0.41655519709E+02  0.25973006647E+02 -0.17762415379E+03  0.18433011638E+03  0.41800000000E+01 0. -1.
</event>
<event>
11    1  0.8039394E-009  0.1480623E+03  0.7561462E-02  0.1098875E+00
         22   -1    0    0    0    0  0.00000000000E+00  0.00000000000E+00  0.67374513225E+03  0.67374513225E+03  0.00000000000E+00 0.  1.
         22   -1    0    0    0    0 -0.00000000000E+00 -0.00000000000E+00 -0.95537917009E+03  0.95537917009E+03  0.00000000000E+00 0.  1.
        -24    2    1    2    0    0 -0.75945204633E+02 -0.11031814229E+02 -0.74353164411E+03  0.75189288331E+03  0.81327898930E+02 0.  0.
         25    2    1    2    0    0  0.89452221399E+02  0.61693132762E+02 -0.17040737606E+03  0.23768795739E+03  0.12509655764E+03 0.  0.
         24    2    1    2    0    0 -0.13507016766E+02 -0.50661318533E+02  0.63230498232E+03  0.63954346164E+03  0.80356953355E+02 0.  0.
        -11    1    5    5    0    0 -0.32555171826E+02 -0.51866101460E+02  0.58954942533E+03  0.59272123009E+03  0.00000000000E+00 0.  1.
         12    1    5    5    0    0  0.19048155060E+02  0.12047829267E+01  0.42755557000E+02  0.46822231551E+02  0.00000000000E+00 0. -1.
         13    1    3    3    0    0 -0.71089501516E+02  0.61355786520E+01 -0.31459865167E+03  0.32258901745E+03  0.00000000000E+00 0. -1.
        -14    1    3    3    0    0 -0.48557031168E+01 -0.17167392881E+02 -0.42893299244E+03  0.42930386585E+03  0.00000000000E+00 0.  1.
          5    1    4    4  501    0  0.10026194676E+03  0.88667353917E+02 -0.15391583248E+03  0.20401449338E+03  0.41800000000E+01 0. -1.
         -5    1    4    4    0  501 -0.10809725365E+02 -0.26974221155E+02 -0.16491543577E+02  0.33673464017E+02  0.41800000000E+01 0. -1.
</event>
<event>
11    1  0.8039394E-009  0.1713409E+03  0.7561462E-02  0.1076871E+00
         22   -1    0    0    0    0  0.00000000000E+00  0.00000000000E+00  0.62099389827E+03  0.62099389827E+03  0.00000000000E+00 0.  1.
         22   -1    0    0    0    0 -0.00000000000E+00 -0.00000000000E+00 -0.15479324188E+04  0.15479324188E+04  0.00000000000E+00 0. -1.
        -24    2    1    2    0    0 -0.16423395655E+01  0.11714281762E+03 -0.14445686293E+04  0.14515571789E+04  0.80712959127E+02 0.  0.
         25    2    1    2    0    0 -0.10680242799E+02 -0.11585285955E+03 -0.21415418530E+02  0.17216861037E+03  0.12508979812E+03 0.  0.
         24    2    1    2    0    0  0.12322582365E+02 -0.12899580703E+01  0.53904552736E+03  0.54520052777E+03  0.80746671074E+02 0.  0.
        -13    1    5    5    0    0  0.12571474724E+02 -0.56830500929E+01  0.54041586885E+03  0.54059194439E+03  0.00000000000E+00 0.  1.
         14    1    5    5    0    0 -0.24889235980E+00  0.43930920226E+01 -0.13703414960E+01  0.46085833769E+01  0.00000000000E+00 0. -1.
         13    1    3    3    0    0  0.26166861631E+02  0.46278691315E+02 -0.91521533579E+03  0.91675816483E+03  0.00000000000E+00 0. -1.
        -14    1    3    3    0    0 -0.27809201197E+02  0.70864126300E+02 -0.52935329354E+03  0.53479901407E+03  0.00000000000E+00 0.  1.
          5    1    4    4  501    0  0.18945217724E+02 -0.11150699789E+02 -0.54043023857E+02  0.58492565407E+02  0.41800000000E+01 0. -1.
         -5    1    4    4    0  501 -0.29625460523E+02 -0.10470215976E+03  0.32627605326E+02  0.11367604496E+03  0.41800000000E+01 0. -1.
</event>
<event>
11    1  0.8039394E-009  0.1404079E+03  0.7561462E-02  0.1107104E+00
         22   -1    0    0    0    0  0.00000000000E+00  0.00000000000E+00  0.11604982477E+04  0.11604982477E+04  0.00000000000E+00 0.  1.
         22   -1    0    0    0    0 -0.00000000000E+00 -0.00000000000E+00 -0.19278140895E+04  0.19278140895E+04  0.00000000000E+00 0. -1.
         24    2    1    2    0    0  0.62270798057E+02  0.16507531035E+02 -0.18237489747E+04  0.18268337606E+04  0.84327429130E+02 0.  0.
         25    2    1    2    0    0 -0.54061569042E+02  0.41108738714E+02 -0.49671236874E+02  0.15075700749E+03  0.12509141414E+03 0.  0.
        -24    2    1    2    0    0 -0.82092290152E+01 -0.57616269749E+02  0.11061043698E+04  0.11107215692E+04  0.82755672570E+02 0.  0.
        -11    1    3    3    0    0 -0.15571213578E+02  0.36034610858E+01 -0.99083672201E+02  0.10036444451E+03  0.00000000000E+00 0.  1.
         12    1    3    3    0    0  0.77842011635E+02  0.12904069949E+02 -0.17246653025E+04  0.17264693161E+04  0.00000000000E+00 0. -1.
         13    1    5    5    0    0 -0.78402830480E+01 -0.55056882274E+02  0.33292160486E+03  0.33753448017E+03  0.00000000000E+00 0. -1.
        -14    1    5    5    0    0 -0.36894596720E+00 -0.25593874744E+01  0.77318276494E+03  0.77318708899E+03  0.00000000000E+00 0.  1.
          5    1    4    4  501    0 -0.49444554340E+02 -0.32932459363E+02 -0.47909153757E+02  0.76433436710E+02  0.41800000000E+01 0. -1.
         -5    1    4    4    0  501 -0.46170147018E+01  0.74041198076E+02 -0.17620831168E+01  0.74323570785E+02  0.41800000000E+01 0. -1.
</event>
<event>
11    1  0.8039394E-009  0.1855407E+03  0.7561462E-02  0.1065247E+00
         22   -1    0    0    0    0  0.00000000000E+00  0.00000000000E+00  0.13299442306E+04  0.13299442306E+04  0.00000000000E+00 0. -1.
         22   -1    0    0    0    0 -0.00000000000E+00 -0.00000000000E+00 -0.63484809593E+03  0.63484809593E+03  0.00000000000E+00 0.  1.
        -24    2    1    2    0    0 -0.53166252654E+01  0.41339296529E+01 -0.59369221725E+03  0.59980504132E+03  0.85148592983E+02 0.  0.
         25    2    1    2    0    0 -0.13187378809E+03 -0.17124975048E+02  0.22803046090E+03  0.29211457591E+03  0.12509625737E+03 0.  0.
         24    2    1    2    0    0  0.13719041335E+03  0.12991045395E+02  0.10607578910E+04  0.10728727093E+04  0.82816485168E+02 0.  0.
        -13    1    5    5    0    0  0.76197664646E+02  0.25719260822E+02  0.82879209520E+03  0.83268475520E+03  0.00000000000E+00 0.  1.
         14    1    5    5    0    0  0.60992748706E+02 -0.12728215426E+02  0.23196579578E+03  0.24018795406E+03  0.00000000000E+00 0. -1.
         13    1    3    3    0    0 -0.21251369632E+02  0.39162999319E+02 -0.24733248743E+03  0.25131398800E+03  0.00000000000E+00 0. -1.
        -14    1    3    3    0    0  0.15934744366E+02 -0.35029069666E+02 -0.34635972983E+03  0.34849105332E+03  0.00000000000E+00 0.  1.
          5    1    4    4  501    0 -0.50674185060E+02  0.29715262015E+02  0.17211643608E+02  0.61356196947E+02  0.41800000000E+01 0.  1.
         -5    1    4    4    0  501 -0.81199603026E+02 -0.46840237063E+02  0.21081881729E+03  0.23075837896E+03  0.41800000000E+01 0.  1.
</event>
<event>
11    1  0.8039394E-009  0.1499339E+03  0.7561462E-02  0.1096946E+00
         22   -1    0    0    0    0  0.00000000000E+00  0.00000000000E+00  0.37562207789E+03  0.37562207789E+03  0.00000000000E+00 0.  1.
         22   -1    0    0    0    0 -0.00000000000E+00 -0.00000000000E+00 -0.52641878258E+03  0.52641878258E+03  0.00000000000E+00 0. -1.
        -24    2    1    2    0    0  0.33735550000E+02 -0.57751938895E+02 -0.46908471381E+03  0.48071985552E+03  0.81103248865E+02 0.  0.
         25    2    1    2    0    0 -0.92677828633E+02 -0.52323182760E+01  0.15132331807E+03  0.21716788452E+03  0.12508631580E+03 0.  0.
         24    2    1    2    0    0  0.58942278634E+02  0.62984257171E+02  0.16696469106E+03  0.20415312043E+03  0.79750107590E+02 0.  0.
        -11    1    5    5    0    0  0.71205107335E+02  0.51594467138E+02  0.16542832267E+03  0.18734643389E+03  0.00000000000E+00 0.  1.
         12    1    5    5    0    0 -0.12262828701E+02  0.11389790033E+02  0.15363683881E+01  0.16806686544E+02  0.00000000000E+00 0. -1.
         13    1    3    3    0    0  0.34745359607E+02 -0.66418894718E+02 -0.46514508809E+03  0.47114611594E+03  0.00000000000E+00 0. -1.
        -14    1    3    3    0    0 -0.10098096080E+01  0.86669558236E+01 -0.39396257224E+01  0.95737395789E+01  0.00000000000E+00 0.  1.
          5    1    4    4  501    0 -0.50308684065E+00  0.31182123845E+02 -0.51678271494E+01  0.31886623861E+02  0.41800000000E+01 0.  1.
         -5    1    4    4    0  501 -0.92174741793E+02 -0.36414442121E+02  0.15649114522E+03  0.18528126066E+03  0.41800000000E+01 0.  1.
</event>
<event>
11    1  0.8039394E-009  0.1380417E+03  0.7561462E-02  0.1109765E+00
         22   -1    0    0    0    0  0.00000000000E+00  0.00000000000E+00  0.70217446076E+03  0.70217446076E+03  0.00000000000E+00 0.  1.
         22   -1    0    0    0    0 -0.00000000000E+00 -0.00000000000E+00 -0.45787394901E+03  0.45787394901E+03  0.00000000000E+00 0.  1.
         24    2    1    2    0    0 -0.55244255532E+02 -0.19751135168E+02 -0.41937565154E+03  0.43093683513E+03  0.79928616002E+02 0.  0.
         25    2    1    2    0    0  0.40824009728E+02  0.35237769810E+02  0.12823223551E+03  0.18708134449E+03  0.12509045943E+03 0.  0.
        -24    2    1    2    0    0  0.14420245804E+02 -0.15486634642E+02  0.53544392778E+03  0.54203023015E+03  0.81540120558E+02 0.  0.
        -13    1    3    3    0    0 -0.75002332192E+02 -0.22801014352E+02 -0.31064043847E+03  0.32037902257E+03  0.00000000000E+00 0.  1.
         14    1    3    3    0    0  0.19758076660E+02  0.30498791839E+01 -0.10873521307E+03  0.11055781256E+03  0.00000000000E+00 0. -1.
         11    1    5    5    0    0  0.38632845934E+02  0.13883234570E+02  0.36967536956E+03  0.37194773806E+03  0.00000000000E+00 0. -1.
        -12    1    5    5    0    0 -0.24212600130E+02 -0.29369869212E+02  0.16576855822E+03  0.17008249209E+03  0.00000000000E+00 0.  1.
          5    1    4    4  501    0  0.54874202167E+02  0.74525623102E+02  0.10114226225E+03  0.13715858039E+03  0.41800000000E+01 0.  1.
         -5    1    4    4    0  501 -0.14050192439E+02 -0.39287853292E+02  0.27089973263E+02  0.49922764098E+02  0.41800000000E+01 0.  1.
</event>
<event>
11    1  0.8039394E-009  0.1456503E+03  0.7561462E-02  0.1101408E+00
         22   -1    0    0    0    0  0.00000000000E+00  0.00000000000E+00  0.11677380177E+03  0.11677380177E+03  0.00000000000E+00 0. -1.
         22   -1    0    0    0    0 -0.00000000000E+00 -0.00000000000E+00 -0.87483941771E+03  0.87483941771E+03  0.00000000000E+00 0. -1.
         24    2    1    2    0    0  0.35233307912E+02 -0.21642359886E+02 -0.64333130148E+03  0.64969187265E+03  0.80712998913E+02 0.  0.
         25    2    1    2    0    0 -0.95259871895E+02 -0.17336620441E+02 -0.15976245756E+03  0.22482578876E+03  0.12509033073E+03 0.  0.
        -24    2    1    2    0    0  0.60026563982E+02  0.38978980327E+02  0.45028143106E+02  0.11709555808E+03  0.81001770102E+02 0.  0.
        -13    1    3    3    0    0  0.20642442655E+02 -0.47778417670E+02 -0.25786451208E+03  0.26306461986E+03  0.00000000000E+00 0.  1.
         14    1    3    3    0    0  0.14590865257E+02  0.26136057784E+02 -0.38546678940E+03  0.38662725279E+03  0.00000000000E+00 0. -1.
         11    1    5    5    0    0  0.30501067773E+02  0.62313909883E+02  0.21167826748E+02  0.72535614628E+02  0.00000000000E+00 0. -1.
        -12    1    5    5    0    0  0.29525496209E+02 -0.23334929556E+02  0.23860316359E+02  0.44559943453E+02  0.00000000000E+00 0.  1.
          5    1    4    4  501    0  0.24449112684E+02  0.20579619528E+02 -0.27074620478E+02  0.42092604160E+02  0.41800000000E+01 0.  1.
         -5    1    4    4    0  501 -0.11970898458E+03 -0.37916239969E+02 -0.13268783708E+03  0.18273318460E+03  0.41800000000E+01 0.  1.
</event>
<event>
11    1  0.8039394E-009  0.1477063E+03  0.7561462E-02  0.1099246E+00
         22   -1    0    0    0    0  0.00000000000E+00  0.00000000000E+00  0.31929818325E+03  0.31929818325E+03  0.00000000000E+00 0.  1.
         22   -1    0    0    0    0 -0.00000000000E+00 -0.00000000000E+00 -0.91794275172E+03  0.91794275172E+03  0.00000000000E+00 0.  1.
        -24    2    1    2    0    0 -0.34465166296E+02 -0.73677182395E+02 -0.83622583914E+03  0.84410963047E+03  0.81432421765E+02 0.  0.
         25    2    1    2    0    0  0.42437368927E+02  0.15596860387E+02 -0.25589880065E+01  0.13302972937E+03  0.12508464391E+03 0.  0.
         24    2    1    2    0    0 -0.79722026312E+01  0.58080322009E+02  0.24014025868E+03  0.26010157513E+03  0.80923455989E+02 0.  0.
        -11    1    5    5    0    0  0.18160714740E+02  0.66613859973E+02  0.19885745045E+03  0.21050297742E+03  0.00000000000E+00 0.  1.
         12    1    5    5    0    0 -0.26132917371E+02 -0.85335379644E+01  0.41282808225E+02  0.49598597717E+02  0.00000000000E+00 0. -1.
         11    1    3    3    0    0 -0.40664630320E+02 -0.54548334033E+02 -0.30471083171E+03  0.31221438767E+03  0.00000000000E+00 0. -1.
        -12    1    3    3    0    0  0.61994640249E+01 -0.19128848362E+02 -0.53151500743E+03  0.53189524280E+03  0.00000000000E+00 0.  1.
          5    1    4    4  501    0  0.60008932831E+02 -0.29148377424E+02  0.31572251351E+02  0.73925498857E+02  0.41800000000E+01 0.  1.
         -5    1    4    4    0  501 -0.17571563904E+02  0.44745237811E+02 -0.34131239357E+02  0.59104230515E+02  0.41800000000E+01 0.  1.
</event>
<event>
11    1  0.8039394E-009  0.1326474E+03  0.7561462E-02  0.1116058E+00
         22   -1    0    0    0    0  0.00000000000E+00  0.00000000000E+00  0.27308313554E+03  0.27308313554E+03  0.00000000000E+00 0.  1.
         22   -1    0    0    0    0 -0.00000000000E+00 -0.00000000000E+00 -0.15571546658E+03  0.15571546658E+03  0.00000000000E+00 0. -1.
         24    2    1    2    0    0  0.16312377385E+02 -0.44326811113E+02 -0.88027594133E+02  0.12786679443E+03  0.79812905907E+02 0.  0.
         25    2    1    2    0    0 -0.98005452314E+01  0.21684332022E+02  0.99908467010E+02  0.16185141046E+03  0.12509163179E+03 0.  0.
        -24    2    1    2    0    0 -0.65118321538E+01  0.22642479092E+02  0.10548679609E+03  0.13908039723E+03  0.87526035711E+02 0.  0.
        -11    1    3    3    0    0  0.35508354696E+02  0.66102503176E+01 -0.21988769423E+02  0.42285276908E+02  0.00000000000E+00 0.  1.
         12    1    3    3    0    0 -0.19195977311E+02 -0.50937061431E+02 -0.66038824711E+02  0.85581517522E+02  0.00000000000E+00 0. -1.
         11    1    5    5    0    0 -0.11829591788E+02  0.21967182763E+02 -0.74329111197E+01  0.26033527001E+02  0.00000000000E+00 0. -1.
        -12    1    5    5    0    0  0.53177596340E+01  0.67529632897E+00  0.11291970721E+03  0.11304687023E+03  0.00000000000E+00 0.  1.
          5    1    4    4  501    0  0.40737278944E+02 -0.29804173797E+02  0.62593900206E+02  0.80518838879E+02  0.41800000000E+01 0. -1.
         -5    1    4    4    0  501 -0.50537824176E+02  0.51488505819E+02  0.37314566805E+02  0.81332571579E+02  0.41800000000E+01 0. -1.
</event>
<event>
11    1  0.8039394E-009  0.2429382E+03  0.7561462E-02  0.1027730E+00
         22   -1    0    0    0    0  0.00000000000E+00  0.00000000000E+00  0.22188948360E+03  0.22188948360E+03  0.00000000000E+00 0.  1.
         22   -1    0    0    0    0 -0.00000000000E+00 -0.00000000000E+00 -0.85787495968E+03  0.85787495968E+03  0.00000000000E+00 0.  1.
         24    2    1    2    0    0 -0.17353327371E+03 -0.51639296904E+02 -0.41662973848E+03  0.46107271954E+03  0.78913241289E+02 0.  0.
         25    2    1    2    0    0  0.28382605598E+03  0.49400094045E+02 -0.32009872408E+03  0.44845115504E+03  0.12509055102E+03 0.  0.
        -24    2    1    2    0    0 -0.11029278227E+03  0.22392028592E+01  0.10074298649E+03  0.17024056869E+03  0.81628365486E+02 0.  0.
        -11    1    3    3    0    0 -0.16181849536E+03 -0.29168283579E+02 -0.30390620003E+03  0.34553580513E+03  0.00000000000E+00 0.  1.
         12    1    3    3    0    0 -0.11714778343E+02 -0.22471013325E+02 -0.11272353845E+03  0.11553691441E+03  0.00000000000E+00 0. -1.
         13    1    5    5    0    0 -0.24392219433E+02  0.21998137354E+02 -0.42870518579E+01  0.33125175162E+02  0.00000000000E+00 0. -1.
        -14    1    5    5    0    0 -0.85900562841E+02 -0.19758934495E+02  0.10503003834E+03  0.13711539353E+03  0.00000000000E+00 0.  1.
          5    1    4    4  501    0  0.20369422413E+03  0.25598149611E+01 -0.28228756463E+03  0.34814024637E+03  0.41800000000E+01 0.  1.
         -5    1    4    4    0  501  0.80131831849E+02  0.46840279084E+02 -0.37811159456E+02  0.10031090868E+03  0.41800000000E+01 0.  1.
</event>
<event>
11    1  0.8039394E-009  0.2268439E+03  0.7561462E-02  0.1037013E+00
         22   -1    0    0    0    0  0.00000000000E+00  0.00000000000E+00  0.38350181615E+03  0.38350181615E+03  0.00000000000E+00 0. -1.
         22   -1    0    0    0    0 -0.00000000000E+00 -0.00000000000E+00 -0.34371387785E+03  0.34371387785E+03  0.00000000000E+00 0. -1.
        -24    2    1    2    0    0  0.86317831865E+02 -0.74110778979E+02 -0.16827628608E+03  0.22501757492E+03  0.96813350872E+02 0.  0.
         25    2    1    2    0    0  0.10138033989E+03 -0.61085214138E+02 -0.12211125053E+02  0.17264259660E+03  0.12508788064E+03 0.  0.
         24    2    1    2    0    0 -0.18769817176E+03  0.13519599312E+03  0.22027534943E+03  0.32955552248E+03  0.81099029570E+02 0.  0.
        -13    1    5    5    0    0  0.28729955882E+01  0.11030654875E+02  0.33041966472E+02  0.34952839641E+02  0.00000000000E+00 0.  1.
         14    1    5    5    0    0 -0.19057116735E+03  0.12416533824E+03  0.18723338295E+03  0.29460268284E+03  0.00000000000E+00 0. -1.
         13    1    3    3    0    0  0.10610400711E+03 -0.52149232884E+02 -0.14675362032E+03  0.18845218994E+03  0.00000000000E+00 0. -1.
        -14    1    3    3    0    0 -0.19786175241E+02 -0.21961546095E+02 -0.21522665754E+02  0.36565384980E+02  0.00000000000E+00 0.  1.
          5    1    4    4  501    0  0.65204175604E+02  0.16380446329E+02  0.33905188403E+02  0.75411787797E+02  0.41800000000E+01 0.  1.
         -5    1    4    4    0  501  0.36176164289E+02 -0.77465660467E+02 -0.46116313456E+02  0.97230808805E+02  0.41800000000E+01 0.  1.
</event>
<event>
11    1  0.8039394E-009  0.1180484E+04  0.7561462E-02  0.8524064E-01
         22   -1    0    0    0    0  0.00000000000E+00  0.00000000000E+00  0.31857708826E+04  0.31857708826E+04  0.00000000000E+00 0. -1.
         22   -1    0    0    0    0 -0.00000000000E+00 -0.00000000000E+00 -0.60722320815E+03  0.60722320815E+03  0.00000000000E+00 0. -1.
         24    2    1    2    0    0  0.10197031123E+04  0.59278521214E+03  0.37188908852E+03  0.12392881141E+04  0.79654194675E+02 0.  0.
         25    2    1    2    0    0 -0.10428299953E+04 -0.50961952180E+03  0.20339151864E+04  0.23451364685E+04  0.12509042526E+03 0.  0.
        -24    2    1    2    0    0  0.23126883026E+02 -0.83165690337E+02  0.17274339959E+03  0.20856950812E+03  0.78800842942E+02 0.  0.
        -13    1    3    3    0    0  0.56874164785E+03  0.35680623748E+03  0.17758233190E+03  0.69448775202E+03  0.00000000000E+00 0.  1.
         14    1    3    3    0    0  0.45096146444E+03  0.23597897466E+03  0.19430675662E+03  0.54480036211E+03  0.00000000000E+00 0. -1.
         13    1    5    5    0    0  0.43398466188E+02 -0.36063350045E+02  0.13033722633E+03  0.14202740809E+03  0.00000000000E+00 0. -1.
        -14    1    5    5    0    0 -0.20271583162E+02 -0.47102340291E+02  0.42406173260E+02  0.66542100022E+02  0.00000000000E+00 0.  1.
          5    1    4    4  501    0 -0.94319676075E+03 -0.49794715643E+03  0.18403655280E+04  0.21270952609E+04  0.41800000000E+01 0.  1.
         -5    1    4    4    0  501 -0.99633234559E+02 -0.11672365366E+02  0.19354965841E+03  0.21804120760E+03  0.41800000000E+01 0.  1.
</event>
<event>
11    1  0.9975846E-009  0.1595429E+03  0.7561462E-02  0.1087508E+00
         22   -1    0    0    0    0  0.00000000000E+00  0.00000000000E+00  0.12184284041E+04  0.12184284041E+04  0.00000000000E+00 0.  1.
         22   -1    0    0    0    0 -0.00000000000E+00 -0.00000000000E+00 -0.12847574951E+04  0.12847574951E+04  0.00000000000E+00 0. -1.
         24    2    1    2    0    0  0.60861906205E+02  0.76885844462E+02 -0.40999896416E+03  0.42922862813E+03  0.80761747708E+02 0.  0.
         25    2    1    2    0    0 -0.13489682161E+03 -0.14207614022E+03 -0.84605197432E+03  0.87740207104E+03  0.12509064278E+03 0.  0.
        -24    2    1    2    0    0  0.74034915410E+02  0.65190295755E+02  0.11897218475E+04  0.11965552000E+04  0.81088401166E+02 0.  0.
        -13    1    3    3    0    0 -0.16538049930E+01  0.84575505320E+01 -0.19390275788E+03  0.19409416463E+03  0.00000000000E+00 0.  1.
         14    1    3    3    0    0  0.62515711198E+02  0.68428293930E+02 -0.21609620628E+03  0.23513446350E+03  0.00000000000E+00 0. -1.
         11    1    5    5    0    0 -0.15145983827E+02  0.94579177661E+01  0.85974443177E+02  0.87809213151E+02  0.00000000000E+00 0. -1.
        -12    1    5    5    0    0  0.89180899237E+02  0.55732377988E+02  0.11037474043E+04  0.11087459868E+04  0.00000000000E+00 0.  1.
          5    1    4    4  501    0  0.49467764241E+01  0.15889748550E+02 -0.30518004728E+02  0.35011079940E+02  0.41800000000E+01 0.  1.
         -5    1    4    4    0  501 -0.13984359804E+03 -0.15796588877E+03 -0.81553396959E+03  0.84239099110E+03  0.41800000000E+01 0.  1.
</event>
<event>
11    1  0.8039394E-009  0.1294363E+03  0.7561462E-02  0.1119964E+00
         22   -1    0    0    0    0  0.00000000000E+00  0.00000000000E+00  0.61214529624E+03  0.61214529624E+03  0.00000000000E+00 0.  1.
         22   -1    0    0    0    0 -0.00000000000E+00 -0.00000000000E+00 -0.13894917258E+04  0.13894917258E+04  0.00000000000E+00 0.  1.
        -24    2    1    2    0    0 -0.14703773320E+02  0.24938448344E+02 -0.13500884120E+04  0.13527691295E+04  0.80046676141E+02 0.  0.
         25    2    1    2    0    0 -0.16112938304E+02 -0.67096693986E+01  0.82506637976E+02  0.15086516284E+03  0.12509318768E+03 0.  0.
         24    2    1    2    0    0  0.30816711624E+02 -0.18228778945E+02  0.49023534443E+03  0.49800272972E+03  0.79962915062E+02 0.  0.
        -11    1    5    5    0    0  0.28637458105E+02 -0.10577092513E+02  0.48899929773E+03  0.48995131602E+03  0.00000000000E+00 0.  1.
         12    1    5    5    0    0  0.21792535187E+01 -0.76516864323E+01  0.12360467041E+01  0.80514137026E+01  0.00000000000E+00 0. -1.
         11    1    3    3    0    0 -0.20724525174E+02  0.11504553411E+02 -0.10702209639E+03  0.10961564582E+03  0.00000000000E+00 0. -1.
        -12    1    3    3    0    0  0.60207518537E+01  0.13433894933E+02 -0.12430663156E+04  0.12431534837E+04  0.00000000000E+00 0.  1.
          5    1    4    4  501    0 -0.69167180302E+02 -0.21532063958E+01  0.63957365445E+02  0.94322596038E+02  0.41800000000E+01 0. -1.
         -5    1    4    4    0  501  0.53054241998E+02 -0.45564630028E+01  0.18549272531E+02  0.56542566802E+02  0.41800000000E+01 0. -1.
</event>
<event>
11    1  0.8039394E-009  0.1361207E+03  0.7561462E-02  0.1111969E+00
         22   -1    0    0    0    0  0.00000000000E+00  0.00000000000E+00  0.10079714968E+04  0.10079714968E+04  0.00000000000E+00 0.  1.
         22   -1    0    0    0    0 -0.00000000000E+00 -0.00000000000E+00 -0.72859150970E+02  0.72859150970E+02  0.00000000000E+00 0.  1.
         24    2    1    2    0    0  0.25715053030E+02  0.53401235019E+02  0.20264444440E+02  0.99996209763E+02  0.77946381601E+02 0.  0.
         25    2    1    2    0    0  0.20456890028E+02 -0.49057008155E+02  0.12268718787E+03  0.18309286478E+03  0.12508307906E+03 0.  0.
        -24    2    1    2    0    0 -0.46171943058E+02 -0.43442268634E+01  0.79216071353E+03  0.79774157324E+03  0.81989639456E+02 0.  0.
        -11    1    3    3    0    0 -0.17547467497E+02  0.43734112041E+02 -0.74615444774E+01  0.47710175200E+02  0.00000000000E+00 0.  1.
         12    1    3    3    0    0  0.43262520527E+02  0.96671229773E+01  0.27725988917E+02  0.52286034564E+02  0.00000000000E+00 0. -1.
         11    1    5    5    0    0 -0.50536876125E+02 -0.13840870473E+01  0.22722368250E+03  0.23277992490E+03  0.00000000000E+00 0. -1.
        -12    1    5    5    0    0  0.43649330672E+01 -0.29601398160E+01  0.56493703103E+03  0.56496164834E+03  0.00000000000E+00 0.  1.
          5    1    4    4  501    0 -0.26890744537E+02 -0.26845808272E+01 -0.14299925549E+02  0.30859024396E+02  0.41800000000E+01 0. -1.
         -5    1    4    4    0  501  0.47347634564E+02 -0.46372427328E+02  0.13698711342E+03  0.15223384039E+03  0.41800000000E+01 0. -1.
</event>
<event>
11    1  0.8039394E-009  0.1746153E+03  0.7561462E-02  0.1074084E+00
         22   -1    0    0    0    0  0.00000000000E+00  0.00000000000E+00  0.74054834150E+02  0.74054834150E+02  0.00000000000E+00 0. -1.
         22   -1    0    0    0    0 -0.00000000000E+00 -0.00000000000E+00 -0.20611233862E+04  0.20611233862E+04  0.00000000000E+00 0.  1.
        -24    2    1    2    0    0 -0.15734097297E+02  0.21690708232E+02 -0.11884887010E+04  0.11913536688E+04  0.78103285157E+02 0.  0.
         25    2    1    2    0    0  0.12517800059E+03  0.30698100513E+02 -0.77708341517E+03  0.79757072649E+03  0.12509406229E+03 0.  0.
         24    2    1    2    0    0 -0.10944390329E+03 -0.52388808744E+02 -0.21496435840E+02  0.14625382500E+03  0.78775182159E+02 0.  0.
        -11    1    5    5    0    0 -0.19478731305E+02  0.19565957619E+02 -0.13616021874E+02  0.30783822415E+02  0.00000000000E+00 0.  1.
         12    1    5    5    0    0 -0.89965171986E+02 -0.71954766363E+02 -0.78804139655E+01  0.11547000259E+03  0.00000000000E+00 0. -1.
         13    1    3    3    0    0  0.27961000035E+02  0.20279113372E+02 -0.34281388747E+03  0.34454959208E+03  0.00000000000E+00 0. -1.
        -14    1    3    3    0    0 -0.43695097331E+02  0.14115948593E+01 -0.84567481354E+03  0.84680407674E+03  0.00000000000E+00 0.  1.
          5    1    4    4  501    0 -0.14730900089E+02  0.92097607680E+01 -0.17898222777E+02  0.25291063430E+02  0.41800000000E+01 0.  1.
         -5    1    4    4    0  501  0.13990890068E+03  0.21488339745E+02 -0.75918519239E+03  0.77227966306E+03  0.41800000000E+01 0.  1.
</event>
<event>
11    1  0.8039394E-009  0.1845278E+03  0.7561462E-02  0.1066038E+00
         22   -1    0    0    0    0  0.00000000000E+00  0.00000000000E+00  0.62615004909E+03  0.62615004909E+03  0.00000000000E+00 0. -1.
         22   -1    0    0    0    0 -0.00000000000E+00 -0.00000000000E+00 -0.27696662491E+03  0.27696662491E+03  0.00000000000E+00 0.  1.
         24    2    1    2    0    0 -0.11450642064E+03  0.71613941689E+02 -0.19933386476E+03  0.25993459298E+03  0.97937357425E+02 0.  0.
         25    2    1    2    0    0  0.16400230120E+03 -0.50572908324E+00  0.27518879411E+03  0.34390970166E+03  0.12509196590E+03 0.  0.
        -24    2    1    2    0    0 -0.49495880566E+02 -0.71108212606E+02  0.27332849483E+03  0.29927237935E+03  0.85727888488E+02 0.  0.
        -11    1    3    3    0    0 -0.13102528019E+03  0.68717811256E+02 -0.16432740738E+03  0.22111820017E+03  0.00000000000E+00 0.  1.
         12    1    3    3    0    0  0.16518859554E+02  0.28961304328E+01 -0.35006457381E+02  0.38816392810E+02  0.00000000000E+00 0. -1.
         13    1    5    5    0    0 -0.59251776218E+02 -0.31895815585E+02  0.23163330479E+03  0.24120966798E+03  0.00000000000E+00 0. -1.
        -14    1    5    5    0    0  0.97558956523E+01 -0.39212397020E+02  0.41695190041E+02  0.58062711379E+02  0.00000000000E+00 0.  1.
          5    1    4    4  501    0  0.18224482270E+03 -0.14348575561E+02  0.24012023953E+03  0.30181825467E+03  0.41800000000E+01 0.  1.
         -5    1    4    4    0  501 -0.18242521501E+02  0.13842846478E+02  0.35068554580E+02  0.42091446990E+02  0.41800000000E+01 0.  1.
</event>
<event>
11    1  0.8039394E-009  0.1563901E+03  0.7561462E-02  0.1090522E+00
         22   -1    0    0    0    0  0.00000000000E+00  0.00000000000E+00  0.91537444417E+03  0.91537444417E+03  0.00000000000E+00 0.  1.
         22   -1    0    0    0    0 -0.00000000000E+00 -0.00000000000E+00 -0.12131799023E+04  0.12131799023E+04  0.00000000000E+00 0. -1.
        -24    2    1    2    0    0 -0.72672394404E+02 -0.61027150234E+02 -0.11667493638E+04  0.11734857163E+04  0.82213492972E+02 0.  0.
         25    2    1    2    0    0  0.58694196839E+02  0.18750596952E+02  0.79395004231E+02  0.16046004793E+03  0.12508903491E+03 0.  0.
         24    2    1    2    0    0  0.13978197566E+02  0.42276553282E+02  0.78954890146E+03  0.79460858223E+03  0.77670034078E+02 0.  0.
        -13    1    5    5    0    0  0.33737896761E+02  0.34509491939E+02  0.72609093616E+03  0.72769306599E+03  0.00000000000E+00 0.  1.
         14    1    5    5    0    0 -0.19759699195E+02  0.77670613436E+01  0.63457965305E+02  0.66915516249E+02  0.00000000000E+00 0. -1.
         11    1    3    3    0    0 -0.79527875464E+02 -0.72224153715E+02 -0.11123000351E+04  0.11174758966E+04  0.00000000000E+00 0. -1.
        -12    1    3    3    0    0  0.68554810598E+01  0.11197003480E+02 -0.54449328669E+02  0.56009819675E+02  0.00000000000E+00 0.  1.
          5    1    4    4  501    0  0.16384147778E+02 -0.58616453586E+00  0.10557117913E+03  0.10691833402E+03  0.41800000000E+01 0. -1.
         -5    1    4    4    0  501  0.42310049061E+02  0.19336761488E+02 -0.26176174894E+02  0.53541713910E+02  0.41800000000E+01 0. -1.
</event>
<event>
11    1  0.8039394E-009  0.1644037E+03  0.7561462E-02  0.1083007E+00
         22   -1    0    0    0    0  0.00000000000E+00  0.00000000000E+00  0.19893525728E+04  0.19893525728E+04  0.00000000000E+00 0.  1.
         22   -1    0    0    0    0 -0.00000000000E+00 -0.00000000000E+00 -0.80565320895E+03  0.80565320895E+03  0.00000000000E+00 0. -1.
        -24    2    1    2    0    0  0.17724548172E+02  0.52199471753E+02 -0.78746227587E+03  0.79340725251E+03  0.79745143784E+02 0.  0.
         25    2    1    2    0    0  0.73256254791E+02 -0.10249689085E+03  0.64714295263E+03  0.67105384687E+03  0.12508865964E+03 0.  0.
         24    2    1    2    0    0 -0.90980802963E+02  0.50297419101E+02  0.13240186871E+04  0.13305446823E+04  0.80723795212E+02 0.  0.
        -13    1    5    5    0    0 -0.32947703147E+02  0.62957322756E+02  0.80806688474E+03  0.81118509962E+03  0.00000000000E+00 0.  1.
         14    1    5    5    0    0 -0.58033099815E+02 -0.12659903655E+02  0.51595180232E+03  0.51935958271E+03  0.00000000000E+00 0. -1.
         11    1    3    3    0    0  0.33163278541E+02  0.22569027211E+02 -0.67231253129E+03  0.67350820616E+03  0.00000000000E+00 0. -1.
        -12    1    3    3    0    0 -0.15438730369E+02  0.29630444541E+02 -0.11514974458E+03  0.11989904635E+03  0.00000000000E+00 0.  1.
          5    1    4    4  501    0  0.35218886048E+02 -0.12560002207E+03  0.52530643702E+03  0.54127632560E+03  0.41800000000E+01 0.  1.
         -5    1    4    4    0  501  0.38037368743E+02  0.23103131220E+02  0.12183651561E+03  0.12977752127E+03  0.41800000000E+01 0.  1.
</event>
<event>
11    1  0.8039394E-009  0.3549449E+03  0.7561462E-02  0.9792928E-01
         22   -1    0    0    0    0  0.00000000000E+00  0.00000000000E+00  0.13218644903E+04  0.13218644903E+04  0.00000000000E+00 0.  1.
         22   -1    0    0    0    0 -0.00000000000E+00 -0.00000000000E+00 -0.97523262372E+03  0.97523262372E+03  0.00000000000E+00 0. -1.
         24    2    1    2    0    0  0.23259765083E+02  0.72454693389E+02 -0.79957003751E+03  0.80660586058E+03  0.74229846902E+02 0.  0.
         25    2    1    2    0    0  0.15943262163E+03 -0.34097920219E+03  0.12499228230E+03  0.41587981457E+03  0.12508945748E+03 0.  0.
        -24    2    1    2    0    0 -0.18269238671E+03  0.26852450880E+03  0.10212096218E+04  0.10746114389E+04  0.80241715564E+02 0.  0.
        -13    1    3    3    0    0  0.38270774819E+02  0.70008283329E+01 -0.26735743582E+03  0.27017339301E+03  0.00000000000E+00 0.  1.
         14    1    3    3    0    0 -0.15011009736E+02  0.65453865056E+02 -0.53221260169E+03  0.53643246757E+03  0.00000000000E+00 0. -1.
         11    1    5    5    0    0  0.27130702157E+01  0.33179409619E+02  0.13841766838E+03  0.14236461952E+03  0.00000000000E+00 0. -1.
        -12    1    5    5    0    0 -0.18540545693E+03  0.23534509918E+03  0.88279195344E+03  0.93224681937E+03  0.00000000000E+00 0.  1.
          5    1    4    4  501    0  0.40065701713E+02 -0.91558469475E+01 -0.11704478404E+01  0.41327137999E+02  0.41800000000E+01 0.  1.
         -5    1    4    4    0  501  0.11936691991E+03 -0.33182335524E+03  0.12616273014E+03  0.37455267657E+03  0.41800000000E+01 0.  1.
</event>
<event>
11    1  0.8039394E-009  0.1628574E+03  0.7561462E-02  0.1084420E+00
         22   -1    0    0    0    0  0.00000000000E+00  0.00000000000E+00  0.52439267984E+03  0.52439267984E+03  0.00000000000E+00 0. -1.
         22   -1    0    0    0    0 -0.00000000000E+00 -0.00000000000E+00 -0.73889643214E+03  0.73889643214E+03  0.00000000000E+00 0. -1.
        -24    2    1    2    0    0 -0.99984239637E+01 -0.97862643221E+02 -0.49990002633E+03  0.51609347568E+03  0.82312659383E+02 0.  0.
         25    2    1    2    0    0 -0.47023288828E+01  0.13172355844E+03 -0.19053440110E+03  0.26329434822E+03  0.12508936030E+03 0.  0.
         24    2    1    2    0    0  0.14700752846E+02 -0.33860915221E+02  0.47593067513E+03  0.48390128808E+03  0.79295493991E+02 0.  0.
        -13    1    5    5    0    0  0.47442213756E+02 -0.24576077145E+02  0.28834121723E+03  0.29324973106E+03  0.00000000000E+00 0.  1.
         14    1    5    5    0    0 -0.32741460909E+02 -0.92848380761E+01  0.18758945790E+03  0.19065155702E+03  0.00000000000E+00 0. -1.
         13    1    3    3    0    0 -0.20095062237E+02 -0.10813365260E+03 -0.38857330867E+03  0.40383897108E+03  0.00000000000E+00 0. -1.
        -14    1    3    3    0    0  0.10096638274E+02  0.10271009383E+02 -0.11132671766E+03  0.11225450460E+03  0.00000000000E+00 0.  1.
          5    1    4    4  501    0  0.83744572226E+01  0.10153793732E+03 -0.20355651714E+03  0.22766820665E+03  0.41800000000E+01 0.  1.
         -5    1    4    4    0  501 -0.13076786105E+02  0.30185621124E+02  0.13022116041E+02  0.35626141577E+02  0.41800000000E+01 0.  1.
</event>
<event>
11    1  0.8039394E-009  0.2470148E+03  0.7561462E-02  0.1025502E+00
         22   -1    0    0    0    0  0.00000000000E+00  0.00000000000E+00  0.20547834056E+04  0.20547834056E+04  0.00000000000E+00 0.  1.
         22   -1    0    0    0    0 -0.00000000000E+00 -0.00000000000E+00 -0.21383194197E+03  0.21383194197E+03  0.00000000000E+00 0.  1.
         24    2    1    2    0    0  0.12038627185E+03 -0.54803727661E+02 -0.11140422331E+03  0.19024006683E+03  0.79272183277E+02 0.  0.
         25    2    1    2    0    0 -0.75800192977E+02  0.25896153193E+03  0.34497835637E+03  0.45548491584E+03  0.12509875268E+03 0.  0.
        -24    2    1    2    0    0 -0.44586078877E+02 -0.20415780427E+03  0.16073773305E+04  0.16228903649E+04  0.80267840237E+02 0.  0.
        -13    1    3    3    0    0 -0.49934224856E+01 -0.19867272939E+02 -0.31304555239E+02  0.37411468574E+02  0.00000000000E+00 0.  1.
         14    1    3    3    0    0  0.12537969434E+03 -0.34936454722E+02 -0.80099668071E+02  0.15282859826E+03  0.00000000000E+00 0. -1.
         11    1    5    5    0    0  0.23006762079E+02 -0.59253188822E+02  0.50212988496E+03  0.50613700997E+03  0.00000000000E+00 0. -1.
        -12    1    5    5    0    0 -0.67592840956E+02 -0.14490461544E+03  0.11052474456E+04  0.11167533549E+04  0.00000000000E+00 0.  1.
          5    1    4    4  501    0 -0.10737373272E+03  0.22785108800E+03  0.30558949765E+03  0.39603996043E+03  0.41800000000E+01 0.  1.
         -5    1    4    4    0  501  0.31573539742E+02  0.31110443925E+02  0.39388858721E+02  0.59444955415E+02  0.41800000000E+01 0.  1.
</event>
<event>
11    1  0.8039394E-009  0.2513586E+03  0.7561462E-02  0.1023178E+00
         22   -1    0    0    0    0  0.00000000000E+00  0.00000000000E+00  0.64867824766E+03  0.64867824766E+03  0.00000000000E+00 0.  1.
         22   -1    0    0    0    0 -0.00000000000E+00 -0.00000000000E+00 -0.19301879975E+03  0.19301879975E+03  0.00000000000E+00 0. -1.
         24    2    1    2    0    0  0.21137776277E+03 -0.51260272604E+02 -0.31409427985E+02  0.23531614905E+03  0.84136577647E+02 0.  0.
         25    2    1    2    0    0 -0.21123113863E+03  0.60333179103E+02  0.24841514130E+03  0.35442495793E+03  0.12509309314E+03 0.  0.
        -24    2    1    2    0    0 -0.14662413749E+00 -0.90729064992E+01  0.23865373460E+03  0.25195594043E+03  0.80273605563E+02 0.  0.
        -11    1    3    3    0    0  0.61203592112E+02 -0.37438165249E+02 -0.43700277420E+02  0.84007202972E+02  0.00000000000E+00 0.  1.
         12    1    3    3    0    0  0.15017417066E+03 -0.13822107355E+02  0.12290849435E+02  0.15130894608E+03  0.00000000000E+00 0. -1.
         11    1    5    5    0    0  0.66441133662E-02  0.21331265702E+02  0.14601405641E+02  0.25850028767E+02  0.00000000000E+00 0. -1.
        -12    1    5    5    0    0 -0.15326825086E+00 -0.30404172201E+02  0.22405232896E+03  0.22610591166E+03  0.00000000000E+00 0.  1.
          5    1    4    4  501    0 -0.21867725671E+03  0.40862582710E+02  0.24796828076E+03  0.33315947222E+03  0.41800000000E+01 0.  1.
         -5    1    4    4    0  501  0.74461180777E+01  0.19470596393E+02  0.44686054367E+00  0.21265485714E+02  0.41800000000E+01 0.  1.
</event>
<event>
11    1  0.8039394E-009  0.1670018E+03  0.7561462E-02  0.1080671E+00
         22   -1    0    0    0    0  0.00000000000E+00  0.00000000000E+00  0.19447510324E+04  0.19447510324E+04  0.00000000000E+00 0.  1.
         22   -1    0    0    0    0 -0.00000000000E+00 -0.00000000000E+00 -0.98957628865E+02  0.98957628865E+02  0.00000000000E+00 0.  1.
         24    2    1    2    0    0  0.22147069295E+02 -0.10349101707E+03 -0.20140244237E+02  0.13438544417E+03  0.80330161679E+02 0.  0.
         25    2    1    2    0    0 -0.39612755900E+02  0.14557594462E+03  0.45530614283E+03  0.49569432184E+03  0.12509057090E+03 0.  0.
        -24    2    1    2    0    0  0.17465686605E+02 -0.42084927551E+02  0.14106275049E+04  0.14136288952E+04  0.80003152777E+02 0.  0.
        -11    1    3    3    0    0 -0.29863892799E+02 -0.27808583568E+02 -0.98582813344E+01  0.41980413576E+02  0.00000000000E+00 0.  1.
         12    1    3    3    0    0  0.52010962094E+02 -0.75682433498E+02 -0.10281962903E+02  0.92405030595E+02  0.00000000000E+00 0. -1.
         13    1    5    5    0    0 -0.27569434350E+02 -0.33340957899E+02  0.50911620451E+03  0.51095107680E+03  0.00000000000E+00 0. -1.
        -14    1    5    5    0    0  0.45035120956E+02 -0.87439696522E+01  0.90151130042E+03  0.90267781845E+03  0.00000000000E+00 0.  1.
          5    1    4    4  501    0 -0.49849533611E+02  0.16558505415E+03  0.40802712425E+03  0.44317828543E+03  0.41800000000E+01 0.  1.
         -5    1    4    4    0  501  0.10236777710E+02 -0.20009109529E+02  0.47279018578E+02  0.52516036406E+02  0.41800000000E+01 0.  1.
</event>
<event>
11    1  0.8039394E-009  0.1323067E+03  0.7561462E-02  0.1116467E+00
         22   -1    0    0    0    0  0.00000000000E+00  0.00000000000E+00  0.24701277867E+04  0.24701277867E+04  0.00000000000E+00 0.  1.
         22   -1    0    0    0    0 -0.00000000000E+00 -0.00000000000E+00 -0.24457893298E+03  0.24457893298E+03  0.00000000000E+00 0. -1.
        -24    2    1    2    0    0  0.93318155542E+01 -0.17663394677E+02 -0.22422938346E+03  0.23809914926E+03  0.77545536152E+02 0.  0.
         25    2    1    2    0    0  0.18755121185E+02  0.49594910214E+02  0.35952544108E+03  0.38434227614E+03  0.12509609409E+03 0.  0.
         24    2    1    2    0    0 -0.28086936739E+02 -0.31931515537E+02  0.20902527961E+04  0.20922652943E+04  0.81294602449E+02 0.  0.
        -13    1    5    5    0    0  0.77402195269E+01  0.21726754568E+02  0.87220274942E+03  0.87250764980E+03  0.00000000000E+00 0.  1.
         14    1    5    5    0    0 -0.35827156266E+02 -0.53658270106E+02  0.12180500466E+04  0.12197576445E+04  0.00000000000E+00 0. -1.
         13    1    3    3    0    0 -0.13056199196E+02 -0.31023843636E+02 -0.19897423861E+03  0.20180111705E+03  0.00000000000E+00 0. -1.
        -14    1    3    3    0    0  0.22388014750E+02  0.13360448958E+02 -0.25255144849E+02  0.36298032208E+02  0.00000000000E+00 0.  1.
          5    1    4    4  501    0 -0.47308656459E+02  0.26975914237E+02  0.84935234238E+02  0.10098155941E+03  0.41800000000E+01 0.  1.
         -5    1    4    4    0  501  0.66063777644E+02  0.22618995978E+02  0.27459020684E+03  0.28336071674E+03  0.41800000000E+01 0.  1.
</event>
<event>
11    1  0.8039394E-009  0.1597317E+03  0.7561462E-02  0.1087330E+00
         22   -1    0    0    0    0  0.00000000000E+00  0.00000000000E+00  0.16778347607E+04  0.16778347607E+04  0.00000000000E+00 0. -1.
         22   -1    0    0    0    0 -0.00000000000E+00 -0.00000000000E+00 -0.13762935522E+03  0.13762935522E+03  0.00000000000E+00 0.  1.
         24    2    1    2    0    0  0.62181023157E+02  0.75286822642E+02 -0.86902829159E+02  0.15753696791E+03  0.87927295188E+02 0.  0.
         25    2    1    2    0    0 -0.14155944984E+03 -0.66492012488E+02  0.88928852433E+03  0.91156035561E+03  0.12509171371E+03 0.  0.
        -24    2    1    2    0    0  0.79378426685E+02 -0.87948101540E+01  0.73781971032E+03  0.74636679241E+03  0.79417759735E+02 0.  0.
        -13    1    3    3    0    0  0.63584738748E+02  0.87220704090E+01 -0.34900408336E+02  0.73055677506E+02  0.00000000000E+00 0.  1.
         14    1    3    3    0    0 -0.14037155914E+01  0.66564752233E+02 -0.52002420824E+02  0.84481290407E+02  0.00000000000E+00 0. -1.
         11    1    5    5    0    0  0.82019438403E+02 -0.32903667179E+02  0.58130352806E+03  0.58798267944E+03  0.00000000000E+00 0. -1.
        -12    1    5    5    0    0 -0.26410117182E+01  0.24108857025E+02  0.15651618227E+03  0.15838411297E+03  0.00000000000E+00 0.  1.
          5    1    4    4  501    0 -0.15404230341E+03 -0.77117165179E+02  0.67654158948E+03  0.69814187892E+03  0.41800000000E+01 0.  1.
         -5    1    4    4    0  501  0.12482853563E+02  0.10625152691E+02  0.21274693485E+03  0.21341847669E+03  0.41800000000E+01 0.  1.
</event>
<event>
11    1  0.8039394E-009  0.1818482E+03  0.7561462E-02  0.1068158E+00
         22   -1    0    0    0    0  0.00000000000E+00  0.00000000000E+00  0.68548376848E+03  0.68548376848E+03  0.00000000000E+00 0.  1.
         22   -1    0    0    0    0 -0.00000000000E+00 -0.00000000000E+00 -0.10686872685E+04  0.10686872685E+04  0.00000000000E+00 0.  1.
         24    2    1    2    0    0  0.11861473260E+03  0.55100569074E+02 -0.10052981468E+04  0.10165870160E+04  0.75625853417E+02 0.  0.
         25    2    1    2    0    0 -0.17171457520E+03 -0.60340146520E+02  0.17832961283E+03  0.28385876257E+03  0.12509003820E+03 0.  0.
        -24    2    1    2    0    0  0.53099842608E+02  0.52395774461E+01  0.44376503387E+03  0.45372525845E+03  0.78052279990E+02 0.  0.
        -13    1    3    3    0    0  0.11306820153E+03  0.65046294825E+02 -0.98230752809E+03  0.99093063249E+03  0.00000000000E+00 0.  1.
         14    1    3    3    0    0  0.55465310629E+01 -0.99457257503E+01 -0.22990618672E+02  0.25656383503E+02  0.00000000000E+00 0. -1.
         11    1    5    5    0    0  0.13154298293E+02  0.12735681489E+02  0.16859023952E+02  0.24888950062E+02  0.00000000000E+00 0. -1.
        -12    1    5    5    0    0  0.39945544315E+02 -0.74961040425E+01  0.42690600992E+03  0.42883630839E+03  0.00000000000E+00 0.  1.
          5    1    4    4  501    0 -0.30104909837E+02 -0.18286216047E+02 -0.16665694547E+02  0.39190675783E+02  0.41800000000E+01 0.  1.
         -5    1    4    4    0  501 -0.14160966537E+03 -0.42053930474E+02  0.19499530737E+03  0.24466808679E+03  0.41800000000E+01 0.  1.
</event>
<event>
11    1  0.8039394E-009  0.1557600E+03  0.7561462E-02  0.1091134E+00
         22   -1    0    0    0    0  0.00000000000E+00  0.00000000000E+00  0.73729122958E+03  0.73729122958E+03  0.00000000000E+00 0. -1.
         22   -1    0    0    0    0 -0.00000000000E+00 -0.00000000000E+00 -0.74347100675E+03  0.74347100675E+03  0.00000000000E+00 0.  1.
        -24    2    1    2    0    0 -0.88970397165E+02 -0.24620689069E+02 -0.66651431053E+03  0.67716144495E+03  0.76055154199E+02 0.  0.
         25    2    1    2    0    0  0.77410201804E+02  0.10713349282E+03  0.59377394038E+02  0.19142011844E+03  0.12508422040E+03 0.  0.
         24    2    1    2    0    0  0.11560195361E+02 -0.82512803754E+02  0.60095713933E+03  0.61218067294E+03  0.81692668617E+02 0.  0.
        -13    1    5    5    0    0  0.24616019297E+02 -0.72684605793E+02  0.26661181641E+03  0.27743622866E+03  0.00000000000E+00 0.  1.
         14    1    5    5    0    0 -0.13055823936E+02 -0.98281979616E+01  0.33434532292E+03  0.33474444428E+03  0.00000000000E+00 0. -1.
         11    1    3    3    0    0 -0.15181683696E+02 -0.40464614735E+02 -0.28443827319E+03  0.28770297152E+03  0.00000000000E+00 0. -1.
        -12    1    3    3    0    0 -0.73788713469E+02  0.15843925666E+02 -0.38207603735E+03  0.38945847344E+03  0.00000000000E+00 0.  1.
          5    1    4    4  501    0 -0.31142444642E+02  0.49445310850E+02  0.25082115868E+02  0.63728137896E+02  0.41800000000E+01 0. -1.
         -5    1    4    4    0  501  0.10855264645E+03  0.57688181973E+02  0.34295278171E+02  0.12769198054E+03  0.41800000000E+01 0. -1.
</event>
<event>
11    1  0.8039394E-009  0.1353808E+03  0.7561462E-02  0.1112829E+00
         22   -1    0    0    0    0  0.00000000000E+00  0.00000000000E+00  0.17885202600E+03  0.17885202600E+03  0.00000000000E+00 0.  1.
         22   -1    0    0    0    0 -0.00000000000E+00 -0.00000000000E+00 -0.55566970225E+03  0.55566970225E+03  0.00000000000E+00 0. -1.
        -24    2    1    2    0    0 -0.43770182248E+02  0.30218762319E+02 -0.43671635115E+03  0.44695501168E+03  0.78858155258E+02 0.  0.
         25    2    1    2    0    0  0.10692763170E+02 -0.51028932225E+02 -0.53335647649E+02  0.14563741726E+03  0.12508908380E+03 0.  0.
         24    2    1    2    0    0  0.33077419077E+02  0.20810169906E+02  0.11323432256E+03  0.14192929932E+03  0.76123159256E+02 0.  0.
        -13    1    5    5    0    0  0.29735758855E+02 -0.17284934250E+02  0.91931090353E+02  0.98154519408E+02  0.00000000000E+00 0.  1.
         14    1    5    5    0    0  0.33416602224E+01  0.38095104156E+02  0.21303232203E+02  0.43774779908E+02  0.00000000000E+00 0. -1.
         13    1    3    3    0    0 -0.10621609821E+02  0.10474940994E+02 -0.36676779028E+03  0.36707104894E+03  0.00000000000E+00 0. -1.
        -14    1    3    3    0    0 -0.33148572427E+02  0.19743821325E+02 -0.69948560871E+02  0.79883962735E+02  0.00000000000E+00 0.  1.
          5    1    4    4  501    0  0.42760348108E+01 -0.87392578901E+02 -0.94096401501E+01  0.88100857251E+02  0.41800000000E+01 0.  1.
         -5    1    4    4    0  501  0.64167283596E+01  0.36363646676E+02 -0.43926007499E+02  0.57536560005E+02  0.41800000000E+01 0.  1.
</event>
<event>
11    1  0.8039394E-009  0.1742902E+03  0.7561462E-02  0.1074357E+00
         22   -1    0    0    0    0  0.00000000000E+00  0.00000000000E+00  0.20508361292E+04  0.20508361292E+04  0.00000000000E+00 0.  1.
         22   -1    0    0    0    0 -0.00000000000E+00 -0.00000000000E+00 -0.32832998073E+03  0.32832998073E+03  0.00000000000E+00 0. -1.
        -24    2    1    2    0    0  0.12115384475E+03  0.45099622636E+01 -0.30402046613E+03  0.33481308026E+03  0.70517806450E+02 0.  0.
         25    2    1    2    0    0 -0.13106876970E+03  0.40494995635E+01  0.11628056948E+04  0.11768435487E+04  0.12509289896E+03 0.  0.
         24    2    1    2    0    0  0.99149249488E+01 -0.85594618271E+01  0.86372091979E+03  0.86750948099E+03  0.79920599346E+02 0.  0.
        -13    1    5    5    0    0  0.76879713415E+01 -0.44074436339E+02  0.53528191173E+03  0.53714838347E+03  0.00000000000E+00 0.  1.
         14    1    5    5    0    0  0.22269536073E+01  0.35514974512E+02  0.32843900806E+03  0.33036109752E+03  0.00000000000E+00 0. -1.
         13    1    3    3    0    0  0.12188340622E+03  0.20326349503E+02 -0.27987766414E+03  0.30594155011E+03  0.00000000000E+00 0. -1.
        -14    1    3    3    0    0 -0.72956147179E+00 -0.15816387240E+02 -0.24142801990E+02  0.28871530150E+02  0.00000000000E+00 0.  1.
          5    1    4    4  501    0 -0.14521968147E+03  0.11027267539E+02  0.11370831544E+04  0.11463794873E+04  0.41800000000E+01 0. -1.
         -5    1    4    4    0  501  0.14150911778E+02 -0.69777679751E+01  0.25722540390E+02  0.30464061354E+02  0.41800000000E+01 0. -1.
</event>
<event>
11    1  0.8039394E-009  0.1471932E+03  0.7561462E-02  0.1099782E+00
         22   -1    0    0    0    0  0.00000000000E+00  0.00000000000E+00  0.69670664988E+03  0.69670664988E+03  0.00000000000E+00 0. -1.
         22   -1    0    0    0    0 -0.00000000000E+00 -0.00000000000E+00 -0.11575635299E+03  0.11575635299E+03  0.00000000000E+00 0. -1.
         24    2    1    2    0    0  0.52732156580E+02 -0.53215152880E+02 -0.80101986183E+01  0.11036010341E+03  0.80639049524E+02 0.  0.
         25    2    1    2    0    0  0.26062291506E+02  0.73340903434E+02  0.56950452232E+02  0.15795784601E+03  0.12509674636E+03 0.  0.
        -24    2    1    2    0    0 -0.78794448086E+02 -0.20125750553E+02  0.53201004327E+03  0.54414505346E+03  0.80284134066E+02 0.  0.
        -13    1    3    3    0    0  0.32997040874E+02 -0.20876064232E+02  0.35426904038E+02  0.52722673434E+02  0.00000000000E+00 0.  1.
         14    1    3    3    0    0  0.19735115706E+02 -0.32339088648E+02 -0.43437102657E+02  0.57637429972E+02  0.00000000000E+00 0. -1.
         11    1    5    5    0    0 -0.92542303059E+02 -0.67734976404E+01  0.47563581822E+03  0.48460230055E+03  0.00000000000E+00 0. -1.
        -12    1    5    5    0    0  0.13747854973E+02 -0.13352252913E+02  0.56374225048E+02  0.59542752909E+02  0.00000000000E+00 0.  1.
          5    1    4    4  501    0  0.35101095873E+02  0.80596036991E+02 -0.11186927808E+02  0.88715431937E+02  0.41800000000E+01 0.  1.
         -5    1    4    4    0  501 -0.90388043671E+01 -0.72551335571E+01  0.68137380040E+02  0.69242414068E+02  0.41800000000E+01 0.  1.
</event>
<event>
11    1  0.8039394E-009  0.3163066E+03  0.7561462E-02  0.9935167E-01
         22   -1    0    0    0    0  0.00000000000E+00  0.00000000000E+00  0.71172787294E+03  0.71172787294E+03  0.00000000000E+00 0. -1.
         22   -1    0    0    0    0 -0.00000000000E+00 -0.00000000000E+00 -0.24259818911E+03  0.24259818911E+03  0.00000000000E+00 0.  1.
        -24    2    1    2    0    0  0.21272754735E+03 -0.16606923711E+03  0.14148613704E+02  0.28026935394E+03  0.74288132126E+02 0.  0.
         25    2    1    2    0    0 -0.25532366628E+03  0.22072941747E+03  0.23582830854E+03  0.43031862419E+03  0.12508987536E+03 0.  0.
         24    2    1    2    0    0  0.42596118934E+02 -0.54660180355E+02  0.21915276159E+03  0.24373808391E+03  0.81105831925E+02 0.  0.
        -11    1    5    5    0    0  0.23761460919E+02  0.19023140580E+02  0.56270157314E+02  0.63975131939E+02  0.00000000000E+00 0.  1.
         12    1    5    5    0    0  0.18834658015E+02 -0.73683320935E+02  0.16288260427E+03  0.17976295197E+03  0.00000000000E+00 0. -1.
         11    1    3    3    0    0  0.14819233736E+03 -0.85775859077E+02  0.35984731224E+02  0.17496676180E+03  0.00000000000E+00 0. -1.
        -12    1    3    3    0    0  0.64535209989E+02 -0.80293378035E+02 -0.21836117520E+02  0.10530259215E+03  0.00000000000E+00 0.  1.
          5    1    4    4  501    0 -0.10579116649E+03  0.91778391139E+02  0.26635404707E+02  0.14262524731E+03  0.41800000000E+01 0.  1.
         -5    1    4    4    0  501 -0.14953249980E+03  0.12895102633E+03  0.20919290384E+03  0.28769337688E+03  0.41800000000E+01 0.  1.
</event>
<event>
11    1  0.8039394E-009  0.1361664E+03  0.7561462E-02  0.1111916E+00
         22   -1    0    0    0    0  0.00000000000E+00  0.00000000000E+00  0.90065363746E+03  0.90065363746E+03  0.00000000000E+00 0. -1.
         22   -1    0    0    0    0 -0.00000000000E+00 -0.00000000000E+00 -0.91427989844E+02  0.91427989844E+02  0.00000000000E+00 0.  1.
         24    2    1    2    0    0 -0.53848272942E+02 -0.66989729782E+01 -0.43910188081E+02  0.10597295059E+03  0.79734866280E+02 0.  0.
         25    2    1    2    0    0  0.50979870192E+02 -0.22298569132E+02  0.35255560916E+03  0.37820338924E+03  0.12508466224E+03 0.  0.
        -24    2    1    2    0    0  0.28684027502E+01  0.28997542110E+02  0.50058022654E+03  0.50790528748E+03  0.80858720433E+02 0.  0.
        -13    1    3    3    0    0 -0.64412797373E+02  0.18247345918E+01 -0.57791636021E+02  0.86557560708E+02  0.00000000000E+00 0.  1.
         14    1    3    3    0    0  0.10564524431E+02 -0.85237075699E+01  0.13881447940E+02  0.19415389878E+02  0.00000000000E+00 0. -1.
         11    1    5    5    0    0  0.26378892171E+02  0.44914668734E+02  0.40059095949E+03  0.40396322883E+03  0.00000000000E+00 0. -1.
        -12    1    5    5    0    0 -0.23510489421E+02 -0.15917126624E+02  0.99989267043E+02  0.10394205865E+03  0.00000000000E+00 0.  1.
          5    1    4    4  501    0 -0.18400654190E+02  0.20182156568E+02  0.15995534518E+02  0.31925429408E+02  0.41800000000E+01 0. -1.
         -5    1    4    4    0  501  0.69380524382E+02 -0.42480725700E+02  0.33656007464E+03  0.34627795983E+03  0.41800000000E+01 0. -1.
</event>
<event>
11    1  0.8039394E-009  0.1256481E+03  0.7561462E-02  0.1124735E+00
         22   -1    0    0    0    0  0.00000000000E+00  0.00000000000E+00  0.62876789575E+03  0.62876789575E+03  0.00000000000E+00 0. -1.
         22   -1    0    0    0    0 -0.00000000000E+00 -0.00000000000E+00 -0.62563872613E+03  0.62563872613E+03  0.00000000000E+00 0.  1.
        -24    2    1    2    0    0  0.91107216520E+00  0.27237915791E+02 -0.58092916504E+03  0.58702625308E+03  0.79864841500E+02 0.  0.
         25    2    1    2    0    0  0.94398421208E+01 -0.30658084984E+02  0.72079000256E+02  0.14789146062E+03  0.12508985991E+03 0.  0.
         24    2    1    2    0    0 -0.10350914286E+02  0.34201691928E+01  0.51197933439E+03  0.51948890817E+03  0.87332971341E+02 0.  0.
        -11    1    5    5    0    0  0.62484063700E+01  0.28784150563E+02  0.63637181226E+02  0.70123182616E+02  0.00000000000E+00 0.  1.
         12    1    5    5    0    0 -0.16599320656E+02 -0.25363981370E+02  0.44834215317E+03  0.44936572556E+03  0.00000000000E+00 0. -1.
         13    1    3    3    0    0 -0.11720928645E+02 -0.15749445438E+01 -0.10756576434E+02  0.15986386558E+02  0.00000000000E+00 0. -1.
        -14    1    3    3    0    0  0.12632000810E+02  0.28812860335E+02 -0.57017258860E+03  0.57103986652E+03  0.00000000000E+00 0.  1.
          5    1    4    4  501    0 -0.35634622910E+02  0.10492059135E+02  0.77934356211E+02  0.86435790810E+02  0.41800000000E+01 0.  1.
         -5    1    4    4    0  501  0.45074465031E+02 -0.41150144119E+02 -0.58553559559E+01  0.61455669814E+02  0.41800000000E+01 0.  1.
</event>
<event>
11    1  0.1030767E-008  0.2749318E+03  0.7561462E-02  0.1011397E+00
         22   -1    0    0    0    0  0.00000000000E+00  0.00000000000E+00  0.93238424019E+03  0.93238424019E+03  0.00000000000E+00 0. -1.
         22   -1    0    0    0    0 -0.00000000000E+00 -0.00000000000E+00 -0.33863853529E+04  0.33863853529E+04  0.00000000000E+00 0. -1.
         24    2    1    2    0    0 -0.63538112775E+01  0.40325654521E+01 -0.15034295084E+04  0.15057031508E+04  0.82371471647E+02 0.  0.
         25    2    1    2    0    0 -0.14817814263E+03 -0.19393706180E+03 -0.18537621096E+04  0.18739397178E+04  0.12509101163E+03 0.  0.
        -24    2    1    2    0    0  0.15453195391E+03  0.18990449635E+03  0.90319050526E+03  0.93912672441E+03  0.79133262269E+02 0.  0.
        -11    1    3    3    0    0 -0.31386215121E+02 -0.17692930239E+02 -0.36113193623E+03  0.36292479888E+03  0.00000000000E+00 0.  1.
         12    1    3    3    0    0  0.25032403843E+02  0.21725495691E+02 -0.11422975721E+04  0.11427783520E+04  0.00000000000E+00 0. -1.
         13    1    5    5    0    0  0.14873778142E+03  0.18613959353E+03  0.77615904551E+03  0.81190746999E+03  0.00000000000E+00 0. -1.
        -14    1    5    5    0    0  0.57941724814E+01  0.37649028132E+01  0.12703145975E+03  0.12721925442E+03  0.00000000000E+00 0.  1.
          5    1    4    4  501    0 -0.11541535588E+02 -0.21100555872E+02 -0.63151414523E+03  0.63198578190E+03  0.41800000000E+01 0.  1.
         -5    1    4    4    0  501 -0.13663660704E+03 -0.17283650593E+03 -0.12222479643E+04  0.12419539359E+04  0.41800000000E+01 0.  1.
</event>
<event>
11    1  0.8039394E-009  0.1578243E+03  0.7561462E-02  0.1089142E+00
         22   -1    0    0    0    0  0.00000000000E+00  0.00000000000E+00  0.13238872302E+04  0.13238872302E+04  0.00000000000E+00 0. -1.
         22   -1    0    0    0    0 -0.00000000000E+00 -0.00000000000E+00 -0.38468080826E+03  0.38468080826E+03  0.00000000000E+00 0.  1.
         24    2    1    2    0    0  0.77497704519E+01 -0.17353838552E+02 -0.32003890402E+03  0.33075369612E+03  0.81313545960E+02 0.  0.
         25    2    1    2    0    0 -0.43941785582E+02 -0.72605124990E+02  0.45611141312E+02  0.15787336100E+03  0.12506493196E+03 0.  0.
        -24    2    1    2    0    0  0.36192015130E+02  0.89958963542E+02  0.12136341846E+04  0.12199409813E+04  0.77107630634E+02 0.  0.
        -11    1    3    3    0    0  0.61701250141E+01 -0.48744290484E+02 -0.23526802878E+03  0.24034375728E+03  0.00000000000E+00 0.  1.
         12    1    3    3    0    0  0.15796454377E+01  0.31390451933E+02 -0.84770875247E+02  0.90409938847E+02  0.00000000000E+00 0. -1.
         13    1    5    5    0    0  0.56005895780E+02  0.81167469409E+02  0.10870832973E+04  0.10915470277E+04  0.00000000000E+00 0. -1.
        -14    1    5    5    0    0 -0.19813880650E+02  0.87914941330E+01  0.12655088735E+03  0.12839395361E+03  0.00000000000E+00 0.  1.
          5    1    4    4  501    0  0.18521347881E+02 -0.84210269235E+02  0.16599730693E+02  0.87905820234E+02  0.41800000000E+01 0.  1.
         -5    1    4    4    0  501 -0.62463133463E+02  0.11605144245E+02  0.29011410619E+02  0.69967540767E+02  0.41800000000E+01 0.  1.
</event>
<event>
11    1  0.8039394E-009  0.1297120E+03  0.7561462E-02  0.1119623E+00
         22   -1    0    0    0    0  0.00000000000E+00  0.00000000000E+00  0.10061536995E+03  0.10061536995E+03  0.00000000000E+00 0.  1.
         22   -1    0    0    0    0 -0.00000000000E+00 -0.00000000000E+00 -0.92610471681E+03  0.92610471681E+03  0.00000000000E+00 0. -1.
        -24    2    1    2    0    0 -0.20841347910E+02  0.22809494726E+02 -0.71983186419E+03  0.72697464970E+03  0.96848302857E+02 0.  0.
         25    2    1    2    0    0  0.67120625669E+02 -0.22497321348E+02 -0.13781670968E+03  0.19912863158E+03  0.12508980210E+03 0.  0.
         24    2    1    2    0    0 -0.46279277759E+02 -0.31217337797E+00  0.32159227006E+02  0.10061680548E+03  0.83352604411E+02 0.  0.
        -11    1    5    5    0    0  0.22206228115E+02 -0.18427659798E+01 -0.47797902833E+01  0.22789443800E+02  0.00000000000E+00 0.  1.
         12    1    5    5    0    0 -0.68485505874E+02  0.15305926019E+01  0.36939017289E+02  0.77827361685E+02  0.00000000000E+00 0. -1.
         11    1    3    3    0    0  0.12835836516E+02  0.53525394335E+02 -0.34159961441E+03  0.34600581369E+03  0.00000000000E+00 0. -1.
        -12    1    3    3    0    0 -0.33677184427E+02 -0.30715899609E+02 -0.37823224978E+03  0.38096883601E+03  0.00000000000E+00 0.  1.
          5    1    4    4  501    0  0.11501828372E+02 -0.64685821026E+02 -0.99720019019E+02  0.11949101259E+03  0.41800000000E+01 0.  1.
         -5    1    4    4    0  501  0.55618797297E+02  0.42188499678E+02 -0.38096690663E+02  0.79637618984E+02  0.41800000000E+01 0.  1.
</event>
<event>
11    1  0.8039394E-009  0.1324787E+03  0.7561462E-02  0.1116260E+00
         22   -1    0    0    0    0  0.00000000000E+00  0.00000000000E+00  0.45738886978E+03  0.45738886978E+03  0.00000000000E+00 0.  1.
         22   -1    0    0    0    0 -0.00000000000E+00 -0.00000000000E+00 -0.18574332873E+03  0.18574332873E+03  0.00000000000E+00 0. -1.
         24    2    1    2    0    0  0.12199744861E+02  0.19421093126E+02 -0.11557324549E+03  0.14238967120E+03  0.79947675126E+02 0.  0.
         25    2    1    2    0    0 -0.24460270383E+02  0.23906346099E+02  0.30191784749E+02  0.13314883244E+03  0.12508896635E+03 0.  0.
        -24    2    1    2    0    0  0.12260525522E+02 -0.43327439226E+02  0.35702700180E+03  0.36759369487E+03  0.75028374792E+02 0.  0.
        -11    1    3    3    0    0 -0.33596161891E+02  0.15073815221E+02 -0.44972126053E+02  0.58124126839E+02  0.00000000000E+00 0.  1.
         12    1    3    3    0    0  0.45795906752E+02  0.43472779055E+01 -0.70601119441E+02  0.84265544363E+02  0.00000000000E+00 0. -1.
         13    1    5    5    0    0 -0.20709042229E+02 -0.41982758513E+02  0.12980383846E+03  0.13798714767E+03  0.00000000000E+00 0. -1.
        -14    1    5    5    0    0  0.32969567751E+02 -0.13446807130E+01  0.22722316333E+03  0.22960654721E+03  0.00000000000E+00 0.  1.
          5    1    4    4  501    0 -0.69289180634E+02  0.20286772461E+02 -0.95991364444E+01  0.72953132286E+02  0.41800000000E+01 0.  1.
         -5    1    4    4    0  501  0.44828910251E+02  0.36195736387E+01  0.39790921193E+02  0.60195700154E+02  0.41800000000E+01 0.  1.
</event>
<event>
11    1  0.8039394E-009  0.2174941E+03  0.7561462E-02  0.1042799E+00
         22   -1    0    0    0    0  0.00000000000E+00  0.00000000000E+00  0.26621752739E+04  0.26621752739E+04  0.00000000000E+00 0. -1.
         22   -1    0    0    0    0 -0.00000000000E+00 -0.00000000000E+00 -0.15400726755E+04  0.15400726755E+04  0.00000000000E+00 0. -1.
        -24    2    1    2    0    0 -0.16741594855E+02  0.50835991199E+01 -0.14958986759E+04  0.14983092774E+04  0.83136742972E+02 0.  0.
         25    2    1    2    0    0 -0.12269136482E+03  0.10787179658E+03  0.23295865091E+03  0.31081612952E+03  0.12508971914E+03 0.  0.
         24    2    1    2    0    0  0.13943295968E+03 -0.11295539570E+03  0.23850426234E+04  0.23931225425E+04  0.80041968281E+02 0.  0.
        -11    1    5    5    0    0  0.54517746529E+01 -0.46623031321E+02  0.59181949010E+03  0.59367814324E+03  0.00000000000E+00 0.  1.
         12    1    5    5    0    0  0.13398118502E+03 -0.66332364381E+02  0.17932231333E+04  0.17994443993E+04  0.00000000000E+00 0. -1.
         13    1    3    3    0    0 -0.10679120954E+01 -0.37705137904E+02 -0.82732011805E+03  0.82817956723E+03  0.00000000000E+00 0. -1.
        -14    1    3    3    0    0 -0.15673682759E+02  0.42788737024E+02 -0.66857855787E+03  0.67012971013E+03  0.00000000000E+00 0.  1.
          5    1    4    4  501    0  0.30500529842E+00  0.65439249514E+02  0.12714522551E+03  0.14305862146E+03  0.41800000000E+01 0.  1.
         -5    1    4    4    0  501 -0.12299637012E+03  0.42432547068E+02  0.10581342540E+03  0.16775750806E+03  0.41800000000E+01 0.  1.
</event>
<event>
11    1  0.8039394E-009  0.1424365E+03  0.7561462E-02  0.1104868E+00
         22   -1    0    0    0    0  0.00000000000E+00  0.00000000000E+00  0.10246988423E+04  0.10246988423E+04  0.00000000000E+00 0.  1.
         22   -1    0    0    0    0 -0.00000000000E+00 -0.00000000000E+00 -0.26633747936E+03  0.26633747936E+03  0.00000000000E+00 0.  1.
        -24    2    1    2    0    0  0.19959669987E+01  0.65842796362E+02 -0.21466668438E+03  0.23872363190E+03  0.81042762331E+02 0.  0.
         25    2    1    2    0    0 -0.18710983642E+02 -0.10035429908E+03  0.13765736276E+03  0.21217150220E+03  0.12508441379E+03 0.  0.
         24    2    1    2    0    0  0.16715016643E+02  0.34511502716E+02  0.83537068459E+03  0.84014118759E+03  0.80762607722E+02 0.  0.
        -11    1    5    5    0    0  0.39780171824E+02  0.41399913116E+02  0.72002485843E+03  0.72231032918E+03  0.00000000000E+00 0.  1.
         12    1    5    5    0    0 -0.23065155182E+02 -0.68884103994E+01  0.11534582616E+03  0.11783085841E+03  0.00000000000E+00 0. -1.
         11    1    3    3    0    0 -0.61053618091E+01  0.33754324638E+02 -0.16959505596E+02  0.38265581201E+02  0.00000000000E+00 0. -1.
        -12    1    3    3    0    0  0.81013288078E+01  0.32088471724E+02 -0.19770717879E+03  0.20045805070E+03  0.00000000000E+00 0.  1.
          5    1    4    4  501    0  0.28000948949E+02 -0.63948222106E+02  0.13582544562E+03  0.15277255097E+03  0.41800000000E+01 0.  1.
         -5    1    4    4    0  501 -0.46711932590E+02 -0.36406076972E+02  0.18319171401E+01  0.59398951230E+02  0.41800000000E+01 0.  1.
</event>
<event>
11    1  0.8039394E-009  0.1519358E+03  0.7561462E-02  0.1094917E+00
         22   -1    0    0    0    0  0.00000000000E+00  0.00000000000E+00  0.12151477889E+04  0.12151477889E+04  0.00000000000E+00 0. -1.
         22   -1    0    0    0    0 -0.00000000000E+00 -0.00000000000E+00 -0.15237331167E+03  0.15237331167E+03  0.00000000000E+00 0.  1.
        -24    2    1    2    0    0 -0.47222746920E+00 -0.11554495095E+02 -0.72223116460E+02  0.10961169420E+03  0.81638321874E+02 0.  0.
         25    2    1    2    0    0 -0.84434193086E+02  0.26210975075E+02  0.42493917056E+02  0.15896079818E+03  0.12508658679E+03 0.  0.
         24    2    1    2    0    0  0.84906420555E+02 -0.14656479980E+02  0.10925036766E+04  0.10989486082E+04  0.81852595261E+02 0.  0.
        -13    1    5    5    0    0  0.35383572239E+02 -0.41595589844E+02  0.34220345069E+03  0.34653339225E+03  0.00000000000E+00 0.  1.
         14    1    5    5    0    0  0.49522848316E+02  0.26939109864E+02  0.75030022591E+03  0.75241521592E+03  0.00000000000E+00 0. -1.
         11    1    3    3    0    0  0.13686372414E+02 -0.11210105665E+02  0.13795880372E+02  0.22434562045E+02  0.00000000000E+00 0. -1.
        -12    1    3    3    0    0 -0.14158599883E+02 -0.34438942965E+00 -0.86018996832E+02  0.87177132155E+02  0.00000000000E+00 0.  1.
          5    1    4    4  501    0 -0.58327156036E+02  0.68802648464E+02  0.56989731627E+02  0.10677623087E+03  0.41800000000E+01 0.  1.
         -5    1    4    4    0  501 -0.26107037049E+02 -0.42591673389E+02 -0.14495814570E+02  0.52184567313E+02  0.41800000000E+01 0.  1.
</event>
<event>
11    1  0.8039394E-009  0.5752869E+03  0.7561462E-02  0.9239430E-01
         22   -1    0    0    0    0  0.00000000000E+00  0.00000000000E+00  0.92521923759E+03  0.92521923759E+03  0.00000000000E+00 0.  1.
         22   -1    0    0    0    0 -0.00000000000E+00 -0.00000000000E+00 -0.61167485726E+03  0.61167485726E+03  0.00000000000E+00 0.  1.
         24    2    1    2    0    0  0.44082591121E+03  0.27989810611E+03 -0.13879679985E+03  0.54631852588E+03  0.80801895242E+02 0.  0.
         25    2    1    2    0    0 -0.59342213810E+03 -0.27525908114E+03  0.22033588945E+03  0.70150760225E+03  0.12509043171E+03 0.  0.
        -24    2    1    2    0    0  0.15259622689E+03 -0.46390249689E+01  0.23200529073E+03  0.28906796672E+03  0.80166735281E+02 0.  0.
        -13    1    3    3    0    0  0.21373457802E+02  0.27199044713E+02 -0.27369670638E+02  0.44110221066E+02  0.00000000000E+00 0.  1.
         14    1    3    3    0    0  0.41945245340E+03  0.25269906140E+03 -0.11142712921E+03  0.50220830481E+03  0.00000000000E+00 0. -1.
         13    1    5    5    0    0  0.42252971605E+02  0.32891442719E+02  0.52111625683E+02  0.74718017539E+02  0.00000000000E+00 0. -1.
        -14    1    5    5    0    0  0.11034325528E+03 -0.37530467688E+02  0.17989366504E+03  0.21434994918E+03  0.00000000000E+00 0.  1.
          5    1    4    4  501    0 -0.16480426083E+03 -0.30921211317E+02  0.19698656181E+02  0.16888479846E+03  0.41800000000E+01 0. -1.
         -5    1    4    4    0  501 -0.42861787727E+03 -0.24433786982E+03  0.20063723327E+03  0.53262280379E+03  0.41800000000E+01 0. -1.
</event>
<event>
11    1  0.8039394E-009  0.1491918E+03  0.7561462E-02  0.1097707E+00
         22   -1    0    0    0    0  0.00000000000E+00  0.00000000000E+00  0.12554927963E+03  0.12554927963E+03  0.00000000000E+00 0.  1.
         22   -1    0    0    0    0 -0.00000000000E+00 -0.00000000000E+00 -0.23630524560E+04  0.23630524560E+04  0.00000000000E+00 0. -1.
         24    2    1    2    0    0 -0.11313053912E+03 -0.12443971307E+02 -0.11493005658E+04  0.11576668262E+04  0.79670060246E+02 0.  0.
         25    2    1    2    0    0  0.21032299649E+02  0.75221595647E+02 -0.11640102995E+04  0.11733145232E+04  0.12508535816E+03 0.  0.
        -24    2    1    2    0    0  0.92098239476E+02 -0.62777624340E+02  0.75807689055E+02  0.15762038620E+03  0.81696172458E+02 0.  0.
        -11    1    3    3    0    0 -0.65639175327E+02  0.31926238278E+02 -0.54033582849E+03  0.54524360939E+03  0.00000000000E+00 0.  1.
         12    1    3    3    0    0 -0.47491363797E+02 -0.44370209585E+02 -0.60896473735E+03  0.61242321680E+03  0.00000000000E+00 0. -1.
         11    1    5    5    0    0  0.47910726391E+02 -0.12347072104E+02 -0.81832075732E+01  0.50148307838E+02  0.00000000000E+00 0. -1.
        -12    1    5    5    0    0  0.44187513085E+02 -0.50430552236E+02  0.83990896628E+02  0.10747207836E+03  0.00000000000E+00 0.  1.
          5    1    4    4  501    0 -0.20185745008E+02  0.19838790159E+00 -0.76161687630E+03  0.76189582117E+03  0.41800000000E+01 0.  1.
         -5    1    4    4    0  501  0.41218044657E+02  0.75023207745E+02 -0.40239342325E+03  0.41141870203E+03  0.41800000000E+01 0.  1.
</event>
<event>
11    1  0.8039394E-009  0.2364743E+03  0.7561462E-02  0.1031362E+00
         22   -1    0    0    0    0  0.00000000000E+00  0.00000000000E+00  0.12821242145E+03  0.12821242145E+03  0.00000000000E+00 0.  1.
         22   -1    0    0    0    0 -0.00000000000E+00 -0.00000000000E+00 -0.74537781000E+03  0.74537781000E+03  0.00000000000E+00 0. -1.
        -24    2    1    2    0    0  0.86268303305E+02 -0.54051024282E+02 -0.17395498529E+03  0.21722384997E+03  0.81006979373E+02 0.  0.
         25    2    1    2    0    0 -0.58812713246E+01 -0.15706063209E+03 -0.34533747037E+03  0.39951053199E+03  0.12509222687E+03 0.  0.
         24    2    1    2    0    0 -0.80387031981E+02  0.21111165637E+03 -0.97872932889E+02  0.25685584950E+03  0.73250324652E+02 0.  0.
        -11    1    5    5    0    0 -0.50468518305E+02  0.11338038229E+03 -0.14487795097E+02  0.12494830385E+03  0.00000000000E+00 0.  1.
         12    1    5    5    0    0 -0.29918513676E+02  0.97731274087E+02 -0.83385137792E+02  0.13190754565E+03  0.00000000000E+00 0. -1.
         13    1    3    3    0    0  0.95926509676E+02 -0.24833719854E+02 -0.13815849585E+03  0.17001876037E+03  0.00000000000E+00 0. -1.
        -14    1    3    3    0    0 -0.96582063704E+01 -0.29217304428E+02 -0.35796489439E+02  0.47205089604E+02  0.00000000000E+00 0.  1.
          5    1    4    4  501    0 -0.23087770646E+02 -0.17113645499E+03 -0.26726780136E+03  0.31822991912E+03  0.41800000000E+01 0. -1.
         -5    1    4    4    0  501  0.17206499321E+02  0.14075822897E+02 -0.78069669012E+02  0.81280612871E+02  0.41800000000E+01 0. -1.
</event>
<event>
11    1  0.8039394E-009  0.1260607E+03  0.7561462E-02  0.1124206E+00
         22   -1    0    0    0    0  0.00000000000E+00  0.00000000000E+00  0.72739093242E+02  0.72739093242E+02  0.00000000000E+00 0. -1.
         22   -1    0    0    0    0 -0.00000000000E+00 -0.00000000000E+00 -0.17551749104E+04  0.17551749104E+04  0.00000000000E+00 0. -1.
         24    2    1    2    0    0 -0.14339824654E+02  0.49921683393E+01 -0.13796828499E+04  0.13820727563E+04  0.79810932484E+02 0.  0.
         25    2    1    2    0    0  0.18985205926E+02 -0.15735261214E+01 -0.33553661952E+03  0.35860687936E+03  0.12510458366E+03 0.  0.
        -24    2    1    2    0    0 -0.46453812722E+01 -0.34186422179E+01  0.32783652231E+02  0.87234368071E+02  0.80633742548E+02 0.  0.
        -11    1    3    3    0    0  0.69593134649E+01  0.27708808442E+02 -0.20542968590E+03  0.20740676449E+03  0.00000000000E+00 0.  1.
         12    1    3    3    0    0 -0.21299138119E+02 -0.22716640103E+02 -0.11742531640E+04  0.11746659918E+04  0.00000000000E+00 0. -1.
         13    1    5    5    0    0  0.31363605322E+02  0.94479468418E+01  0.36228299766E+02  0.48840855257E+02  0.00000000000E+00 0. -1.
        -14    1    5    5    0    0 -0.36008986594E+02 -0.12866589060E+02 -0.34446475343E+01  0.38393512814E+02  0.00000000000E+00 0.  1.
          5    1    4    4  501    0  0.43868099201E+02 -0.17828441043E+02 -0.32232854034E+03  0.32581501463E+03  0.41800000000E+01 0.  1.
         -5    1    4    4    0  501 -0.24882893275E+02  0.16254914921E+02 -0.13208079184E+02  0.32791864731E+02  0.41800000000E+01 0.  1.
</event>
<event>
11    1  0.8039394E-009  0.1390517E+03  0.7561462E-02  0.1108622E+00
         22   -1    0    0    0    0  0.00000000000E+00  0.00000000000E+00  0.12738591172E+03  0.12738591172E+03  0.00000000000E+00 0. -1.
         22   -1    0    0    0    0 -0.00000000000E+00 -0.00000000000E+00 -0.38003147306E+04  0.38003147306E+04  0.00000000000E+00 0.  1.
        -24    2    1    2    0    0  0.58832896416E+02 -0.18662461925E+02 -0.32694706320E+04  0.32710104034E+04  0.79128051022E+02 0.  0.
         25    2    1    2    0    0 -0.37149738244E+02  0.42266460695E+02 -0.50505468689E+03  0.52335078335E+03  0.12509695813E+03 0.  0.
         24    2    1    2    0    0 -0.21683158172E+02 -0.23603998771E+02  0.10159650001E+03  0.13333945556E+03  0.80188861366E+02 0.  0.
        -11    1    5    5    0    0 -0.54909499983E+01 -0.36895713811E+01 -0.13703753328E+02  0.15216974868E+02  0.00000000000E+00 0.  1.
         12    1    5    5    0    0 -0.16192208173E+02 -0.19914427390E+02  0.11530025334E+03  0.11812248069E+03  0.00000000000E+00 0. -1.
         13    1    3    3    0    0 -0.32720696644E+01 -0.13225838331E+02 -0.99685843222E+02  0.10061260646E+03  0.00000000000E+00 0. -1.
        -14    1    3    3    0    0  0.62104966080E+02 -0.54366235936E+01 -0.31697847888E+04  0.31703977970E+04  0.00000000000E+00 0.  1.
          5    1    4    4  501    0 -0.18832486430E+02 -0.41807324863E+02 -0.24819225593E+03  0.25242698600E+03  0.41800000000E+01 0.  1.
         -5    1    4    4    0  501 -0.18317251814E+02  0.84073785558E+02 -0.25686243096E+03  0.27092379735E+03  0.41800000000E+01 0.  1.
</event>
<event>
11    1  0.8039394E-009  0.1755075E+03  0.7561462E-02  0.1073336E+00
         22   -1    0    0    0    0  0.00000000000E+00  0.00000000000E+00  0.28777275421E+04  0.28777275421E+04  0.00000000000E+00 0. -1.
         22   -1    0    0    0    0 -0.00000000000E+00 -0.00000000000E+00 -0.13783006505E+03  0.13783006505E+03  0.00000000000E+00 0. -1.
         24    2    1    2    0    0 -0.10507259807E+03 -0.63020653840E+02 -0.89353789076E+02  0.17153052692E+03  0.80167127728E+02 0.  0.
         25    2    1    2    0    0  0.11812622526E+03  0.10038249254E+03  0.20836540663E+04  0.20931534529E+04  0.12508660902E+03 0.  0.
        -24    2    1    2    0    0 -0.13053627194E+02 -0.37361838704E+02  0.74559719983E+03  0.75087362727E+03  0.79559509590E+02 0.  0.
        -11    1    3    3    0    0 -0.32384548807E+02  0.13194332229E+02 -0.25730852667E+01  0.35063801451E+02  0.00000000000E+00 0.  1.
         12    1    3    3    0    0 -0.72688049263E+02 -0.76214986068E+02 -0.86780703810E+02  0.13646672547E+03  0.00000000000E+00 0. -1.
         13    1    5    5    0    0 -0.35632077561E+02 -0.39980335939E+02  0.66440348837E+03  0.66655837522E+03  0.00000000000E+00 0. -1.
        -14    1    5    5    0    0  0.22578450367E+02  0.26184972351E+01  0.81193711460E+02  0.84315252057E+02  0.00000000000E+00 0.  1.
          5    1    4    4  501    0 -0.14477624927E+02  0.53123019776E+02  0.43404504562E+03  0.43754340457E+03  0.41800000000E+01 0.  1.
         -5    1    4    4    0  501  0.13260385019E+03  0.47259472768E+02  0.16496090206E+04  0.16556100483E+04  0.41800000000E+01 0.  1.
</event>
<event>
11    1  0.8039394E-009  0.3372580E+03  0.7561462E-02  0.9855496E-01
         22   -1    0    0    0    0  0.00000000000E+00  0.00000000000E+00  0.25891141154E+03  0.25891141154E+03  0.00000000000E+00 0. -1.
         22   -1    0    0    0    0 -0.00000000000E+00 -0.00000000000E+00 -0.29321570449E+04  0.29321570449E+04  0.00000000000E+00 0. -1.
         24    2    1    2    0    0 -0.29876035022E+03 -0.65400313520E+02 -0.18876109542E+04  0.19138351117E+04  0.78452357558E+02 0.  0.
         25    2    1    2    0    0  0.30879933463E+03  0.12836183816E+03 -0.98790324126E+03  0.10504450157E+04  0.12509247142E+03 0.  0.
        -24    2    1    2    0    0 -0.10038984414E+02 -0.62961524644E+02  0.20226856217E+03  0.22678832896E+03  0.80345753571E+02 0.  0.
        -13    1    3    3    0    0 -0.55552959557E+02 -0.13129184719E+02 -0.57764093311E+03  0.58045461012E+03  0.00000000000E+00 0.  1.
         14    1    3    3    0    0 -0.24320739066E+03 -0.52271128801E+02 -0.13099700211E+04  0.13333805016E+04  0.00000000000E+00 0. -1.
         11    1    5    5    0    0  0.64575862669E+01 -0.70002391696E+02  0.19526319548E+03  0.20753252943E+03  0.00000000000E+00 0. -1.
        -12    1    5    5    0    0 -0.16496570680E+02  0.70408670522E+01  0.70053666927E+01  0.19255799531E+02  0.00000000000E+00 0.  1.
          5    1    4    4  501    0 -0.60688151852E+01 -0.59152209801E+01 -0.72728748392E+02  0.73340054538E+02  0.41800000000E+01 0.  1.
         -5    1    4    4    0  501  0.31486814982E+03  0.13427705914E+03 -0.91517449287E+03  0.97710496119E+03  0.41800000000E+01 0.  1.
</event>
<event>
11    1  0.8039394E-009  0.1468207E+03  0.7561462E-02  0.1100172E+00
         22   -1    0    0    0    0  0.00000000000E+00  0.00000000000E+00  0.27835060630E+03  0.27835060630E+03  0.00000000000E+00 0. -1.
         22   -1    0    0    0    0 -0.00000000000E+00 -0.00000000000E+00 -0.28008175696E+03  0.28008175696E+03  0.00000000000E+00 0.  1.
        -24    2    1    2    0    0  0.74233113365E+02  0.13921848868E+02 -0.15087990745E+03  0.18696685440E+03  0.80544926446E+02 0.  0.
         25    2    1    2    0    0 -0.84787115812E+02  0.25877366010E+02 -0.43157712840E+02  0.15927633455E+03  0.12509144451E+03 0.  0.
         24    2    1    2    0    0  0.10554002447E+02 -0.39799214879E+02  0.19230646964E+03  0.21218917432E+03  0.79668707544E+02 0.  0.
        -13    1    5    5    0    0  0.25968489745E+01 -0.53579004493E+02  0.66771718669E+02  0.85649960660E+02  0.00000000000E+00 0.  1.
         14    1    5    5    0    0  0.79571534723E+01  0.13779789614E+02  0.12553475097E+03  0.12653921366E+03  0.00000000000E+00 0. -1.
         13    1    3    3    0    0  0.59324233826E+02  0.31344913775E+02 -0.50435458063E+02  0.83938094860E+02  0.00000000000E+00 0. -1.
        -14    1    3    3    0    0  0.14908879539E+02 -0.17423064907E+02 -0.10044444938E+03  0.10302875954E+03  0.00000000000E+00 0.  1.
          5    1    4    4  501    0 -0.99293726312E+00  0.48322138386E+02  0.19394647300E+02  0.52245954164E+02  0.41800000000E+01 0.  1.
         -5    1    4    4    0  501 -0.83794178549E+02 -0.22444772376E+02 -0.62552360140E+02  0.10703038038E+03  0.41800000000E+01 0.  1.
</event>
<event>
11    1  0.8039394E-009  0.1941225E+03  0.7561462E-02  0.1058760E+00
         22   -1    0    0    0    0  0.00000000000E+00  0.00000000000E+00  0.51510705599E+03  0.51510705599E+03  0.00000000000E+00 0. -1.
         22   -1    0    0    0    0 -0.00000000000E+00 -0.00000000000E+00 -0.14222342359E+03  0.14222342359E+03  0.00000000000E+00 0. -1.
        -24    2    1    2    0    0  0.22419897296E+02  0.17615657935E+02 -0.41228951071E+02  0.95140098322E+02  0.80863147992E+02 0.  0.
         25    2    1    2    0    0 -0.15190795607E+02  0.13648349302E+03  0.12130838865E+03  0.22185976638E+03  0.12509007412E+03 0.  0.
         24    2    1    2    0    0 -0.72291016889E+01 -0.15409915095E+03  0.29280419482E+03  0.34033061488E+03  0.79321010345E+02 0.  0.
        -11    1    5    5    0    0  0.33615220004E+02 -0.95173077735E+02  0.18738554787E+03  0.21284088257E+03  0.00000000000E+00 0.  1.
         12    1    5    5    0    0 -0.40844321693E+02 -0.58926073218E+02  0.10541864695E+03  0.12748973231E+03  0.00000000000E+00 0. -1.
         13    1    3    3    0    0  0.48628907871E+02 -0.43116703617E+01 -0.35800831838E+02  0.60539745146E+02  0.00000000000E+00 0. -1.
        -14    1    3    3    0    0 -0.26209010575E+02  0.21927328297E+02 -0.54281192327E+01  0.34600353177E+02  0.00000000000E+00 0.  1.
          5    1    4    4  501    0  0.46058218289E+02  0.47776481319E+02  0.10691559242E+02  0.67347854295E+02  0.41800000000E+01 0. -1.
         -5    1    4    4    0  501 -0.61249013896E+02  0.88707011699E+02  0.11061682941E+03  0.15451191208E+03  0.41800000000E+01 0. -1.
</event>
<event>
11    1  0.8039394E-009  0.1425527E+03  0.7561462E-02  0.1104741E+00
         22   -1    0    0    0    0  0.00000000000E+00  0.00000000000E+00  0.28034396550E+03  0.28034396550E+03  0.00000000000E+00 0.  1.
         22   -1    0    0    0    0 -0.00000000000E+00 -0.00000000000E+00 -0.35414195507E+03  0.35414195507E+03  0.00000000000E+00 0. -1.
        -24    2    1    2    0    0 -0.22674974438E+01  0.26355028982E+02 -0.21563934517E+03  0.23073965695E+03  0.77722152603E+02 0.  0.
         25    2    1    2    0    0  0.53576363620E+02  0.21168403125E+02 -0.77889654277E+02  0.15821676724E+03  0.12508884508E+03 0.  0.
         24    2    1    2    0    0 -0.51308866176E+02 -0.47523432107E+02  0.21973100987E+03  0.24552949639E+03  0.84332322092E+02 0.  0.
        -13    1    5    5    0    0 -0.48626935491E+02 -0.70352193353E+02  0.18590147194E+03  0.20462982978E+03  0.00000000000E+00 0.  1.
         14    1    5    5    0    0 -0.26819306852E+01  0.22828761246E+02  0.33829537934E+02  0.40899666613E+02  0.00000000000E+00 0. -1.
         11    1    3    3    0    0  0.22810781728E+02  0.23261399499E+02 -0.19612659608E+03  0.19881414980E+03  0.00000000000E+00 0. -1.
        -12    1    3    3    0    0 -0.25078279171E+02  0.30936294824E+01 -0.19512749084E+02  0.31925507144E+02  0.00000000000E+00 0.  1.
          5    1    4    4  501    0 -0.31108592049E+02 -0.92182799707E+01  0.80888705760E+01  0.33699012034E+02  0.41800000000E+01 0.  1.
         -5    1    4    4    0  501  0.84684955669E+02  0.30386683096E+02 -0.85978524853E+02  0.12451775521E+03  0.41800000000E+01 0.  1.
</event>
<event>
11    1  0.8039394E-009  0.1596491E+03  0.7561462E-02  0.1087408E+00
         22   -1    0    0    0    0  0.00000000000E+00  0.00000000000E+00  0.13438527266E+03  0.13438527266E+03  0.00000000000E+00 0.  1.
         22   -1    0    0    0    0 -0.00000000000E+00 -0.00000000000E+00 -0.85513288364E+03  0.85513288364E+03  0.00000000000E+00 0.  1.
        -24    2    1    2    0    0 -0.35405563595E+02  0.10637394193E+03 -0.61489403444E+03  0.63065892082E+03  0.84065637238E+02 0.  0.
         25    2    1    2    0    0  0.60970843192E+02 -0.38864875640E+02 -0.18634302031E+03  0.23579687323E+03  0.12509405234E+03 0.  0.
         24    2    1    2    0    0 -0.25565279598E+02 -0.67509066294E+02  0.80489443766E+02  0.12306236226E+03  0.58777009911E+02 0.  0.
        -13    1    5    5    0    0 -0.20300490845E+02 -0.16630486217E+02  0.64239286780E+02  0.69392859621E+02  0.00000000000E+00 0.  1.
         14    1    5    5    0    0 -0.52647887523E+01 -0.50878580077E+02  0.16250156986E+02  0.53669502637E+02  0.00000000000E+00 0. -1.
         11    1    3    3    0    0 -0.26027158090E+02  0.67122612499E+02 -0.17950339948E+03  0.19340198678E+03  0.00000000000E+00 0. -1.
        -12    1    3    3    0    0 -0.93784055048E+01  0.39251329436E+02 -0.43539063496E+03  0.43725693404E+03  0.00000000000E+00 0.  1.
          5    1    4    4  501    0  0.27014036630E+01 -0.64944134196E+02 -0.14676246027E+03  0.16056690286E+03  0.41800000000E+01 0. -1.
         -5    1    4    4    0  501  0.58269439530E+02  0.26079258556E+02 -0.39580560035E+02  0.75229970375E+02  0.41800000000E+01 0. -1.
</event>
<event>
11    1  0.8039394E-009  0.1635488E+03  0.7561462E-02  0.1083786E+00
         22   -1    0    0    0    0  0.00000000000E+00  0.00000000000E+00  0.64769112493E+03  0.64769112493E+03  0.00000000000E+00 0. -1.
         22   -1    0    0    0    0 -0.00000000000E+00 -0.00000000000E+00 -0.59079042046E+03  0.59079042046E+03  0.00000000000E+00 0. -1.
        -24    2    1    2    0    0  0.16620638246E+01 -0.89212173571E+00 -0.52423620048E+03  0.53057872706E+03  0.81771837301E+02 0.  0.
         25    2    1    2    0    0 -0.95144874276E+02 -0.47396425660E+02  0.67546170174E+02  0.17750774270E+03  0.12509014888E+03 0.  0.
         24    2    1    2    0    0  0.93482810452E+02  0.48288547396E+02  0.51359073478E+03  0.53039507562E+03  0.80452928685E+02 0.  0.
        -11    1    5    5    0    0  0.39446269042E+01  0.32117649757E+02  0.64292214061E+02  0.71976331500E+02  0.00000000000E+00 0.  1.
         12    1    5    5    0    0  0.89538183547E+02  0.16170897640E+02  0.44929852072E+03  0.45841874412E+03  0.00000000000E+00 0. -1.
         13    1    3    3    0    0  0.77250711913E+00  0.28327234712E+02 -0.44853493884E+03  0.44942921617E+03  0.00000000000E+00 0. -1.
        -14    1    3    3    0    0  0.88955670544E+00 -0.29219356448E+02 -0.75701261648E+02  0.81149510889E+02  0.00000000000E+00 0.  1.
          5    1    4    4  501    0 -0.12387744160E+03 -0.28689321274E+02  0.65017520330E+02  0.14287563838E+03  0.41800000000E+01 0.  1.
         -5    1    4    4    0  501  0.28732567326E+02 -0.18707104387E+02  0.25286498444E+01  0.34632104321E+02  0.41800000000E+01 0.  1.
</event>
<event>
11    1  0.8039394E-009  0.1415552E+03  0.7561462E-02  0.1105834E+00
         22   -1    0    0    0    0  0.00000000000E+00  0.00000000000E+00  0.91746262380E+03  0.91746262380E+03  0.00000000000E+00 0. -1.
         22   -1    0    0    0    0 -0.00000000000E+00 -0.00000000000E+00 -0.45053339783E+03  0.45053339783E+03  0.00000000000E+00 0.  1.
        -24    2    1    2    0    0  0.14057825930E+02 -0.38555856616E+02 -0.37694594921E+03  0.38720231925E+03  0.78442404750E+02 0.  0.
         25    2    1    2    0    0  0.50848037254E+02  0.52979572374E+02  0.15447321874E+02  0.14586998507E+03  0.12508826807E+03 0.  0.
         24    2    1    2    0    0 -0.64905863184E+02 -0.14423715758E+02  0.82842785330E+03  0.83492371731E+03  0.79900506532E+02 0.  0.
        -13    1    5    5    0    0  0.74766642519E+01  0.21536931324E+02  0.21110711742E+03  0.21233453545E+03  0.00000000000E+00 0.  1.
         14    1    5    5    0    0 -0.72382527436E+02 -0.35960647083E+02  0.61732073589E+03  0.62258918186E+03  0.00000000000E+00 0. -1.
         13    1    3    3    0    0  0.18374987816E+02 -0.16535146282E+02 -0.27266961982E+02  0.36804054879E+02  0.00000000000E+00 0. -1.
        -14    1    3    3    0    0 -0.43171618866E+01 -0.22020710333E+02 -0.34967898722E+03  0.35039826437E+03  0.00000000000E+00 0.  1.
          5    1    4    4  501    0  0.81112005000E+02  0.44411284480E+02  0.44625180697E+02  0.10276380052E+03  0.41800000000E+01 0. -1.
         -5    1    4    4    0  501 -0.30263967746E+02  0.85682878943E+01 -0.29177858823E+02  0.43106184553E+02  0.41800000000E+01 0. -1.
</event>
<event>
11    1  0.8039394E-009  0.1714880E+03  0.7561462E-02  0.1076744E+00
         22   -1    0    0    0    0  0.00000000000E+00  0.00000000000E+00  0.10951517127E+04  0.10951517127E+04  0.00000000000E+00 0. -1.
         22   -1    0    0    0    0 -0.00000000000E+00 -0.00000000000E+00 -0.12296586662E+03  0.12296586662E+03  0.00000000000E+00 0.  1.
         24    2    1    2    0    0  0.44865469398E+02 -0.52372414713E+02 -0.52282052276E+02  0.12087789167E+03  0.84393551518E+02 0.  0.
         25    2    1    2    0    0  0.34676486929E+02 -0.49828533498E+02  0.13147120821E+03  0.19135535487E+03  0.12508737648E+03 0.  0.
        -24    2    1    2    0    0 -0.79541956327E+02  0.10220094821E+03  0.89299669020E+03  0.90588433282E+03  0.80071087877E+02 0.  0.
        -11    1    3    3    0    0  0.41508860180E+02 -0.31664841627E+02 -0.74078012744E+02  0.90626704899E+02  0.00000000000E+00 0.  1.
         12    1    3    3    0    0  0.33566092180E+01 -0.20707573086E+02  0.21795960467E+02  0.30251186774E+02  0.00000000000E+00 0. -1.
         11    1    5    5    0    0 -0.77371738677E+02  0.94979943412E+02  0.88890246364E+03  0.89730438841E+03  0.00000000000E+00 0. -1.
        -12    1    5    5    0    0 -0.21702176499E+01  0.72210047992E+01  0.40942265574E+01  0.85799444090E+01  0.00000000000E+00 0.  1.
          5    1    4    4  501    0  0.31272609283E+02 -0.22230028358E+02 -0.15593287216E+02  0.41626593163E+02  0.41800000000E+01 0. -1.
         -5    1    4    4    0  501  0.34038776459E+01 -0.27598505140E+02  0.14706449542E+03  0.14972876171E+03  0.41800000000E+01 0. -1.
</event>
<event>
11    1  0.8039394E-009  0.1628389E+03  0.7561462E-02  0.1084437E+00
         22   -1    0    0    0    0  0.00000000000E+00  0.00000000000E+00  0.27782697487E+03  0.27782697487E+03  0.00000000000E+00 0. -1.
         22   -1    0    0    0    0 -0.00000000000E+00 -0.00000000000E+00 -0.23199562397E+04  0.23199562397E+04  0.00000000000E+00 0. -1.
         24    2    1    2    0    0 -0.66941424439E+00  0.16322715799E+02 -0.22117940395E+04  0.22134152705E+04  0.83110815203E+02 0.  0.
         25    2    1    2    0    0  0.44816916526E+02 -0.10704172949E+03  0.41083006506E+01  0.17067603297E+03  0.12508773817E+03 0.  0.
        -24    2    1    2    0    0 -0.44147502281E+02  0.90719013686E+02  0.16555647401E+03  0.21369191105E+03  0.89868489262E+02 0.  0.
        -13    1    3    3    0    0  0.32291865970E+02  0.22705267511E+02 -0.61352277880E+03  0.61479142308E+03  0.00000000000E+00 0.  1.
         14    1    3    3    0    0 -0.32961280214E+02 -0.63825517113E+01 -0.15982712607E+04  0.15986238474E+04  0.00000000000E+00 0. -1.
         11    1    5    5    0    0 -0.16456773714E+02  0.29575451995E+02  0.13635591287E+03  0.14049365728E+03  0.00000000000E+00 0. -1.
        -12    1    5    5    0    0 -0.27690728567E+02  0.61143561691E+02  0.29200561140E+02  0.73198253775E+02  0.00000000000E+00 0.  1.
          5    1    4    4  501    0 -0.43721867425E+02 -0.34383813974E+02 -0.28649800385E+01  0.55852742682E+02  0.41800000000E+01 0.  1.
         -5    1    4    4    0  501  0.88538783950E+02 -0.72657915511E+02  0.69732806891E+01  0.11482329029E+03  0.41800000000E+01 0.  1.
</event>
<event>
11    1  0.8039394E-009  0.1471451E+03  0.7561462E-02  0.1099832E+00
         22   -1    0    0    0    0  0.00000000000E+00  0.00000000000E+00  0.31915696877E+03  0.31915696877E+03  0.00000000000E+00 0. -1.
         22   -1    0    0    0    0 -0.00000000000E+00 -0.00000000000E+00 -0.99642239970E+03  0.99642239970E+03  0.00000000000E+00 0. -1.
         24    2    1    2    0    0 -0.42026816581E+02 -0.55372516638E+02 -0.83845434450E+03  0.84518141808E+03  0.80582707449E+02 0.  0.
         25    2    1    2    0    0 -0.37012654938E+02  0.66877164966E+02 -0.10541245996E+03  0.18056173743E+03  0.12509301534E+03 0.  0.
        -24    2    1    2    0    0  0.79039471519E+02 -0.11504648327E+02  0.26660137353E+03  0.28983621297E+03  0.80926775464E+02 0.  0.
        -13    1    3    3    0    0 -0.55901118426E+02 -0.59323607383E+02 -0.51546632710E+03  0.52187140160E+03  0.00000000000E+00 0.  1.
         14    1    3    3    0    0  0.13874301845E+02  0.39510907447E+01 -0.32298801740E+03  0.32331001648E+03  0.00000000000E+00 0. -1.
         13    1    5    5    0    0  0.91488550131E+02 -0.61484633129E+01  0.17825582849E+03  0.20045722435E+03  0.00000000000E+00 0. -1.
        -14    1    5    5    0    0 -0.12449078612E+02 -0.53561850144E+01  0.88345545045E+02  0.89378988613E+02  0.00000000000E+00 0.  1.
          5    1    4    4  501    0 -0.14162416746E+02  0.48702182746E+02 -0.13161350668E+03  0.14111011372E+03  0.41800000000E+01 0. -1.
         -5    1    4    4    0  501 -0.22850238192E+02  0.18174982219E+02  0.26201046718E+02  0.39451623709E+02  0.41800000000E+01 0. -1.
</event>
<event>
11    1  0.8039394E-009  0.1427827E+03  0.7561462E-02  0.1104490E+00
         22   -1    0    0    0    0  0.00000000000E+00  0.00000000000E+00  0.89121860044E+03  0.89121860044E+03  0.00000000000E+00 0. -1.
         22   -1    0    0    0    0 -0.00000000000E+00 -0.00000000000E+00 -0.22946553998E+04  0.22946553998E+04  0.00000000000E+00 0.  1.
        -24    2    1    2    0    0 -0.71959862253E+02 -0.34161421564E+01 -0.18483087006E+04  0.18514335299E+04  0.79819617614E+02 0.  0.
         25    2    1    2    0    0  0.47430560939E+02  0.11759661768E+02 -0.43262677109E+03  0.45299121822E+03  0.12508866042E+03 0.  0.
         24    2    1    2    0    0  0.24529301314E+02 -0.83435196111E+01  0.87749867234E+03  0.88144925205E+03  0.79231073666E+02 0.  0.
        -13    1    5    5    0    0  0.20416929857E+02 -0.24021191873E+02  0.12975291686E+03  0.13352785522E+03  0.00000000000E+00 0.  1.
         14    1    5    5    0    0  0.41123714563E+01  0.15677672262E+02  0.74774575548E+03  0.74792139683E+03  0.00000000000E+00 0. -1.
         11    1    3    3    0    0 -0.26648705103E+01  0.12441102136E+02 -0.46104027453E+02  0.47827438825E+02  0.00000000000E+00 0. -1.
        -12    1    3    3    0    0 -0.69294991742E+02 -0.15857244293E+02 -0.18022046731E+04  0.18036060911E+04  0.00000000000E+00 0.  1.
          5    1    4    4  501    0  0.69839024139E+02 -0.33448822174E+01 -0.11832817973E+03  0.13750530189E+03  0.41800000000E+01 0.  1.
         -5    1    4    4    0  501 -0.22408463200E+02  0.15104543985E+02 -0.31429859136E+03  0.31548591633E+03  0.41800000000E+01 0.  1.
</event>
<event>
11    1  0.8039394E-009  0.1285622E+03  0.7561462E-02  0.1121048E+00
         22   -1    0    0    0    0  0.00000000000E+00  0.00000000000E+00  0.68358278174E+03  0.68358278174E+03  0.00000000000E+00 0.  1.
         22   -1    0    0    0    0 -0.00000000000E+00 -0.00000000000E+00 -0.68038791298E+03  0.68038791298E+03  0.00000000000E+00 0. -1.
        -24    2    1    2    0    0  0.21225069779E+01 -0.22185876798E+02 -0.59550448167E+03  0.60132389406E+03  0.80424621355E+02 0.  0.
         25    2    1    2    0    0 -0.26642747276E+02  0.37911631592E+02 -0.22475186584E+02  0.13528112138E+03  0.12509484400E+03 0.  0.
         24    2    1    2    0    0  0.24520240298E+02 -0.15725754795E+02  0.62117453702E+03  0.62736567928E+03  0.82953894130E+02 0.  0.
        -13    1    5    5    0    0  0.40217881861E+02 -0.25101948310E+02  0.58416620688E+03  0.58608680508E+03  0.00000000000E+00 0.  1.
         14    1    5    5    0    0 -0.15697641563E+02  0.93761935155E+01  0.37008330135E+02  0.41278874195E+02  0.00000000000E+00 0. -1.
         13    1    3    3    0    0  0.35806670253E+02 -0.18473507048E+01 -0.41677105573E+03  0.41831046274E+03  0.00000000000E+00 0. -1.
        -14    1    3    3    0    0 -0.33684163275E+02 -0.20338526093E+02 -0.17873342593E+03  0.18301343132E+03  0.00000000000E+00 0.  1.
          5    1    4    4  501    0  0.29210752410E+02  0.57520448133E+02 -0.36587529779E+02  0.74283172691E+02  0.41800000000E+01 0.  1.
         -5    1    4    4    0  501 -0.55853499686E+02 -0.19608816541E+02  0.14112343194E+02  0.60997948684E+02  0.41800000000E+01 0.  1.
</event>
<event>
11    1  0.8039394E-009  0.2115383E+03  0.7561462E-02  0.1046651E+00
         22   -1    0    0    0    0  0.00000000000E+00  0.00000000000E+00  0.13916011411E+04  0.13916011411E+04  0.00000000000E+00 0. -1.
         22   -1    0    0    0    0 -0.00000000000E+00 -0.00000000000E+00 -0.31560721052E+03  0.31560721052E+03  0.00000000000E+00 0. -1.
         24    2    1    2    0    0  0.14265477437E+02 -0.16962942864E+03 -0.23144028984E+03  0.29856990441E+03  0.81251050174E+02 0.  0.
         25    2    1    2    0    0 -0.50946462988E+02  0.16903487986E+03  0.19190049363E+03  0.28920807155E+03  0.12508867454E+03 0.  0.
        -24    2    1    2    0    0  0.36680985551E+02  0.59454877454E+00  0.11155337268E+04  0.11194303757E+04  0.85808053985E+02 0.  0.
        -13    1    3    3    0    0  0.28274236786E+02 -0.18064762077E+02 -0.64166520029E+02  0.72409325279E+02  0.00000000000E+00 0.  1.
         14    1    3    3    0    0 -0.14008759349E+02 -0.15156466656E+03 -0.16727376981E+03  0.22616057913E+03  0.00000000000E+00 0. -1.
         11    1    5    5    0    0  0.23656710943E+01  0.27216438371E+01  0.96553894337E+03  0.96554567728E+03  0.00000000000E+00 0. -1.
        -12    1    5    5    0    0  0.34315314456E+02 -0.21270950625E+01  0.14999478344E+03  0.15388469839E+03  0.00000000000E+00 0.  1.
          5    1    4    4  501    0 -0.28564630960E+02  0.12382616740E+03  0.20094044860E+03  0.23778854926E+03  0.41800000000E+01 0.  1.
         -5    1    4    4    0  501 -0.22381832028E+02  0.45208712456E+02 -0.90399549731E+01  0.51419522292E+02  0.41800000000E+01 0.  1.
</event>
<event>
11    1  0.8039394E-009  0.1405128E+03  0.7561462E-02  0.1106987E+00
         22   -1    0    0    0    0  0.00000000000E+00  0.00000000000E+00  0.56290517138E+03  0.56290517138E+03  0.00000000000E+00 0.  1.
         22   -1    0    0    0    0 -0.00000000000E+00 -0.00000000000E+00 -0.15841123028E+04  0.15841123028E+04  0.00000000000E+00 0.  1.
         24    2    1    2    0    0  0.22187154802E+02  0.33832778720E+02 -0.14616021242E+04  0.14644090994E+04  0.81094477051E+02 0.  0.
         25    2    1    2    0    0 -0.64416800518E+02  0.14849431136E+02 -0.72928248302E+02  0.15917141316E+03  0.12508788740E+03 0.  0.
        -24    2    1    2    0    0  0.42229645716E+02 -0.48682209856E+02  0.51332324104E+03  0.52343696165E+03  0.79575137386E+02 0.  0.
        -11    1    3    3    0    0  0.47657315879E+01  0.34681029502E+02 -0.13985748418E+04  0.13990128928E+04  0.00000000000E+00 0.  1.
         12    1    3    3    0    0  0.17421423214E+02 -0.84825078192E+00 -0.63027282308E+02  0.65396206551E+02  0.00000000000E+00 0. -1.
         11    1    5    5    0    0  0.33074823406E+02 -0.63129244024E+02  0.26162904195E+03  0.27116231483E+03  0.00000000000E+00 0. -1.
        -12    1    5    5    0    0  0.91548223101E+01  0.14447034168E+02  0.25169419910E+03  0.25227464682E+03  0.00000000000E+00 0.  1.
          5    1    4    4  501    0 -0.63760802047E+02  0.29386973510E+02  0.13339343121E+02  0.71585225883E+02  0.41800000000E+01 0. -1.
         -5    1    4    4    0  501 -0.65599847048E+00 -0.14537542374E+02 -0.86267591423E+02  0.87586187280E+02  0.41800000000E+01 0. -1.
</event>
<event>
11    1  0.8039394E-009  0.1418236E+03  0.7561462E-02  0.1105539E+00
         22   -1    0    0    0    0  0.00000000000E+00  0.00000000000E+00  0.26064336277E+03  0.26064336277E+03  0.00000000000E+00 0.  1.
         22   -1    0    0    0    0 -0.00000000000E+00 -0.00000000000E+00 -0.12349784019E+04  0.12349784019E+04  0.00000000000E+00 0.  1.
         24    2    1    2    0    0  0.60175700157E+02 -0.16305228835E+02 -0.79547995822E+03  0.80207123712E+03  0.81504172390E+02 0.  0.
         25    2    1    2    0    0 -0.93387995123E+02 -0.25474553236E+02 -0.41134870527E+03  0.44071106365E+03  0.12509282075E+03 0.  0.
        -24    2    1    2    0    0  0.33212294967E+02  0.41779782071E+02  0.23249362431E+03  0.25283946394E+03  0.83820656489E+02 0.  0.
        -11    1    3    3    0    0 -0.14251022925E+02  0.49138652957E+01 -0.31823515026E+03  0.31859197822E+03  0.00000000000E+00 0.  1.
         12    1    3    3    0    0  0.74426723082E+02 -0.21219094131E+02 -0.47724480795E+03  0.48347925890E+03  0.00000000000E+00 0. -1.
         13    1    5    5    0    0  0.36300968629E+02 -0.17297047727E+02  0.93345857523E+02  0.10163856207E+03  0.00000000000E+00 0. -1.
        -14    1    5    5    0    0 -0.30886736623E+01  0.59076829798E+02  0.13914776679E+03  0.15120090187E+03  0.00000000000E+00 0.  1.
          5    1    4    4  501    0 -0.11389106038E+03 -0.80010829675E+01 -0.38909138667E+03  0.40551790409E+03  0.41800000000E+01 0. -1.
         -5    1    4    4    0  501  0.20503065260E+02 -0.17473470268E+02 -0.22257318601E+02  0.35193159556E+02  0.41800000000E+01 0. -1.
</event>
<event>
11    1  0.8039394E-009  0.1498077E+03  0.7561462E-02  0.1097075E+00
         22   -1    0    0    0    0  0.00000000000E+00  0.00000000000E+00  0.15769680931E+03  0.15769680931E+03  0.00000000000E+00 0.  1.
         22   -1    0    0    0    0 -0.00000000000E+00 -0.00000000000E+00 -0.39211168453E+03  0.39211168453E+03  0.00000000000E+00 0.  1.
        -24    2    1    2    0    0 -0.50684792625E+02  0.67923316554E+02 -0.23046274979E+03  0.26358123559E+03  0.95809517158E+02 0.  0.
         25    2    1    2    0    0  0.47033519515E+02 -0.60505543723E+02 -0.86673955214E+02  0.17038293692E+03  0.12507956628E+03 0.  0.
         24    2    1    2    0    0  0.36512731102E+01 -0.74177728310E+01  0.82721829788E+02  0.11584432134E+03  0.80676207856E+02 0.  0.
        -11    1    5    5    0    0  0.23639229603E+02 -0.16720592917E+02  0.88447322921E+02  0.93066214791E+02  0.00000000000E+00 0.  1.
         12    1    5    5    0    0 -0.19987956492E+02  0.93028200863E+01 -0.57254931328E+01  0.22778106548E+02  0.00000000000E+00 0. -1.
         11    1    3    3    0    0  0.16521544643E+02  0.10672212785E+01 -0.25646857260E+01  0.16753447750E+02  0.00000000000E+00 0. -1.
        -12    1    3    3    0    0 -0.67206337268E+02  0.66856095276E+02 -0.22789806407E+03  0.24682778784E+03  0.00000000000E+00 0.  1.
          5    1    4    4  501    0  0.69361178403E+01 -0.12646446864E+02 -0.10429705275E+03  0.10537262435E+03  0.41800000000E+01 0.  1.
         -5    1    4    4    0  501  0.40097401675E+02 -0.47859096859E+02  0.17623097541E+02  0.65010312568E+02  0.41800000000E+01 0.  1.
</event>
<event>
11    1  0.8039394E-009  0.1414736E+03  0.7561462E-02  0.1105924E+00
         22   -1    0    0    0    0  0.00000000000E+00  0.00000000000E+00  0.66724832724E+03  0.66724832724E+03  0.00000000000E+00 0.  1.
         22   -1    0    0    0    0 -0.00000000000E+00 -0.00000000000E+00 -0.24397645407E+03  0.24397645407E+03  0.00000000000E+00 0. -1.
         24    2    1    2    0    0 -0.55127411190E+02  0.37938475548E+02 -0.20424951289E+03  0.22931819338E+03  0.79941296628E+02 0.  0.
         25    2    1    2    0    0  0.37091893581E+02 -0.39529979698E+02  0.17131107386E+03  0.21893805697E+03  0.12509180988E+03 0.  0.
        -24    2    1    2    0    0  0.18035517609E+02  0.15915041493E+01  0.45621031219E+03  0.46296853096E+03  0.76708532309E+02 0.  0.
        -11    1    3    3    0    0  0.56711523425E+01 -0.13809247779E+02 -0.81721695462E+02  0.83074020020E+02  0.00000000000E+00 0.  1.
         12    1    3    3    0    0 -0.60798563532E+02  0.51747723328E+02 -0.12252781743E+03  0.14624417336E+03  0.00000000000E+00 0. -1.
         13    1    5    5    0    0 -0.15254176806E+02  0.10106793169E+02  0.28426164792E+02  0.33806567749E+02  0.00000000000E+00 0. -1.
        -14    1    5    5    0    0  0.33289694415E+02 -0.85152890192E+01  0.42778414740E+03  0.42916196321E+03  0.00000000000E+00 0.  1.
          5    1    4    4  501    0  0.71941329189E+02 -0.49903227858E+02  0.15665863555E+03  0.17951403145E+03  0.41800000000E+01 0. -1.
         -5    1    4    4    0  501 -0.34849435608E+02  0.10373248161E+02  0.14652438311E+02  0.39424025519E+02  0.41800000000E+01 0. -1.
</event>
<event>
11    1  0.8039394E-009  0.3862473E+03  0.7561462E-02  0.9691231E-01
         22   -1    0    0    0    0  0.00000000000E+00  0.00000000000E+00  0.10047960443E+04  0.10047960443E+04  0.00000000000E+00 0. -1.
         22   -1    0    0    0    0 -0.00000000000E+00 -0.00000000000E+00 -0.47769015371E+03  0.47769015371E+03  0.00000000000E+00 0.  1.
         24    2    1    2    0    0 -0.21552493593E+02 -0.48822571152E+02 -0.31252509817E+03  0.32711530767E+03  0.80525363066E+02 0.  0.
         25    2    1    2    0    0 -0.14231347800E+03  0.36195549575E+03  0.30576833622E+03  0.51030106839E+03  0.12509195837E+03 0.  0.
        -24    2    1    2    0    0  0.16386597159E+03 -0.31313292459E+03  0.53386265253E+03  0.64506982194E+03  0.78749338457E+02 0.  0.
        -11    1    3    3    0    0 -0.49050211917E+02 -0.41135955945E+02 -0.16771213966E+03  0.17951448952E+03  0.00000000000E+00 0.  1.
         12    1    3    3    0    0  0.27497718325E+02 -0.76866152070E+01 -0.14481295851E+03  0.14760081815E+03  0.00000000000E+00 0. -1.
         11    1    5    5    0    0  0.15671151322E+03 -0.30944821184E+03  0.53429035680E+03  0.63701089438E+03  0.00000000000E+00 0. -1.
        -12    1    5    5    0    0  0.71544583646E+01 -0.36847127518E+01 -0.42770426934E+00  0.80589275648E+01  0.00000000000E+00 0.  1.
          5    1    4    4  501    0 -0.12641776617E+03  0.36727843300E+03  0.30333617963E+03  0.49285414600E+03  0.41800000000E+01 0.  1.
         -5    1    4    4    0  501 -0.15895711827E+02 -0.53229372555E+01  0.24321565905E+01  0.17446922399E+02  0.41800000000E+01 0.  1.
</event>
<event>
11    1  0.8039394E-009  0.2044410E+03  0.7561462E-02  0.1051427E+00
         22   -1    0    0    0    0  0.00000000000E+00  0.00000000000E+00  0.38748409018E+03  0.38748409018E+03  0.00000000000E+00 0. -1.
         22   -1    0    0    0    0 -0.00000000000E+00 -0.00000000000E+00 -0.14660990888E+04  0.14660990888E+04  0.00000000000E+00 0. -1.
         24    2    1    2    0    0  0.15112407475E+03  0.61584158792E+02 -0.13217829072E+04  0.13355258446E+04  0.99439093781E+02 0.  0.
         25    2    1    2    0    0 -0.14823505979E+03 -0.22205291203E+02 -0.58318670670E+02  0.20375313248E+03  0.12509022239E+03 0.  0.
        -24    2    1    2    0    0 -0.28890149525E+01 -0.39378867590E+02  0.30148657916E+03  0.31430420194E+03  0.79586005821E+02 0.  0.
        -13    1    3    3    0    0  0.85375940782E+02 -0.94626036995E+01 -0.42935763541E+03  0.43786592836E+03  0.00000000000E+00 0.  1.
         14    1    3    3    0    0  0.65748133964E+02  0.71046762492E+02 -0.89242527175E+03  0.89765991625E+03  0.00000000000E+00 0. -1.
         13    1    5    5    0    0  0.29219290474E+02 -0.44286411004E+02  0.22566247118E+03  0.23181588391E+03  0.00000000000E+00 0. -1.
        -14    1    5    5    0    0 -0.32108305427E+02  0.49075434140E+01  0.75824107988E+02  0.82488318033E+02  0.00000000000E+00 0.  1.
          5    1    4    4  501    0 -0.15713936938E+03  0.12048150538E+02 -0.58372236412E+02  0.16811522752E+03  0.41800000000E+01 0.  1.
         -5    1    4    4    0  501  0.89043095881E+01 -0.34253441741E+02  0.53565742049E-01  0.35637904956E+02  0.41800000000E+01 0.  1.
</event>
<event>
11    1  0.8039394E-009  0.3027297E+03  0.7561462E-02  0.9990425E-01
         22   -1    0    0    0    0  0.00000000000E+00  0.00000000000E+00  0.54616276033E+03  0.54616276033E+03  0.00000000000E+00 0.  1.
         22   -1    0    0    0    0 -0.00000000000E+00 -0.00000000000E+00 -0.25746124348E+04  0.25746124348E+04  0.00000000000E+00 0. -1.
        -24    2    1    2    0    0  0.47551141028E+02  0.93265580850E+02 -0.22579456121E+04  0.22617195573E+04  0.78085780730E+02 0.  0.
         25    2    1    2    0    0  0.22088748472E+03 -0.16690089702E+03 -0.18332093322E+03  0.35482252006E+03  0.12508103714E+03 0.  0.
         24    2    1    2    0    0 -0.26843862575E+03  0.73635316167E+02  0.41281687088E+03  0.50423311773E+03  0.79698259408E+02 0.  0.
        -11    1    5    5    0    0 -0.95910451231E+02  0.55894519216E+02  0.20865773544E+03  0.23634944995E+03  0.00000000000E+00 0.  1.
         12    1    5    5    0    0 -0.17252817452E+03  0.17740796951E+02  0.20415913544E+03  0.26788366778E+03  0.00000000000E+00 0. -1.
         11    1    3    3    0    0  0.36000644617E+02  0.35875682727E+02 -0.16901718292E+04  0.16909358129E+04  0.00000000000E+00 0. -1.
        -12    1    3    3    0    0  0.11550496411E+02  0.57389898123E+02 -0.56777378294E+03  0.57078374449E+03  0.00000000000E+00 0.  1.
          5    1    4    4  501    0  0.40679390339E+02  0.58385539890E+01  0.56690272280E+01  0.41695464751E+02  0.41800000000E+01 0.  1.
         -5    1    4    4    0  501  0.18020809438E+03 -0.17273945101E+03 -0.18898996045E+03  0.31312705531E+03  0.41800000000E+01 0.  1.
</event>
<event>
11    1  0.8039394E-009  0.2541488E+03  0.7561462E-02  0.1021712E+00
         22   -1    0    0    0    0  0.00000000000E+00  0.00000000000E+00  0.23200594632E+03  0.23200594632E+03  0.00000000000E+00 0. -1.
         22   -1    0    0    0    0 -0.00000000000E+00 -0.00000000000E+00 -0.20535725005E+04  0.20535725005E+04  0.00000000000E+00 0. -1.
         24    2    1    2    0    0  0.20026293521E+03 -0.10862675324E+03 -0.14666829825E+04  0.14864144140E+04  0.79773580492E+02 0.  0.
         25    2    1    2    0    0 -0.22570574230E+03 -0.10644656969E+02 -0.51888271110E+03  0.57960622311E+03  0.12509082763E+03 0.  0.
        -24    2    1    2    0    0  0.25442807095E+02  0.11927141021E+03  0.16399913941E+03  0.21955780975E+03  0.80230345669E+02 0.  0.
        -13    1    3    3    0    0  0.12088559273E+03 -0.84274293771E+02 -0.70611586697E+03  0.72132870504E+03  0.00000000000E+00 0.  1.
         14    1    3    3    0    0  0.79377342481E+02 -0.24352459468E+02 -0.76056711552E+03  0.76508570892E+03  0.00000000000E+00 0. -1.
         13    1    5    5    0    0  0.19301856602E+02  0.14281939439E+02  0.84156408791E+02  0.87514779340E+02  0.00000000000E+00 0. -1.
        -14    1    5    5    0    0  0.61409504930E+01  0.10498947077E+03  0.79842730622E+02  0.13204303040E+03  0.00000000000E+00 0.  1.
          5    1    4    4  501    0 -0.52453930805E+02 -0.46955553913E+02 -0.81707287929E+02  0.10793420311E+03  0.41800000000E+01 0. -1.
         -5    1    4    4    0  501 -0.17325181150E+03  0.36310896945E+02 -0.43717542317E+03  0.47167202000E+03  0.41800000000E+01 0. -1.
</event>
<event>
11    1  0.8039394E-009  0.1319623E+03  0.7561462E-02  0.1116881E+00
         22   -1    0    0    0    0  0.00000000000E+00  0.00000000000E+00  0.25861863662E+04  0.25861863662E+04  0.00000000000E+00 0. -1.
         22   -1    0    0    0    0 -0.00000000000E+00 -0.00000000000E+00 -0.83322674250E+02  0.83322674250E+02  0.00000000000E+00 0. -1.
        -24    2    1    2    0    0 -0.98371364358E+01  0.34781330577E+02 -0.30801517176E+02  0.96935234627E+02  0.84505597696E+02 0.  0.
         25    2    1    2    0    0  0.10435771436E+02  0.88581872113E+01  0.19492683568E+03  0.23201644341E+03  0.12509111054E+03 0.  0.
         24    2    1    2    0    0 -0.59863500040E+00 -0.43639517788E+02  0.23387383734E+04  0.23405573624E+04  0.81282356344E+02 0.  0.
        -13    1    5    5    0    0  0.36474793879E+02 -0.40935764692E+02  0.14783858888E+04  0.14794022386E+04  0.00000000000E+00 0.  1.
         14    1    5    5    0    0 -0.37073428880E+02 -0.27037530960E+01  0.86035248461E+03  0.86115512377E+03  0.00000000000E+00 0. -1.
         13    1    3    3    0    0  0.11462476025E+02  0.58619017599E+02 -0.23199353607E+02  0.64076419912E+02  0.00000000000E+00 0. -1.
        -14    1    3    3    0    0 -0.21299612461E+02 -0.23837687022E+02 -0.76021635687E+01  0.32858814715E+02  0.00000000000E+00 0.  1.
          5    1    4    4  501    0  0.44580930766E+02 -0.16442910307E+02  0.18087854282E+03  0.18706241830E+03  0.41800000000E+01 0.  1.
         -5    1    4    4    0  501 -0.34145159330E+02  0.25301097518E+02  0.14048292863E+02  0.44954025111E+02  0.41800000000E+01 0.  1.
</event>
<event>
11    1  0.8039394E-009  0.1664042E+03  0.7561462E-02  0.1081204E+00
         22   -1    0    0    0    0  0.00000000000E+00  0.00000000000E+00  0.90939126443E+03  0.90939126443E+03  0.00000000000E+00 0.  1.
         22   -1    0    0    0    0 -0.00000000000E+00 -0.00000000000E+00 -0.12552078403E+04  0.12552078403E+04  0.00000000000E+00 0. -1.
        -24    2    1    2    0    0 -0.49620269636E+02 -0.97567156429E+02 -0.12095908341E+04  0.12172575641E+04  0.81390848139E+02 0.  0.
         25    2    1    2    0    0  0.81612165617E+02  0.98490124031E+02  0.16499116822E+03  0.24337128836E+03  0.12508656323E+03 0.  0.
         24    2    1    2    0    0 -0.31991895981E+02 -0.92296760205E+00  0.69878308999E+03  0.70397025232E+03  0.79069437929E+02 0.  0.
        -13    1    5    5    0    0  0.98319519868E+00  0.84782500819E+01  0.58664105723E+03  0.58670314251E+03  0.00000000000E+00 0.  1.
         14    1    5    5    0    0 -0.32975091180E+02 -0.94012176839E+01  0.11214203276E+03  0.11726710981E+03  0.00000000000E+00 0. -1.
         13    1    3    3    0    0 -0.35637690580E+02 -0.68336160428E+02 -0.42068168043E+03  0.42768323799E+03  0.00000000000E+00 0. -1.
        -14    1    3    3    0    0 -0.13982579056E+02 -0.29230996000E+02 -0.78890915370E+03  0.78957432610E+03  0.00000000000E+00 0.  1.
          5    1    4    4  501    0  0.14416834953E+02 -0.73602769634E+01  0.10132145338E+03  0.10269142185E+03  0.41800000000E+01 0. -1.
         -5    1    4    4    0  501  0.67195330664E+02  0.10585040099E+03  0.63669714844E+02  0.14067986651E+03  0.41800000000E+01 0. -1.
</event>
<event>
11    1  0.8039394E-009  0.2698889E+03  0.7561462E-02  0.1013807E+00
         22   -1    0    0    0    0  0.00000000000E+00  0.00000000000E+00  0.62107235878E+03  0.62107235878E+03  0.00000000000E+00 0.  1.
         22   -1    0    0    0    0 -0.00000000000E+00 -0.00000000000E+00 -0.90917861081E+03  0.90917861081E+03  0.00000000000E+00 0.  1.
        -24    2    1    2    0    0  0.21188134366E+03 -0.65741295791E+02 -0.57474409762E+03  0.62057103549E+03  0.74578888314E+02 0.  0.
         25    2    1    2    0    0 -0.28125849969E+03  0.13475191093E+03 -0.21035780195E+03  0.39643742843E+03  0.12509120141E+03 0.  0.
         24    2    1    2    0    0  0.69377156027E+02 -0.69010615140E+02  0.49699564754E+03  0.51324250568E+03  0.82689426052E+02 0.  0.
        -13    1    5    5    0    0  0.50908199069E+02 -0.65180271648E+02  0.48227772751E+03  0.48931780981E+03  0.00000000000E+00 0.  1.
         14    1    5    5    0    0  0.18468956958E+02 -0.38303434919E+01  0.14717920029E+02  0.23924695867E+02  0.00000000000E+00 0. -1.
         11    1    3    3    0    0  0.17357557133E+02 -0.12099125248E+01 -0.10652015797E+02  0.20401326391E+02  0.00000000000E+00 0. -1.
        -12    1    3    3    0    0  0.19452378653E+03 -0.64531383266E+02 -0.56409208182E+03  0.60016970910E+03  0.00000000000E+00 0.  1.
          5    1    4    4  501    0 -0.25588957648E+03  0.74112300741E+02 -0.19086483136E+03  0.32774832528E+03  0.41800000000E+01 0. -1.
         -5    1    4    4    0  501 -0.25368923205E+02  0.60639610189E+02 -0.19492970586E+02  0.68689103144E+02  0.41800000000E+01 0. -1.
</event>
<event>
11    1  0.8039394E-009  0.1475358E+03  0.7561462E-02  0.1099424E+00
         22   -1    0    0    0    0  0.00000000000E+00  0.00000000000E+00  0.83065002921E+03  0.83065002921E+03  0.00000000000E+00 0. -1.
         22   -1    0    0    0    0 -0.00000000000E+00 -0.00000000000E+00 -0.98073420516E+03  0.98073420516E+03  0.00000000000E+00 0. -1.
         24    2    1    2    0    0 -0.26156332559E+02 -0.73153608269E+02 -0.88397465671E+03  0.89121583327E+03  0.82576410825E+02 0.  0.
         25    2    1    2    0    0  0.57875574196E+02  0.70920473479E+02 -0.24319503179E+02  0.15694019443E+03  0.12513788693E+03 0.  0.
        -24    2    1    2    0    0 -0.31719241638E+02  0.22331347904E+01  0.75820998394E+03  0.76322820667E+03  0.81386844955E+02 0.  0.
        -11    1    3    3    0    0 -0.18527213914E+02 -0.18954549138E+02 -0.62090450383E+02  0.67511159205E+02  0.00000000000E+00 0.  1.
         12    1    3    3    0    0 -0.76291186444E+01 -0.54199059131E+02 -0.82188420633E+03  0.82370467407E+03  0.00000000000E+00 0. -1.
         11    1    5    5    0    0 -0.29182535775E+02  0.20454170649E+02  0.71936439582E+03  0.72024657407E+03  0.00000000000E+00 0. -1.
        -12    1    5    5    0    0 -0.25367058631E+01 -0.18221035859E+02  0.38845588121E+02  0.42981632599E+02  0.00000000000E+00 0.  1.
          5    1    4    4  501    0  0.70381115909E+02 -0.58002091949E+01  0.10757981576E+02  0.71556624228E+02  0.41800000000E+01 0. -1.
         -5    1    4    4    0  501 -0.12505541713E+02  0.76720682674E+02 -0.35077484754E+02  0.85383570200E+02  0.41800000000E+01 0. -1.
</event>
<event>
11    1  0.8039394E-009  0.2606416E+03  0.7561462E-02  0.1018378E+00
         22   -1    0    0    0    0  0.00000000000E+00  0.00000000000E+00  0.16008811372E+04  0.16008811372E+04  0.00000000000E+00 0.  1.
         22   -1    0    0    0    0 -0.00000000000E+00 -0.00000000000E+00 -0.51568273245E+03  0.51568273245E+03  0.00000000000E+00 0. -1.
         24    2    1    2    0    0 -0.50123493482E+02 -0.22444699481E+03 -0.45984908325E+03  0.52219373359E+03  0.91303329419E+02 0.  0.
         25    2    1    2    0    0  0.65115785834E+02  0.19255272213E+03  0.60618988779E+03  0.65148330207E+03  0.12509075289E+03 0.  0.
        -24    2    1    2    0    0 -0.14992292352E+02  0.31894272680E+02  0.93885760017E+03  0.94288683396E+03  0.79623958671E+02 0.  0.
        -11    1    3    3    0    0 -0.36167326228E+02 -0.17786086532E+02 -0.74260689490E+02  0.84493019617E+02  0.00000000000E+00 0.  1.
         12    1    3    3    0    0 -0.13956167255E+02 -0.20666090827E+03 -0.38558839376E+03  0.43770071397E+03  0.00000000000E+00 0. -1.
         11    1    5    5    0    0  0.20248082666E+02  0.35691753926E+02  0.27098450385E+03  0.27407387229E+03  0.00000000000E+00 0. -1.
        -12    1    5    5    0    0 -0.35240375018E+02 -0.37974812465E+01  0.66787309633E+03  0.66881296167E+03  0.00000000000E+00 0.  1.
          5    1    4    4  501    0 -0.16108931721E+02  0.59391746449E+02  0.31639867893E+03  0.32235457753E+03  0.41800000000E+01 0.  1.
         -5    1    4    4    0  501  0.81224717555E+02  0.13316097568E+03  0.28979120886E+03  0.32912872454E+03  0.41800000000E+01 0.  1.
</event>
<event>
11    1  0.8039394E-009  0.1415207E+03  0.7561462E-02  0.1105872E+00
         22   -1    0    0    0    0  0.00000000000E+00  0.00000000000E+00  0.85257000550E+03  0.85257000550E+03  0.00000000000E+00 0.  1.
         22   -1    0    0    0    0 -0.00000000000E+00 -0.00000000000E+00 -0.36401861937E+03  0.36401861937E+03  0.00000000000E+00 0. -1.
        -24    2    1    2    0    0 -0.42363118039E+01 -0.31656715963E+02 -0.31703147981E+03  0.33037929360E+03  0.87300770021E+02 0.  0.
         25    2    1    2    0    0  0.38132929107E+02 -0.27977234086E+02  0.86303676655E+02  0.15916809499E+03  0.12509721000E+03 0.  0.
         24    2    1    2    0    0 -0.33896617303E+02  0.59633950049E+02  0.71927918929E+03  0.72704123627E+03  0.80754061417E+02 0.  0.
        -11    1    5    5    0    0 -0.27356969308E+02  0.74088174974E+02  0.68157170615E+03  0.68613224095E+03  0.00000000000E+00 0.  1.
         12    1    5    5    0    0 -0.65396479950E+01 -0.14454224925E+02  0.37707483135E+02  0.40908995325E+02  0.00000000000E+00 0. -1.
         13    1    3    3    0    0 -0.39690793551E+02 -0.20534585379E+02 -0.24788720711E+03  0.25188309935E+03  0.00000000000E+00 0. -1.
        -14    1    3    3    0    0  0.35454481747E+02 -0.11122130583E+02 -0.69144272705E+02  0.78496194256E+02  0.00000000000E+00 0.  1.
          5    1    4    4  501    0  0.22992424649E+02 -0.23205741253E+02  0.11851996035E+03  0.12301061507E+03  0.41800000000E+01 0.  1.
         -5    1    4    4    0  501  0.15140504458E+02 -0.47714928329E+01 -0.32216283696E+02  0.36157479922E+02  0.41800000000E+01 0.  1.
</event>
<event>
11    1  0.8039394E-009  0.1529261E+03  0.7561462E-02  0.1093926E+00
         22   -1    0    0    0    0  0.00000000000E+00  0.00000000000E+00  0.17202876797E+03  0.17202876797E+03  0.00000000000E+00 0.  1.
         22   -1    0    0    0    0 -0.00000000000E+00 -0.00000000000E+00 -0.10023973011E+04  0.10023973011E+04  0.00000000000E+00 0.  1.
         24    2    1    2    0    0  0.56824775247E+02 -0.67340133785E+02 -0.80470050828E+03  0.81347467800E+03  0.80214680790E+02 0.  0.
         25    2    1    2    0    0  0.11547323896E+02  0.11818814787E+03 -0.12014354764E+03  0.21019882877E+03  0.12508915457E+03 0.  0.
        -24    2    1    2    0    0 -0.68372099143E+02 -0.50848014084E+02  0.94475522770E+02  0.15075256233E+03  0.80873024970E+02 0.  0.
        -13    1    3    3    0    0  0.48619345658E+02 -0.83428070359E+02 -0.74095054116E+03  0.74721602508E+03  0.00000000000E+00 0.  1.
         14    1    3    3    0    0  0.82054295887E+01  0.16087936575E+02 -0.63749967120E+02  0.66258652913E+02  0.00000000000E+00 0. -1.
         13    1    5    5    0    0  0.99888292258E+01 -0.31405644893E+02  0.11308106330E+02  0.34841993473E+02  0.00000000000E+00 0. -1.
        -14    1    5    5    0    0 -0.78360928369E+02 -0.19442369191E+02  0.83167416439E+02  0.11591056885E+03  0.00000000000E+00 0.  1.
          5    1    4    4  501    0 -0.43195444029E+02  0.10922674084E+02 -0.61844857741E+02  0.76337474566E+02  0.41800000000E+01 0. -1.
         -5    1    4    4    0  501  0.54742767926E+02  0.10726547378E+03 -0.58298689903E+02  0.13386135421E+03  0.41800000000E+01 0. -1.
</event>
<event>
11    1  0.8039394E-009  0.1519790E+03  0.7561462E-02  0.1094874E+00
         22   -1    0    0    0    0  0.00000000000E+00  0.00000000000E+00  0.19069149601E+03  0.19069149601E+03  0.00000000000E+00 0.  1.
         22   -1    0    0    0    0 -0.00000000000E+00 -0.00000000000E+00 -0.94134896272E+03  0.94134896272E+03  0.00000000000E+00 0. -1.
        -24    2    1    2    0    0  0.75950213628E+02  0.29925228991E+02 -0.67476899942E+03  0.68649185012E+03  0.96404893099E+02 0.  0.
         25    2    1    2    0    0 -0.10868300469E+03 -0.19329438888E+02 -0.22051888643E+03  0.27651665310E+03  0.12508899813E+03 0.  0.
         24    2    1    2    0    0  0.32732791060E+02 -0.10595790103E+02  0.14463041915E+03  0.16903195551E+03  0.80437164681E+02 0.  0.
        -13    1    5    5    0    0  0.66146955802E+01 -0.42474161502E+02  0.50777024843E+02  0.66529052638E+02  0.00000000000E+00 0.  1.
         14    1    5    5    0    0  0.26118095480E+02  0.31878371399E+02  0.93853394303E+02  0.10250290287E+03  0.00000000000E+00 0. -1.
         13    1    3    3    0    0  0.40829391078E+02 -0.32017017992E+02 -0.36334973048E+03  0.36703563214E+03  0.00000000000E+00 0. -1.
        -14    1    3    3    0    0  0.35120822550E+02  0.61942246983E+02 -0.31141926894E+03  0.31945621798E+03  0.00000000000E+00 0.  1.
          5    1    4    4  501    0 -0.85191033073E+02 -0.38164025138E+01 -0.23093314165E+03  0.24621061179E+03  0.41800000000E+01 0. -1.
         -5    1    4    4    0  501 -0.23491971615E+02 -0.15513036375E+02  0.10414255224E+02  0.30306041309E+02  0.41800000000E+01 0. -1.
</event>
<event>
11    1  0.8039394E-009  0.1263190E+03  0.7561462E-02  0.1123876E+00
         22   -1    0    0    0    0  0.00000000000E+00  0.00000000000E+00  0.13412208862E+04  0.13412208862E+04  0.00000000000E+00 0. -1.
         22   -1    0    0    0    0 -0.00000000000E+00 -0.00000000000E+00 -0.11249650857E+03  0.11249650857E+03  0.00000000000E+00 0. -1.
         24    2    1    2    0    0 -0.77601239907E+01  0.17506263889E+02 -0.71925020017E+02  0.11035481434E+03  0.81475688049E+02 0.  0.
         25    2    1    2    0    0 -0.20325932432E+02 -0.87345990881E+01  0.18002782360E+03  0.22033538906E+03  0.12509288409E+03 0.  0.
        -24    2    1    2    0    0  0.28086056423E+02 -0.87716648010E+01  0.11206215740E+04  0.11230271913E+04  0.67317097884E+02 0.  0.
        -13    1    3    3    0    0  0.23966032244E+01  0.33796838200E+02  0.20361141020E+01  0.33942830464E+02  0.00000000000E+00 0.  1.
         14    1    3    3    0    0 -0.10156727215E+02 -0.16290574310E+02 -0.73961134119E+02  0.76411983872E+02  0.00000000000E+00 0. -1.
         11    1    5    5    0    0  0.30219380764E+02 -0.20877393876E+01  0.11092623370E+04  0.11096758544E+04  0.00000000000E+00 0. -1.
        -12    1    5    5    0    0 -0.21333243405E+01 -0.66839254134E+01  0.11359237051E+02  0.13351336939E+02  0.00000000000E+00 0.  1.
          5    1    4    4  501    0 -0.38219179423E+02 -0.60734724185E+02  0.10127413124E+03  0.12419071807E+03  0.41800000000E+01 0. -1.
         -5    1    4    4    0  501  0.17893246990E+02  0.52000125097E+02  0.78753692362E+02  0.96144670984E+02  0.41800000000E+01 0. -1.
</event>
<event>
11    1  0.8039394E-009  0.1338791E+03  0.7561462E-02  0.1114593E+00
         22   -1    0    0    0    0  0.00000000000E+00  0.00000000000E+00  0.17118232943E+04  0.17118232943E+04  0.00000000000E+00 0. -1.
         22   -1    0    0    0    0 -0.00000000000E+00 -0.00000000000E+00 -0.55026633171E+03  0.55026633171E+03  0.00000000000E+00 0.  1.
        -24    2    1    2    0    0  0.44381010196E+02  0.16658812901E+02 -0.45481292782E+03  0.46410321134E+03  0.79308267865E+02 0.  0.
         25    2    1    2    0    0 -0.59366496006E+02  0.15130943840E+02 -0.35611015639E+02  0.14376619180E+03  0.12508895699E+03 0.  0.
         24    2    1    2    0    0  0.14985485810E+02 -0.31789756742E+02  0.16519809060E+04  0.16542202229E+04  0.78539661019E+02 0.  0.
        -13    1    5    5    0    0 -0.29667423945E+02 -0.16743660356E+01  0.78973471236E+03  0.79029353752E+03  0.00000000000E+00 0.  1.
         14    1    5    5    0    0  0.44652909755E+02 -0.30115390706E+02  0.86224619368E+03  0.86392668533E+03  0.00000000000E+00 0. -1.
         13    1    3    3    0    0  0.64523355469E+02  0.83364855445E+01 -0.39745004651E+03  0.40273974210E+03  0.00000000000E+00 0. -1.
        -14    1    3    3    0    0 -0.20142345273E+02  0.83223273569E+01 -0.57362881312E+02  0.61363469248E+02  0.00000000000E+00 0.  1.
          5    1    4    4  501    0 -0.88813895201E+02 -0.74458036442E+01  0.40211707145E+01  0.89313997708E+02  0.41800000000E+01 0. -1.
         -5    1    4    4    0  501  0.29447399194E+02  0.22576747484E+02 -0.39632186353E+02  0.54452194092E+02  0.41800000000E+01 0. -1.
</event>
<event>
11    1  0.8039394E-009  0.2289087E+03  0.7561462E-02  0.1035776E+00
         22   -1    0    0    0    0  0.00000000000E+00  0.00000000000E+00  0.10689726235E+03  0.10689726235E+03  0.00000000000E+00 0. -1.
         22   -1    0    0    0    0 -0.00000000000E+00 -0.00000000000E+00 -0.10418474717E+04  0.10418474717E+04  0.00000000000E+00 0. -1.
        -24    2    1    2    0    0 -0.22079624750E+03  0.11520689121E+03 -0.64251834153E+03  0.69368273457E+03  0.79638598352E+02 0.  0.
         25    2    1    2    0    0  0.10603957631E+03 -0.68507450019E+02 -0.23942874693E+03  0.29817962448E+03  0.12508917277E+03 0.  0.
         24    2    1    2    0    0  0.11475667119E+03 -0.46699441189E+02 -0.53003120885E+02  0.15688237501E+03  0.80329430316E+02 0.  0.
        -11    1    5    5    0    0 -0.94802882931E+01  0.52912100565E+01 -0.11820084376E+02  0.16049522256E+02  0.00000000000E+00 0.  1.
         12    1    5    5    0    0  0.12423695948E+03 -0.51990651246E+02 -0.41183036509E+02  0.14083285275E+03  0.00000000000E+00 0. -1.
         11    1    3    3    0    0 -0.19226871967E+03  0.12244669330E+03 -0.60111920852E+03  0.64288782545E+03  0.00000000000E+00 0. -1.
        -12    1    3    3    0    0 -0.28527527825E+02 -0.72398020935E+01 -0.41399133009E+02  0.50794909115E+02  0.00000000000E+00 0.  1.
          5    1    4    4  501    0  0.11012061388E+03 -0.74830887273E+01 -0.11490432280E+03  0.15938325513E+03  0.41800000000E+01 0. -1.
         -5    1    4    4    0  501 -0.40810375699E+01 -0.61024361291E+02 -0.12452442413E+03  0.13879636935E+03  0.41800000000E+01 0. -1.
</event>
<event>
11    1  0.8039394E-009  0.1345749E+03  0.7561462E-02  0.1113772E+00
         22   -1    0    0    0    0  0.00000000000E+00  0.00000000000E+00  0.37213141254E+02  0.37213141254E+02  0.00000000000E+00 0. -1.
         22   -1    0    0    0    0 -0.00000000000E+00 -0.00000000000E+00 -0.16188359676E+04  0.16188359676E+04  0.00000000000E+00 0.  1.
         24    2    1    2    0    0 -0.16704261144E+02  0.10648788649E+02 -0.12234827996E+04  0.12265247717E+04  0.84026339295E+02 0.  0.
         25    2    1    2    0    0  0.53521297132E+02 -0.32962549719E+02 -0.24433890715E+03  0.28160189960E+03  0.12508824637E+03 0.  0.
        -24    2    1    2    0    0 -0.36817035988E+02  0.22313761071E+02 -0.11380111956E+03  0.14792243750E+03  0.84124637467E+02 0.  0.
        -11    1    3    3    0    0 -0.32761923343E+02  0.40510783620E+02 -0.68831523932E+03  0.69028424282E+03  0.00000000000E+00 0.  1.
         12    1    3    3    0    0  0.16057662200E+02 -0.29861994972E+02 -0.53516756030E+03  0.53624052892E+03  0.00000000000E+00 0. -1.
         13    1    5    5    0    0 -0.29783956791E+01 -0.19780683281E+02  0.20420217304E+01  0.20107613599E+02  0.00000000000E+00 0. -1.
        -14    1    5    5    0    0 -0.33838640309E+02  0.42094444352E+02 -0.11584314129E+03  0.12781482390E+03  0.00000000000E+00 0.  1.
          5    1    4    4  501    0  0.56302318307E+02  0.16105706341E+02 -0.21783455830E+03  0.22560742899E+03  0.41800000000E+01 0. -1.
         -5    1    4    4    0  501 -0.27810211751E+01 -0.49068256061E+02 -0.26504348851E+02  0.55994470616E+02  0.41800000000E+01 0. -1.
</event>
<event>
11    1  0.8039394E-009  0.1260919E+03  0.7561462E-02  0.1124166E+00
         22   -1    0    0    0    0  0.00000000000E+00  0.00000000000E+00  0.11428939240E+03  0.11428939240E+03  0.00000000000E+00 0.  1.
         22   -1    0    0    0    0 -0.00000000000E+00 -0.00000000000E+00 -0.12467172630E+04  0.12467172630E+04  0.00000000000E+00 0.  1.
        -24    2    1    2    0    0  0.91054528539E+01 -0.14584642941E+02 -0.11151164079E+04  0.11186927951E+04  0.87711718755E+02 0.  0.
         25    2    1    2    0    0  0.11978250666E+02 -0.68889286383E+01 -0.68200604494E+02  0.14314311371E+03  0.12509073796E+03 0.  0.
         24    2    1    2    0    0 -0.21083703520E+02  0.21473571579E+02  0.50889141766E+02  0.99170746602E+02  0.79620948258E+02 0.  0.
        -11    1    5    5    0    0 -0.10933480751E+02 -0.26608996250E+02  0.39259377813E+02  0.48671125208E+02  0.00000000000E+00 0.  1.
         12    1    5    5    0    0 -0.10150222769E+02  0.48082567829E+02  0.11629763953E+02  0.50499621394E+02  0.00000000000E+00 0. -1.
         11    1    3    3    0    0 -0.11609333924E+02 -0.48022661319E+01 -0.21986023211E+02  0.25322393466E+02  0.00000000000E+00 0. -1.
        -12    1    3    3    0    0  0.20714786778E+02 -0.97823768092E+01 -0.10931303847E+04  0.10933704016E+04  0.00000000000E+00 0.  1.
          5    1    4    4  501    0 -0.42765051256E+01  0.57854077172E+02 -0.23683670542E+02  0.62799453754E+02  0.41800000000E+01 0.  1.
         -5    1    4    4    0  501  0.16254755792E+02 -0.64743005810E+02 -0.44516933952E+02  0.80343659960E+02  0.41800000000E+01 0.  1.
</event>
<event>
11    1  0.8039394E-009  0.2107279E+03  0.7561462E-02  0.1047186E+00
         22   -1    0    0    0    0  0.00000000000E+00  0.00000000000E+00  0.34932273721E+03  0.34932273721E+03  0.00000000000E+00 0.  1.
         22   -1    0    0    0    0 -0.00000000000E+00 -0.00000000000E+00 -0.12417506364E+04  0.12417506364E+04  0.00000000000E+00 0.  1.
        -24    2    1    2    0    0  0.15698336789E+03 -0.64907360665E+02 -0.11543550905E+04  0.11689425713E+04  0.70952918431E+02 0.  0.
         25    2    1    2    0    0 -0.17129792221E+03  0.10505692357E+02  0.10520182959E+03  0.23700202872E+03  0.12509671836E+03 0.  0.
         24    2    1    2    0    0  0.14314554313E+02  0.54401668308E+02  0.15672536177E+03  0.18512877360E+03  0.80903496914E+02 0.  0.
        -13    1    5    5    0    0  0.25735654176E+02  0.61886821540E+02  0.15778688133E+03  0.17143220962E+03  0.00000000000E+00 0.  1.
         14    1    5    5    0    0 -0.11421099863E+02 -0.74851532321E+01 -0.10615195613E+01  0.13696563977E+02  0.00000000000E+00 0. -1.
         11    1    3    3    0    0  0.67443125250E+02  0.69665997406E+01 -0.50233150716E+03  0.50688662612E+03  0.00000000000E+00 0. -1.
        -12    1    3    3    0    0  0.89540242645E+02 -0.71873960406E+02 -0.65202358336E+03  0.66205594514E+03  0.00000000000E+00 0.  1.
          5    1    4    4  501    0 -0.80517562306E+02 -0.57310691575E+02  0.51890042741E+02  0.11170336675E+03  0.41800000000E+01 0. -1.
         -5    1    4    4    0  501 -0.90780359902E+02  0.67816383933E+02  0.53311786845E+02  0.12529866197E+03  0.41800000000E+01 0. -1.
</event>
<event>
11    1  0.8039394E-009  0.1297161E+03  0.7561462E-02  0.1119618E+00
         22   -1    0    0    0    0  0.00000000000E+00  0.00000000000E+00  0.18509604348E+04  0.18509604348E+04  0.00000000000E+00 0.  1.
         22   -1    0    0    0    0 -0.00000000000E+00 -0.00000000000E+00 -0.19017062153E+03  0.19017062153E+03  0.00000000000E+00 0.  1.
        -24    2    1    2    0    0 -0.18016952912E+01  0.81190175086E+00 -0.14678896999E+03  0.16850583771E+03  0.82724303212E+02 0.  0.
         25    2    1    2    0    0 -0.30438862587E+02 -0.12717231889E+02  0.10184921775E+03  0.16465094688E+03  0.12509364017E+03 0.  0.
         24    2    1    2    0    0  0.32240557878E+02  0.11905330138E+02  0.17057295655E+04  0.17079742717E+04  0.80508209505E+02 0.  0.
        -13    1    5    5    0    0  0.38090217920E+02  0.39877331590E+02  0.86286503685E+03  0.86462543225E+03  0.00000000000E+00 0.  1.
         14    1    5    5    0    0 -0.58496600423E+01 -0.27972001452E+02  0.84286452863E+03  0.84334883945E+03  0.00000000000E+00 0. -1.
         11    1    3    3    0    0  0.31193626041E+02 -0.48316453443E+01 -0.19990465377E+02  0.37363161112E+02  0.00000000000E+00 0. -1.
        -12    1    3    3    0    0 -0.32995321332E+02  0.56435470952E+01 -0.12679850462E+03  0.13114267660E+03  0.00000000000E+00 0.  1.
          5    1    4    4  501    0  0.16981906089E+02 -0.56592491903E+02  0.25337570928E+02  0.64424841286E+02  0.41800000000E+01 0. -1.
         -5    1    4    4    0  501 -0.47420768676E+02  0.43875260014E+02  0.76511646822E+02  0.10022610559E+03  0.41800000000E+01 0. -1.
</event>
<event>
11    1  0.8039394E-009  0.1430297E+03  0.7561462E-02  0.1104222E+00
         22   -1    0    0    0    0  0.00000000000E+00  0.00000000000E+00  0.15089482757E+04  0.15089482757E+04  0.00000000000E+00 0.  1.
         22   -1    0    0    0    0 -0.00000000000E+00 -0.00000000000E+00 -0.86826836702E+02  0.86826836702E+02  0.00000000000E+00 0. -1.
         24    2    1    2    0    0 -0.65627418047E+02  0.14939394729E+02 -0.37150357928E+02  0.11058908921E+03  0.79496251760E+02 0.  0.
         25    2    1    2    0    0  0.10262280888E+03 -0.28086110221E+02  0.65335707961E+03  0.67367916858E+03  0.12509147936E+03 0.  0.
        -24    2    1    2    0    0 -0.36995390828E+02  0.13146715491E+02  0.80591471733E+03  0.81150685463E+03  0.86621870398E+02 0.  0.
        -13    1    3    3    0    0  0.15064429341E+02  0.17811364518E+02 -0.10281052694E+02  0.25492779014E+02  0.00000000000E+00 0.  1.
         14    1    3    3    0    0 -0.80691847388E+02 -0.28719697890E+01 -0.26869305234E+02  0.85096310196E+02  0.00000000000E+00 0. -1.
         13    1    5    5    0    0  0.26262018823E+02  0.17149475441E+02  0.23482542013E+03  0.23691090325E+03  0.00000000000E+00 0. -1.
        -14    1    5    5    0    0 -0.63257409652E+02 -0.40027599503E+01  0.57108929720E+03  0.57459595138E+03  0.00000000000E+00 0.  1.
          5    1    4    4  501    0  0.76379033402E+02  0.39817100293E+02  0.43509877907E+03  0.44356237235E+03  0.41800000000E+01 0. -1.
         -5    1    4    4    0  501  0.26243775474E+02 -0.67903210514E+02  0.21825830054E+03  0.23011679623E+03  0.41800000000E+01 0. -1.
</event>
<event>
11    1  0.8039394E-009  0.1481762E+03  0.7561462E-02  0.1098757E+00
         22   -1    0    0    0    0  0.00000000000E+00  0.00000000000E+00  0.98944852334E+03  0.98944852334E+03  0.00000000000E+00 0. -1.
         22   -1    0    0    0    0 -0.00000000000E+00 -0.00000000000E+00 -0.62598085152E+02  0.62598085152E+02  0.00000000000E+00 0. -1.
        -24    2    1    2    0    0  0.10973530025E+01 -0.13791073823E+01 -0.18718671756E+01  0.81182597000E+02  0.81141876045E+02 0.  0.
         25    2    1    2    0    0  0.32454385071E+02  0.73154327314E+02  0.33351686940E+03  0.36508317305E+03  0.12508948139E+03 0.  0.
         24    2    1    2    0    0 -0.33551738074E+02 -0.71775219932E+02  0.59520543597E+03  0.60578083844E+03  0.80146814642E+02 0.  0.
        -13    1    5    5    0    0 -0.24529349031E+02 -0.21351679809E+02  0.61019473100E+02  0.69144481283E+02  0.00000000000E+00 0.  1.
         14    1    5    5    0    0 -0.90223890430E+01 -0.50423540123E+02  0.53418596287E+03  0.53663635716E+03  0.00000000000E+00 0. -1.
         11    1    3    3    0    0  0.46014767921E+01 -0.18140549334E+02 -0.37356491760E+02  0.41782300025E+02  0.00000000000E+00 0. -1.
        -12    1    3    3    0    0 -0.35041237896E+01  0.16761441952E+02  0.35484624584E+02  0.39400296975E+02  0.00000000000E+00 0.  1.
          5    1    4    4  501    0 -0.20906704429E+01  0.75133671007E+02  0.82599826862E+02  0.11175707235E+03  0.41800000000E+01 0.  1.
         -5    1    4    4    0  501  0.34545055514E+02 -0.19793436932E+01  0.25091704254E+03  0.25332610070E+03  0.41800000000E+01 0.  1.
</event>
<event>
11    1  0.8039394E-009  0.1288689E+03  0.7561462E-02  0.1120667E+00
         22   -1    0    0    0    0  0.00000000000E+00  0.00000000000E+00  0.12273309136E+04  0.12273309136E+04  0.00000000000E+00 0.  1.
         22   -1    0    0    0    0 -0.00000000000E+00 -0.00000000000E+00 -0.28722883328E+03  0.28722883328E+03  0.00000000000E+00 0. -1.
        -24    2    1    2    0    0 -0.16739839944E+02 -0.23017580327E+02 -0.11837776189E+03  0.14449228728E+03  0.77811922799E+02 0.  0.
         25    2    1    2    0    0  0.41450194708E+02  0.10043764752E+02 -0.12632830444E+03  0.18282353613E+03  0.12508640616E+03 0.  0.
         24    2    1    2    0    0 -0.24710354764E+02  0.12973815575E+02  0.11848081466E+04  0.11872439235E+04  0.70702672736E+02 0.  0.
        -13    1    5    5    0    0 -0.49644454016E+02  0.71048586464E+01  0.73783451332E+03  0.73953689555E+03  0.00000000000E+00 0.  1.
         14    1    5    5    0    0  0.24934099252E+02  0.58689569285E+01  0.44697363332E+03  0.44770702792E+03  0.00000000000E+00 0. -1.
         13    1    3    3    0    0 -0.36568165542E+02 -0.33856620704E+02 -0.10932735556E+03  0.12014979055E+03  0.00000000000E+00 0. -1.
        -14    1    3    3    0    0  0.19828325598E+02  0.10839040377E+02 -0.90504063264E+01  0.24342496729E+02  0.00000000000E+00 0.  1.
          5    1    4    4  501    0  0.57344694525E+02  0.51810350608E+02 -0.11115166067E+03  0.13544331098E+03  0.41800000000E+01 0. -1.
         -5    1    4    4    0  501 -0.15894499817E+02 -0.41766585856E+02 -0.15176643772E+02  0.47380225143E+02  0.41800000000E+01 0. -1.
</event>
<event>
11    1  0.8039394E-009  0.1729484E+03  0.7561462E-02  0.1075494E+00
         22   -1    0    0    0    0  0.00000000000E+00  0.00000000000E+00  0.23369001247E+04  0.23369001247E+04  0.00000000000E+00 0. -1.
         22   -1    0    0    0    0 -0.00000000000E+00 -0.00000000000E+00 -0.90016951102E+02  0.90016951102E+02  0.00000000000E+00 0.  1.
         24    2    1    2    0    0 -0.94139696183E+02 -0.25570495705E+02 -0.10672064934E+02  0.12576937740E+03  0.78663273985E+02 0.  0.
         25    2    1    2    0    0  0.13923679129E+03  0.12653584938E+03  0.65912748298E+03  0.69677121063E+03  0.12507148322E+03 0.  0.
        -24    2    1    2    0    0 -0.45097095106E+02 -0.10096535368E+03  0.15984277555E+04  0.16043764877E+04  0.82612796624E+02 0.  0.
        -13    1    3    3    0    0 -0.56314743054E+02  0.17912454791E+02 -0.28271825153E+02  0.65509559756E+02  0.00000000000E+00 0.  1.
         14    1    3    3    0    0 -0.37824953128E+02 -0.43482950496E+02  0.17599760219E+02  0.60259817646E+02  0.00000000000E+00 0. -1.
         11    1    5    5    0    0 -0.10827795624E+02  0.49049579638E+01  0.53699762499E+03  0.53712917349E+03  0.00000000000E+00 0. -1.
        -12    1    5    5    0    0 -0.34269299482E+02 -0.10587031164E+03  0.10614301305E+04  0.10672473143E+04  0.00000000000E+00 0.  1.
          5    1    4    4  501    0  0.15415233076E+03  0.12569225207E+03  0.64752931696E+03  0.67740178036E+03  0.41800000000E+01 0.  1.
         -5    1    4    4    0  501 -0.14915539469E+02  0.84359730942E+00  0.11598166024E+02  0.19369430275E+02  0.41800000000E+01 0.  1.
</event>
<event>
11    1  0.8039394E-009  0.1457298E+03  0.7561462E-02  0.1101324E+00
         22   -1    0    0    0    0  0.00000000000E+00  0.00000000000E+00  0.37385879505E+03  0.37385879505E+03  0.00000000000E+00 0. -1.
         22   -1    0    0    0    0 -0.00000000000E+00 -0.00000000000E+00 -0.41021051241E+03  0.41021051241E+03  0.00000000000E+00 0. -1.
        -24    2    1    2    0    0  0.34214488193E+02  0.34571983650E+02 -0.35039107045E+03  0.36288392183E+03  0.80901082901E+02 0.  0.
         25    2    1    2    0    0  0.45739195879E+02 -0.48463577361E+02  0.85857240221E+02  0.16570872234E+03  0.12508845907E+03 0.  0.
         24    2    1    2    0    0 -0.79953684072E+02  0.13891593711E+02  0.22818211287E+03  0.25547666329E+03  0.81336835931E+02 0.  0.
        -13    1    5    5    0    0  0.11467990438E+02  0.19616304870E+02  0.56238839091E+02  0.60655760186E+02  0.00000000000E+00 0.  1.
         14    1    5    5    0    0 -0.91421674510E+02 -0.57247111596E+01  0.17194327378E+03  0.19482090310E+03  0.00000000000E+00 0. -1.
         13    1    3    3    0    0  0.17742519352E+02 -0.45745043756E+00 -0.29371277991E+03  0.29424854007E+03  0.00000000000E+00 0. -1.
        -14    1    3    3    0    0  0.16471968841E+02  0.35029434088E+02 -0.56678290547E+02  0.68635381760E+02  0.00000000000E+00 0.  1.
          5    1    4    4  501    0 -0.33925591049E+02  0.16619954546E+02  0.31019732996E+02  0.49059808931E+02  0.41800000000E+01 0. -1.
         -5    1    4    4    0  501  0.79664786928E+02 -0.65083531906E+02  0.54837507225E+02  0.11664891341E+03  0.41800000000E+01 0. -1.
</event>
<event>
11    1  0.8039394E-009  0.1412698E+03  0.7561462E-02  0.1106149E+00
         22   -1    0    0    0    0  0.00000000000E+00  0.00000000000E+00  0.16348937371E+03  0.16348937371E+03  0.00000000000E+00 0.  1.
         22   -1    0    0    0    0 -0.00000000000E+00 -0.00000000000E+00 -0.71310730920E+03  0.71310730920E+03  0.00000000000E+00 0. -1.
        -24    2    1    2    0    0  0.12084022059E+02 -0.62254582878E+02 -0.56943177568E+03  0.57860453381E+03  0.80678390610E+02 0.  0.
         25    2    1    2    0    0 -0.14176407307E+02  0.87074450848E+02 -0.79982934236E+02  0.17270769190E+03  0.12509095314E+03 0.  0.
         24    2    1    2    0    0  0.20923852485E+01 -0.24819867971E+02  0.99796774425E+02  0.12528445720E+03  0.71528980901E+02 0.  0.
        -11    1    5    5    0    0  0.42651622104E+01 -0.10823539501E+02  0.10819448396E+03  0.10881813716E+03  0.00000000000E+00 0.  1.
         12    1    5    5    0    0 -0.21727769619E+01 -0.13996328469E+02 -0.83977095329E+01  0.16466320042E+02  0.00000000000E+00 0. -1.
         11    1    3    3    0    0  0.37192529810E+02 -0.60226706424E+02 -0.31128989371E+03  0.31923649285E+03  0.00000000000E+00 0. -1.
        -12    1    3    3    0    0 -0.25108507751E+02 -0.20278764537E+01 -0.25814188197E+03  0.25936804096E+03  0.00000000000E+00 0.  1.
          5    1    4    4  501    0 -0.65957777727E+02  0.74260102878E+02 -0.55658549443E+02  0.11393128564E+03  0.41800000000E+01 0. -1.
         -5    1    4    4    0  501  0.51781370420E+02  0.12814347970E+02 -0.24324384793E+02  0.58776406253E+02  0.41800000000E+01 0. -1.
</event>
<event>
11    1  0.8039394E-009  0.3983809E+03  0.7561462E-02  0.9654547E-01
         22   -1    0    0    0    0  0.00000000000E+00  0.00000000000E+00  0.30343664001E+03  0.30343664001E+03  0.00000000000E+00 0.  1.
         22   -1    0    0    0    0 -0.00000000000E+00 -0.00000000000E+00 -0.79120160130E+03  0.79120160130E+03  0.00000000000E+00 0.  1.
        -24    2    1    2    0    0 -0.74338015571E+02  0.77501927654E+02 -0.19242168528E+03  0.23463106005E+03  0.80578781466E+02 0.  0.
         25    2    1    2    0    0  0.25019238840E+03 -0.36454680268E+03 -0.19805970485E+03  0.50036564557E+03  0.12509008766E+03 0.  0.
         24    2    1    2    0    0 -0.17585437283E+03  0.28704487503E+03 -0.97283571162E+02  0.35964153570E+03  0.80984074105E+02 0.  0.
        -11    1    5    5    0    0 -0.16960889402E+03  0.21468452203E+03 -0.77676276212E+02  0.28441206869E+03  0.00000000000E+00 0.  1.
         12    1    5    5    0    0 -0.62454788107E+01  0.72360352992E+02 -0.19607294950E+02  0.75229467006E+02  0.00000000000E+00 0. -1.
         11    1    3    3    0    0 -0.87171090991E+02  0.75832661315E+02 -0.14460748107E+03  0.18509650242E+03  0.00000000000E+00 0. -1.
        -12    1    3    3    0    0  0.12833075420E+02  0.16692663386E+01 -0.47814204211E+02  0.49534557626E+02  0.00000000000E+00 0.  1.
          5    1    4    4  501    0  0.20266976570E+03 -0.30961680382E+03 -0.21169495127E+03  0.42634472429E+03  0.41800000000E+01 0.  1.
         -5    1    4    4    0  501  0.47522622699E+02 -0.54929998860E+02  0.13635246421E+02  0.74020921285E+02  0.41800000000E+01 0.  1.
</event>
<event>
11    1  0.8039394E-009  0.2184891E+03  0.7561462E-02  0.1042168E+00
         22   -1    0    0    0    0  0.00000000000E+00  0.00000000000E+00  0.14160553384E+04  0.14160553384E+04  0.00000000000E+00 0. -1.
         22   -1    0    0    0    0 -0.00000000000E+00 -0.00000000000E+00 -0.40430665793E+03  0.40430665793E+03  0.00000000000E+00 0.  1.
        -24    2    1    2    0    0 -0.18017082854E+03 -0.18528749884E+02 -0.33002026005E+03  0.38484175187E+03  0.79905944104E+02 0.  0.
         25    2    1    2    0    0  0.14545562830E+03  0.11200522025E+03  0.24258860465E+03  0.32893756117E+03  0.12509268112E+03 0.  0.
         24    2    1    2    0    0  0.34715200244E+02 -0.93476470371E+02  0.10991803358E+04  0.11065826833E+04  0.79905122312E+02 0.  0.
        -13    1    5    5    0    0  0.24403996627E+02 -0.21298522564E+02  0.10872520996E+03  0.11344757995E+03  0.00000000000E+00 0.  1.
         14    1    5    5    0    0  0.10311203617E+02 -0.72177947807E+02  0.99045512588E+03  0.99313510332E+03  0.00000000000E+00 0. -1.
         11    1    3    3    0    0 -0.13031643093E+03  0.52782541455E+01 -0.16202862307E+03  0.20799881449E+03  0.00000000000E+00 0. -1.
        -12    1    3    3    0    0 -0.49854397615E+02 -0.23807004030E+02 -0.16799163698E+03  0.17684293737E+03  0.00000000000E+00 0.  1.
          5    1    4    4  501    0  0.80005708281E+01  0.72817199374E+02  0.48869205986E+02  0.88159091147E+02  0.41800000000E+01 0.  1.
         -5    1    4    4    0  501  0.13745505747E+03  0.39188020881E+02  0.19371939867E+03  0.24077847002E+03  0.41800000000E+01 0.  1.
</event>
<event>
11    1  0.8039394E-009  0.1347734E+03  0.7561462E-02  0.1113539E+00
         22   -1    0    0    0    0  0.00000000000E+00  0.00000000000E+00  0.21217308576E+03  0.21217308576E+03  0.00000000000E+00 0.  1.
         22   -1    0    0    0    0 -0.00000000000E+00 -0.00000000000E+00 -0.26053788942E+04  0.26053788942E+04  0.00000000000E+00 0. -1.
         24    2    1    2    0    0  0.44587701936E+02  0.15237869848E+02 -0.24133069066E+04  0.24151422820E+04  0.81497001073E+02 0.  0.
         25    2    1    2    0    0  0.83102940998E+01 -0.19284122064E+02 -0.15609269024E+03  0.20111495464E+03  0.12506541762E+03 0.  0.
        -24    2    1    2    0    0 -0.52897996035E+02  0.40462522157E+01  0.17619378833E+03  0.20129474335E+03  0.81613433390E+02 0.  0.
        -11    1    3    3    0    0 -0.61032981460E+01  0.33728101364E+02 -0.55856233867E+03  0.55961301026E+03  0.00000000000E+00 0.  1.
         12    1    3    3    0    0  0.50691000081E+02 -0.18490231516E+02 -0.18547445679E+04  0.18555292717E+04  0.00000000000E+00 0. -1.
         13    1    5    5    0    0 -0.25774176689E+02  0.37649243828E+02  0.48923226397E+02  0.66897352906E+02  0.00000000000E+00 0. -1.
        -14    1    5    5    0    0 -0.27123819347E+02 -0.33602991612E+02  0.12727056194E+03  0.13439739044E+03  0.00000000000E+00 0.  1.
          5    1    4    4  501    0 -0.34399087736E+02 -0.58707725746E+02 -0.91783369630E+02  0.11433089539E+03  0.41800000000E+01 0. -1.
         -5    1    4    4    0  501  0.42709381836E+02  0.39423603682E+02 -0.64309320608E+02  0.86784059257E+02  0.41800000000E+01 0. -1.
</event>
<event>
11    1  0.8039394E-009  0.1358711E+03  0.7561462E-02  0.1112259E+00
         22   -1    0    0    0    0  0.00000000000E+00  0.00000000000E+00  0.47374742763E+02  0.47374742763E+02  0.00000000000E+00 0. -1.
         22   -1    0    0    0    0 -0.00000000000E+00 -0.00000000000E+00 -0.13731127721E+04  0.13731127721E+04  0.00000000000E+00 0. -1.
         24    2    1    2    0    0 -0.21496211417E+02 -0.75659383181E+00 -0.75427077008E+03  0.75857314303E+03  0.77757052345E+02 0.  0.
         25    2    1    2    0    0  0.58208447184E+02 -0.35391060072E+02 -0.54496299922E+03  0.56326954066E+03  0.12508858647E+03 0.  0.
        -24    2    1    2    0    0 -0.36712235767E+02  0.36147653904E+02 -0.26504260059E+02  0.98644831192E+02  0.79836619303E+02 0.  0.
        -11    1    3    3    0    0 -0.19719570970E+02 -0.11666236621E+01 -0.43224319669E+02  0.47524354818E+02  0.00000000000E+00 0.  1.
         12    1    3    3    0    0 -0.17766404472E+01  0.41002983027E+00 -0.71104645041E+03  0.71104878821E+03  0.00000000000E+00 0. -1.
         11    1    5    5    0    0 -0.36004961581E+02 -0.59139564343E+01  0.15091256069E+02  0.39485163656E+02  0.00000000000E+00 0. -1.
        -12    1    5    5    0    0 -0.70727418624E+00  0.42061610338E+02 -0.41595516128E+02  0.59159667536E+02  0.00000000000E+00 0.  1.
          5    1    4    4  501    0  0.19710939378E+02 -0.79809779910E+02 -0.28095891325E+03  0.29276868931E+03  0.41800000000E+01 0.  1.
         -5    1    4    4    0  501  0.38497507806E+02  0.44418719838E+02 -0.26400408596E+03  0.27050085136E+03  0.41800000000E+01 0.  1.
</event>
<event>
11    1  0.8039394E-009  0.1419301E+03  0.7561462E-02  0.1105422E+00
         22   -1    0    0    0    0  0.00000000000E+00  0.00000000000E+00  0.24712182952E+03  0.24712182952E+03  0.00000000000E+00 0. -1.
         22   -1    0    0    0    0 -0.00000000000E+00 -0.00000000000E+00 -0.90616880829E+03  0.90616880829E+03  0.00000000000E+00 0.  1.
         24    2    1    2    0    0 -0.55929542211E+02 -0.34441035095E+02 -0.67214607326E+03  0.67882961054E+03  0.68665841275E+02 0.  0.
         25    2    1    2    0    0  0.52947221152E+02  0.59584735297E+02 -0.19767625944E+03  0.24715177596E+03  0.12511733657E+03 0.  0.
        -24    2    1    2    0    0  0.29823210593E+01 -0.25143700202E+02  0.21077535393E+03  0.22730925130E+03  0.81253590709E+02 0.  0.
        -13    1    3    3    0    0 -0.71327689610E+02 -0.30455293007E+02 -0.59714325003E+03  0.60215880399E+03  0.00000000000E+00 0.  1.
         14    1    3    3    0    0  0.15398147399E+02 -0.39857420876E+01 -0.75002823234E+02  0.76670806546E+02  0.00000000000E+00 0. -1.
         13    1    5    5    0    0 -0.80698652931E+01 -0.53748556225E+02  0.13971911306E+03  0.14991817961E+03  0.00000000000E+00 0. -1.
        -14    1    5    5    0    0  0.11052186352E+02  0.28604856023E+02  0.71056240867E+02  0.77391071690E+02  0.00000000000E+00 0.  1.
          5    1    4    4  501    0  0.49399255974E+02 -0.30308351976E+02 -0.71555540887E+02  0.92176735253E+02  0.41800000000E+01 0.  1.
         -5    1    4    4    0  501  0.35479651780E+01  0.89893087272E+02 -0.12612071855E+03  0.15497504071E+03  0.41800000000E+01 0.  1.
</event>
<event>
11    1  0.8039394E-009  0.1599239E+03  0.7561462E-02  0.1087149E+00
         22   -1    0    0    0    0  0.00000000000E+00  0.00000000000E+00  0.56569211627E+03  0.56569211627E+03  0.00000000000E+00 0. -1.
         22   -1    0    0    0    0 -0.00000000000E+00 -0.00000000000E+00 -0.88173638224E+03  0.88173638224E+03  0.00000000000E+00 0. -1.
        -24    2    1    2    0    0  0.95737815260E+02  0.29809982567E+01 -0.67177819470E+03  0.68324585193E+03  0.79776786560E+02 0.  0.
         25    2    1    2    0    0 -0.12638027818E+03 -0.78762357867E+02 -0.14988935719E+03  0.24554078700E+03  0.12509186605E+03 0.  0.
         24    2    1    2    0    0  0.30642462917E+02  0.75781359610E+02  0.50562328593E+03  0.51864185958E+03  0.81564062163E+02 0.  0.
        -13    1    5    5    0    0  0.36992750349E+02 -0.11021216734E+01  0.20261298270E+03  0.20596528594E+03  0.00000000000E+00 0.  1.
         14    1    5    5    0    0 -0.63502874327E+01  0.76883481284E+02  0.30301030322E+03  0.31267657364E+03  0.00000000000E+00 0. -1.
         11    1    3    3    0    0  0.29464785547E+02 -0.17201316275E+01 -0.46758532208E+03  0.46851591848E+03  0.00000000000E+00 0. -1.
        -12    1    3    3    0    0  0.66273029713E+02  0.47011298842E+01 -0.20419287262E+03  0.21472993345E+03  0.00000000000E+00 0.  1.
          5    1    4    4  501    0 -0.20833203157E+02 -0.85395322264E+02 -0.78045490257E+02  0.11762208282E+03  0.41800000000E+01 0. -1.
         -5    1    4    4    0  501 -0.10554707502E+03  0.66329643969E+01 -0.71843866933E+02  0.12791870418E+03  0.41800000000E+01 0. -1.
</event>
<event>
11    1  0.8039394E-009  0.1386938E+03  0.7561462E-02  0.1109026E+00
         22   -1    0    0    0    0  0.00000000000E+00  0.00000000000E+00  0.10639136856E+04  0.10639136856E+04  0.00000000000E+00 0.  1.
         22   -1    0    0    0    0 -0.00000000000E+00 -0.00000000000E+00 -0.21133337338E+03  0.21133337338E+03  0.00000000000E+00 0. -1.
         24    2    1    2    0    0  0.13415372114E+02 -0.56353823719E+02 -0.16500148429E+03  0.19296167987E+03  0.81565890077E+02 0.  0.
         25    2    1    2    0    0 -0.41578619347E+02  0.79869396673E+02  0.16754073635E+03  0.22765571694E+03  0.12509726219E+03 0.  0.
        -24    2    1    2    0    0  0.28163247233E+02 -0.23515572954E+02  0.85004106015E+03  0.85462966216E+03  0.80473006919E+02 0.  0.
        -13    1    3    3    0    0 -0.24919722863E+02 -0.21752695635E+02 -0.11996178481E+03  0.12443874866E+03  0.00000000000E+00 0.  1.
         14    1    3    3    0    0  0.38335094977E+02 -0.34601128084E+02 -0.45039699481E+02  0.68522931205E+02  0.00000000000E+00 0. -1.
         13    1    5    5    0    0 -0.95328790187E+01 -0.52758259296E+01  0.15001156170E+02  0.18540356201E+02  0.00000000000E+00 0. -1.
        -14    1    5    5    0    0  0.37696126252E+02 -0.18239747024E+02  0.83503990398E+03  0.83608930596E+03  0.00000000000E+00 0.  1.
          5    1    4    4  501    0  0.22632025499E+02 -0.23166821594E+02  0.35616602865E+02  0.48321061666E+02  0.41800000000E+01 0. -1.
         -5    1    4    4    0  501 -0.64210644846E+02  0.10303621827E+03  0.13192413348E+03  0.17933465527E+03  0.41800000000E+01 0. -1.
</event>
<event>
11    1  0.8039394E-009  0.1592601E+03  0.7561462E-02  0.1087775E+00
         22   -1    0    0    0    0  0.00000000000E+00  0.00000000000E+00  0.38941901296E+03  0.38941901296E+03  0.00000000000E+00 0.  1.
         22   -1    0    0    0    0 -0.00000000000E+00 -0.00000000000E+00 -0.63035193814E+03  0.63035193814E+03  0.00000000000E+00 0. -1.
         24    2    1    2    0    0 -0.18172479737E+02 -0.54158445241E+01 -0.50260064735E+03  0.51280583423E+03  0.10001421155E+03 0.  0.
         25    2    1    2    0    0  0.59742881706E+02 -0.83625955673E+02 -0.50711747746E+02  0.16965308990E+03  0.12509187495E+03 0.  0.
        -24    2    1    2    0    0 -0.41570401969E+02  0.89041800197E+02  0.31237946992E+03  0.33731202696E+03  0.80882197069E+02 0.  0.
        -13    1    3    3    0    0  0.15194786436E+02 -0.40014235070E+02 -0.12428357157E+03  0.13144742943E+03  0.00000000000E+00 0.  1.
         14    1    3    3    0    0 -0.33367266173E+02  0.34598390546E+02 -0.37831707578E+03  0.38135840480E+03  0.00000000000E+00 0. -1.
         11    1    5    5    0    0  0.31796440438E+01 -0.99842463485E+01  0.56554277601E+01  0.11907106052E+02  0.00000000000E+00 0. -1.
        -12    1    5    5    0    0 -0.44750046013E+02  0.99026046545E+02  0.30672404216E+03  0.32540492091E+03  0.00000000000E+00 0.  1.
          5    1    4    4  501    0  0.72314871797E+02 -0.20241854088E+02  0.15771310310E+02  0.76846470113E+02  0.41800000000E+01 0.  1.
         -5    1    4    4    0  501 -0.12571990092E+02 -0.63384101585E+02 -0.66483058057E+02  0.92806619792E+02  0.41800000000E+01 0.  1.
</event>
<event>
11    1  0.8039394E-009  0.1284623E+03  0.7561462E-02  0.1121173E+00
         22   -1    0    0    0    0  0.00000000000E+00  0.00000000000E+00  0.23902718799E+04  0.23902718799E+04  0.00000000000E+00 0.  1.
         22   -1    0    0    0    0 -0.00000000000E+00 -0.00000000000E+00 -0.70032977900E+02  0.70032977900E+02  0.00000000000E+00 0.  1.
         24    2    1    2    0    0 -0.14384269848E+02  0.23607462993E+02 -0.25866700424E+02  0.91693124076E+02  0.83512413952E+02 0.  0.
         25    2    1    2    0    0  0.15121270986E+02 -0.49928005210E+02  0.43510030246E+03  0.45572120169E+03  0.12509229366E+03 0.  0.
        -24    2    1    2    0    0 -0.73700113810E+00  0.26320542217E+02  0.19110053000E+04  0.19128905320E+04  0.80719371409E+02 0.  0.
        -13    1    3    3    0    0 -0.20752284696E+02  0.53050888934E+02 -0.22998237331E+02  0.61432670927E+02  0.00000000000E+00 0.  1.
         14    1    3    3    0    0  0.63680148486E+01 -0.29443425942E+02 -0.28684630934E+01  0.30260453150E+02  0.00000000000E+00 0. -1.
         11    1    5    5    0    0 -0.27910103370E+02  0.80846533650E+01  0.27002163785E+03  0.27158059650E+03  0.00000000000E+00 0. -1.
        -12    1    5    5    0    0  0.27173102232E+02  0.18235888852E+02  0.16409836621E+04  0.16413099355E+04  0.00000000000E+00 0.  1.
          5    1    4    4  501    0  0.58423609152E+02 -0.59995605968E+02  0.20783743639E+03  0.22411305898E+03  0.41800000000E+01 0. -1.
         -5    1    4    4    0  501 -0.43302338166E+02  0.10067600759E+02  0.22726286607E+03  0.23160814271E+03  0.41800000000E+01 0. -1.
</event>
<event>
11    1  0.8039394E-009  0.1434480E+03  0.7561462E-02  0.1103768E+00
         22   -1    0    0    0    0  0.00000000000E+00  0.00000000000E+00  0.16148943392E+04  0.16148943392E+04  0.00000000000E+00 0. -1.
         22   -1    0    0    0    0 -0.00000000000E+00 -0.00000000000E+00 -0.60702747424E+03  0.60702747424E+03  0.00000000000E+00 0. -1.
        -24    2    1    2    0    0 -0.31419052586E+02 -0.53823527227E+02 -0.53696304309E+03  0.54657790226E+03  0.80832942819E+02 0.  0.
         25    2    1    2    0    0 -0.35493539131E+02  0.28343072886E+02  0.64755509166E+01  0.13323788181E+03  0.12508908541E+03 0.  0.
         24    2    1    2    0    0  0.66912591718E+02  0.25480454341E+02  0.15383543572E+04  0.15421060294E+04  0.80189333899E+02 0.  0.
        -13    1    5    5    0    0  0.30853781705E+02 -0.27943670164E+02  0.73013277955E+03  0.73131845342E+03  0.00000000000E+00 0.  1.
         14    1    5    5    0    0  0.36058810013E+02  0.53424124506E+02  0.80822157761E+03  0.81078757599E+03  0.00000000000E+00 0. -1.
         11    1    3    3    0    0  0.23518721974E+01 -0.64930407283E+02 -0.39006996650E+03  0.39544414000E+03  0.00000000000E+00 0. -1.
        -12    1    3    3    0    0 -0.33770924784E+02  0.11106880056E+02 -0.14689307659E+03  0.15113376226E+03  0.00000000000E+00 0.  1.
          5    1    4    4  501    0  0.43495673413E+02  0.27328526191E+02  0.14992012442E+02  0.53674526421E+02  0.41800000000E+01 0.  1.
         -5    1    4    4    0  501 -0.78989212545E+02  0.10145466942E+01 -0.85164615250E+01  0.79563355386E+02  0.41800000000E+01 0.  1.
</event>
<event>
11    1  0.8039394E-009  0.1345669E+03  0.7561462E-02  0.1113782E+00
         22   -1    0    0    0    0  0.00000000000E+00  0.00000000000E+00  0.14708257913E+04  0.14708257913E+04  0.00000000000E+00 0. -1.
         22   -1    0    0    0    0 -0.00000000000E+00 -0.00000000000E+00 -0.68711124857E+02  0.68711124857E+02  0.00000000000E+00 0. -1.
        -24    2    1    2    0    0 -0.27162515446E+02 -0.39522162906E+02 -0.21310272239E+02  0.93526503161E+02  0.77416248195E+02 0.  0.
         25    2    1    2    0    0  0.31354206957E+02  0.72768537694E+02  0.60932111838E+03  0.62705502084E+03  0.12508967779E+03 0.  0.
         24    2    1    2    0    0 -0.41916915114E+01 -0.33246374788E+02  0.81410382030E+03  0.81895539215E+03  0.82462187636E+02 0.  0.
        -13    1    5    5    0    0  0.31841772336E+02 -0.12399820732E+02  0.16410652828E+03  0.16762639005E+03  0.00000000000E+00 0.  1.
         14    1    5    5    0    0 -0.36033463847E+02 -0.20846554056E+02  0.64999729202E+03  0.65132900210E+03  0.00000000000E+00 0. -1.
         11    1    3    3    0    0 -0.30166987979E+02 -0.42023391085E+02 -0.45578755522E+02  0.68945163115E+02  0.00000000000E+00 0. -1.
        -12    1    3    3    0    0  0.30044725333E+01  0.25012281792E+01  0.24268483283E+02  0.24581340046E+02  0.00000000000E+00 0.  1.
          5    1    4    4  501    0  0.13852137784E+02 -0.28868853462E+02  0.60168707174E+02  0.68286441878E+02  0.41800000000E+01 0. -1.
         -5    1    4    4    0  501  0.17502069174E+02  0.10163739116E+03  0.54915241121E+03  0.55876857897E+03  0.41800000000E+01 0. -1.
</event>
<event>
11    1  0.8039394E-009  0.1311956E+03  0.7561462E-02  0.1117809E+00
         22   -1    0    0    0    0  0.00000000000E+00  0.00000000000E+00  0.45097741227E+02  0.45097741227E+02  0.00000000000E+00 0. -1.
         22   -1    0    0    0    0 -0.00000000000E+00 -0.00000000000E+00 -0.11089439109E+04  0.11089439109E+04  0.00000000000E+00 0.  1.
         24    2    1    2    0    0  0.32169873944E+02 -0.31593107099E+02 -0.63223882710E+03  0.63878822401E+03  0.79318569259E+02 0.  0.
         25    2    1    2    0    0 -0.19671612452E+02  0.12856142829E+02 -0.40656653969E+03  0.42602387728E+03  0.12509092723E+03 0.  0.
        -24    2    1    2    0    0 -0.12498261491E+02  0.18736964270E+02 -0.25040802877E+02  0.89229550833E+02  0.82629235521E+02 0.  0.
        -11    1    3    3    0    0  0.42247629037E+02  0.14027531795E+02 -0.30613998019E+03  0.30935953400E+03  0.00000000000E+00 0.  1.
         12    1    3    3    0    0 -0.10077755093E+02 -0.45620638895E+02 -0.32609884692E+03  0.32942869001E+03  0.00000000000E+00 0. -1.
         11    1    5    5    0    0 -0.30996453049E+02  0.37593441116E+02 -0.36051604438E+02  0.60611592118E+02  0.00000000000E+00 0. -1.
        -12    1    5    5    0    0  0.18498191557E+02 -0.18856476846E+02  0.11010801561E+02  0.28617958714E+02  0.00000000000E+00 0.  1.
          5    1    4    4  501    0 -0.56484937479E+02  0.17303275425E+02 -0.36656858312E+03  0.37132189544E+03  0.41800000000E+01 0. -1.
         -5    1    4    4    0  501  0.36813325027E+02 -0.44471325963E+01 -0.39997956570E+02  0.54701981844E+02  0.41800000000E+01 0. -1.
</event>
<event>
11    1  0.8039394E-009  0.6063668E+03  0.7561462E-02  0.9182944E-01
         22   -1    0    0    0    0  0.00000000000E+00  0.00000000000E+00  0.10355143958E+04  0.10355143958E+04  0.00000000000E+00 0.  1.
         22   -1    0    0    0    0 -0.00000000000E+00 -0.00000000000E+00 -0.98385026606E+03  0.98385026606E+03  0.00000000000E+00 0.  1.
         24    2    1    2    0    0  0.52998558547E+03  0.33847880405E+03 -0.30565263713E+03  0.70383845030E+03  0.80699491612E+02 0.  0.
         25    2    1    2    0    0 -0.30227435664E+03 -0.50664241017E+03 -0.24063813411E+03  0.64931550196E+03  0.12509033151E+03 0.  0.
        -24    2    1    2    0    0 -0.22771122883E+03  0.16816360612E+03  0.59795490097E+03  0.66621070959E+03  0.78455361967E+02 0.  0.
        -13    1    3    3    0    0  0.47766316473E+03  0.32408398890E+03 -0.29608034103E+03  0.64873422843E+03  0.00000000000E+00 0.  1.
         14    1    3    3    0    0  0.52322420739E+02  0.14394815150E+02 -0.95722961062E+01  0.55104221870E+02  0.00000000000E+00 0. -1.
         11    1    5    5    0    0 -0.21620764876E+03  0.12686654363E+03  0.50175582454E+03  0.56089194568E+03  0.00000000000E+00 0. -1.
        -12    1    5    5    0    0 -0.11503580071E+02  0.41297062489E+02  0.96199076432E+02  0.10531876391E+03  0.00000000000E+00 0.  1.
          5    1    4    4  501    0 -0.92378359279E+02 -0.18431283783E+03 -0.23372925191E+02  0.20753011705E+03  0.41800000000E+01 0. -1.
         -5    1    4    4    0  501 -0.20989599736E+03 -0.32232957233E+03 -0.21726520892E+03  0.44178538490E+03  0.41800000000E+01 0. -1.
</event>
<event>
11    1  0.8039394E-009  0.1364567E+03  0.7561462E-02  0.1111581E+00
         22   -1    0    0    0    0  0.00000000000E+00  0.00000000000E+00  0.63495715586E+03  0.63495715586E+03  0.00000000000E+00 0. -1.
         22   -1    0    0    0    0 -0.00000000000E+00 -0.00000000000E+00 -0.34335140407E+03  0.34335140407E+03  0.00000000000E+00 0.  1.
        -24    2    1    2    0    0 -0.24202645362E+02  0.29432887992E+01 -0.29237348191E+03  0.30395689744E+03  0.79455091639E+02 0.  0.
         25    2    1    2    0    0  0.37028687913E+02 -0.54957442090E+02  0.83029691844E+02  0.16411668853E+03  0.12509561766E+03 0.  0.
         24    2    1    2    0    0 -0.12826042551E+02  0.52014153291E+02  0.50094954185E+03  0.51023497396E+03  0.80742217330E+02 0.  0.
        -13    1    5    5    0    0 -0.26791857633E+02 -0.12838264980E+02  0.12540067135E+03  0.12887184742E+03  0.00000000000E+00 0.  1.
         14    1    5    5    0    0  0.13965815081E+02  0.64852418270E+02  0.37554887051E+03  0.38136312654E+03  0.00000000000E+00 0. -1.
         13    1    3    3    0    0  0.20736760094E+02 -0.12512219862E+02 -0.37154695114E+02  0.44351327309E+02  0.00000000000E+00 0. -1.
        -14    1    3    3    0    0 -0.44939405456E+02  0.15455508661E+02 -0.25521878679E+03  0.25960557013E+03  0.00000000000E+00 0.  1.
          5    1    4    4  501    0  0.32345103303E+02  0.21501932807E+02 -0.13031931818E+02  0.41180607925E+02  0.41800000000E+01 0.  1.
         -5    1    4    4    0  501  0.46835846102E+01 -0.76459374897E+02  0.96061623662E+02  0.12293608061E+03  0.41800000000E+01 0.  1.
</event>
<event>
11    1  0.8039394E-009  0.1407097E+03  0.7561462E-02  0.1106769E+00
         22   -1    0    0    0    0  0.00000000000E+00  0.00000000000E+00  0.47357099506E+03  0.47357099506E+03  0.00000000000E+00 0.  1.
         22   -1    0    0    0    0 -0.00000000000E+00 -0.00000000000E+00 -0.11983030556E+04  0.11983030556E+04  0.00000000000E+00 0.  1.
        -24    2    1    2    0    0  0.59244649010E+02 -0.22969954342E+02 -0.74878908044E+03  0.75569697725E+03  0.79720055199E+02 0.  0.
         25    2    1    2    0    0 -0.72182191689E+02 -0.42502911887E+01 -0.43025816603E+03  0.45387403313E+03  0.12510481501E+03 0.  0.
         24    2    1    2    0    0  0.12937542679E+02  0.27220245530E+02  0.45431518596E+03  0.46230304026E+03  0.80084274754E+02 0.  0.
        -11    1    5    5    0    0 -0.29634864713E+02  0.49115167155E+01  0.27578970043E+03  0.27742081224E+03  0.00000000000E+00 0.  1.
         12    1    5    5    0    0  0.42572407393E+02  0.22308728815E+02  0.17852548553E+03  0.18488222802E+03  0.00000000000E+00 0. -1.
         13    1    3    3    0    0 -0.12689649200E+02 -0.25979256622E+02 -0.26645252183E+03  0.26801659531E+03  0.00000000000E+00 0. -1.
        -14    1    3    3    0    0  0.71934298210E+02  0.30093022803E+01 -0.48233655861E+03  0.48768038194E+03  0.00000000000E+00 0.  1.
          5    1    4    4  501    0 -0.10766631507E+03 -0.99553713563E+01 -0.31463397323E+03  0.33272083543E+03  0.41800000000E+01 0.  1.
         -5    1    4    4    0  501  0.35484123378E+02  0.57050801677E+01 -0.11562419281E+03  0.12115319770E+03  0.41800000000E+01 0.  1.
</event>
<event>
11    1  0.8039394E-009  0.1408858E+03  0.7561462E-02  0.1106573E+00
         22   -1    0    0    0    0  0.00000000000E+00  0.00000000000E+00  0.35551423884E+03  0.35551423884E+03  0.00000000000E+00 0.  1.
         22   -1    0    0    0    0 -0.00000000000E+00 -0.00000000000E+00 -0.22474257337E+03  0.22474257337E+03  0.00000000000E+00 0. -1.
         24    2    1    2    0    0  0.44804921528E+02  0.48463337447E+02 -0.13622900745E+03  0.17257616620E+03  0.82873485517E+02 0.  0.
         25    2    1    2    0    0 -0.23202919445E+02 -0.58919490348E+02  0.13517758079E+02  0.14085480505E+03  0.12508982575E+03 0.  0.
        -24    2    1    2    0    0 -0.21602002082E+02  0.10456152901E+02  0.25348291483E+03  0.26682584096E+03  0.79790122621E+02 0.  0.
        -13    1    3    3    0    0  0.67550985824E+00  0.23776331552E+02  0.34420857688E+01  0.24033689065E+02  0.00000000000E+00 0.  1.
         14    1    3    3    0    0  0.44129411669E+02  0.24687005896E+02 -0.13967109321E+03  0.14854247714E+03  0.00000000000E+00 0. -1.
         13    1    5    5    0    0  0.23964589448E+02  0.21878389325E+02  0.65978644957E+02  0.73526505815E+02  0.00000000000E+00 0. -1.
        -14    1    5    5    0    0 -0.45566591530E+02 -0.11422236424E+02  0.18750426987E+03  0.19329933515E+03  0.00000000000E+00 0.  1.
          5    1    4    4  501    0  0.93849910304E+01 -0.29125836551E+02  0.65563982920E+02  0.72474137924E+02  0.41800000000E+01 0. -1.
         -5    1    4    4    0  501 -0.32587910476E+02 -0.29793653798E+02 -0.52046224841E+02  0.68380667122E+02  0.41800000000E+01 0. -1.
</event>
<event>
11    1  0.8039394E-009  0.1556512E+03  0.7561462E-02  0.1091240E+00
         22   -1    0    0    0    0  0.00000000000E+00  0.00000000000E+00  0.11155883249E+04  0.11155883249E+04  0.00000000000E+00 0.  1.
         22   -1    0    0    0    0 -0.00000000000E+00 -0.00000000000E+00 -0.58967903368E+03  0.58967903368E+03  0.00000000000E+00 0. -1.
        -24    2    1    2    0    0 -0.63530852011E+01  0.46467729893E+02 -0.53401338319E+03  0.54218248578E+03  0.81190780520E+02 0.  0.
         25    2    1    2    0    0  0.71165751352E+02 -0.10877263568E+03  0.12241783896E+03  0.21801367374E+03  0.12509110361E+03 0.  0.
         24    2    1    2    0    0 -0.64812666151E+02  0.62304905791E+02  0.93750483543E+03  0.94507119904E+03  0.78496317203E+02 0.  0.
        -11    1    5    5    0    0 -0.61190453116E+02  0.59113661291E+02  0.93621689400E+03  0.94007487420E+03  0.00000000000E+00 0.  1.
         12    1    5    5    0    0 -0.36222130349E+01  0.31912444998E+01  0.12879414368E+01  0.49963248366E+01  0.00000000000E+00 0. -1.
         13    1    3    3    0    0 -0.65855383458E+01  0.67688820043E+02 -0.46595729949E+03  0.47089420322E+03  0.00000000000E+00 0. -1.
        -14    1    3    3    0    0  0.23245314466E+00 -0.21221090149E+02 -0.68056083699E+02  0.71288282558E+02  0.00000000000E+00 0.  1.
          5    1    4    4  501    0  0.84728155916E+01 -0.13860926614E+02 -0.26019589650E+02  0.30958122297E+02  0.41800000000E+01 0.  1.
         -5    1    4    4    0  501  0.62692935761E+02 -0.94911709070E+02  0.14843742861E+03  0.18705555144E+03  0.41800000000E+01 0.  1.
</event>
<event>
11    1  0.9561614E-009  0.1686717E+03  0.7561462E-02  0.1079193E+00
         22   -1    0    0    0    0  0.00000000000E+00  0.00000000000E+00  0.78275014824E+03  0.78275014824E+03  0.00000000000E+00 0.  1.
         22   -1    0    0    0    0 -0.00000000000E+00 -0.00000000000E+00 -0.10535919876E+04  0.10535919876E+04  0.00000000000E+00 0. -1.
        -24    2    1    2    0    0  0.44569880436E+02  0.34359270119E+02 -0.85497441969E+03  0.86055431969E+03  0.80034024748E+02 0.  0.
         25    2    1    2    0    0 -0.10354247720E+03 -0.12885868736E+03 -0.13255176792E+03  0.24605441458E+03  0.12508875995E+03 0.  0.
         24    2    1    2    0    0  0.58972596764E+02  0.94499417245E+02  0.71668434823E+03  0.72973340158E+03  0.80414397608E+02 0.  0.
        -11    1    5    5    0    0  0.53966926793E+02  0.16270515984E+02  0.37211684649E+03  0.37636166957E+03  0.00000000000E+00 0.  1.
         12    1    5    5    0    0  0.50056699718E+01  0.78228901261E+02  0.34456750174E+03  0.35337173200E+03  0.00000000000E+00 0. -1.
         13    1    3    3    0    0  0.40953936274E+02  0.32994695474E+02 -0.85507241400E+03  0.85668822100E+03  0.00000000000E+00 0. -1.
        -14    1    3    3    0    0  0.36159441625E+01  0.13645746446E+01  0.97994304982E-01  0.38660986835E+01  0.00000000000E+00 0.  1.
          5    1    4    4  501    0 -0.12467433664E+02 -0.64736239604E+02 -0.11583299338E+03  0.13334531254E+03  0.41800000000E+01 0.  1.
         -5    1    4    4    0  501 -0.91075043537E+02 -0.64122447759E+02 -0.16718774534E+02  0.11270910204E+03  0.41800000000E+01 0.  1.
</event>
<event>
11    1  0.8039394E-009  0.1365773E+03  0.7561462E-02  0.1111442E+00
         22   -1    0    0    0    0  0.00000000000E+00  0.00000000000E+00  0.18532997917E+03  0.18532997917E+03  0.00000000000E+00 0.  1.
         22   -1    0    0    0    0 -0.00000000000E+00 -0.00000000000E+00 -0.26707100424E+03  0.26707100424E+03  0.00000000000E+00 0.  1.
         24    2    1    2    0    0 -0.13891226383E+01 -0.53031477782E+02 -0.18029406331E+03  0.20455194426E+03  0.80754450891E+02 0.  0.
         25    2    1    2    0    0  0.16670591868E+02  0.68354627278E+02  0.43567105757E+02  0.14998632083E+03  0.12509012762E+03 0.  0.
        -24    2    1    2    0    0 -0.15281469229E+02 -0.15323149495E+02  0.54985932482E+02  0.97862718325E+02  0.78008567830E+02 0.  0.
        -11    1    3    3    0    0 -0.77756976371E+01 -0.31485496633E+02 -0.17913754924E+03  0.18204960730E+03  0.00000000000E+00 0.  1.
         12    1    3    3    0    0  0.63865749988E+01 -0.21545981149E+02 -0.11565140741E+01  0.22502336961E+02  0.00000000000E+00 0. -1.
         11    1    5    5    0    0  0.19008581551E+02 -0.80322698962E+01 -0.10820650801E+02  0.23300858697E+02  0.00000000000E+00 0. -1.
        -12    1    5    5    0    0 -0.34290050780E+02 -0.72908795991E+01  0.65806583283E+02  0.74561859628E+02  0.00000000000E+00 0.  1.
          5    1    4    4  501    0  0.43288263398E+02 -0.14501781652E+02 -0.11048438198E+02  0.47156291264E+02  0.41800000000E+01 0. -1.
         -5    1    4    4    0  501 -0.26617671530E+02  0.82856408930E+02  0.54615543955E+02  0.10283002956E+03  0.41800000000E+01 0. -1.
</event>
<event>
11    1  0.8039394E-009  0.3366483E+03  0.7561462E-02  0.9857727E-01
         22   -1    0    0    0    0  0.00000000000E+00  0.00000000000E+00  0.39038934919E+03  0.39038934919E+03  0.00000000000E+00 0. -1.
         22   -1    0    0    0    0 -0.00000000000E+00 -0.00000000000E+00 -0.12438192935E+04  0.12438192935E+04  0.00000000000E+00 0. -1.
        -24    2    1    2    0    0 -0.40046777366E+01 -0.31248695740E+02 -0.80576797812E+03  0.81030832455E+03  0.79655683090E+02 0.  0.
         25    2    1    2    0    0  0.11521294318E+03 -0.26663239913E+03 -0.27961057957E+03  0.42213349893E+03  0.12509099154E+03 0.  0.
         24    2    1    2    0    0 -0.11120826544E+03  0.29788109487E+03  0.23194861339E+03  0.40176681921E+03  0.80721699547E+02 0.  0.
        -11    1    5    5    0    0 -0.54485479918E+01  0.39958305587E+02  0.66003859303E+02  0.77348964463E+02  0.00000000000E+00 0.  1.
         12    1    5    5    0    0 -0.10575971745E+03  0.25792278929E+03  0.16594475408E+03  0.32441785475E+03  0.00000000000E+00 0. -1.
         11    1    3    3    0    0 -0.20311832746E+02  0.19836016276E+02 -0.17752042247E+03  0.17977635686E+03  0.00000000000E+00 0. -1.
        -12    1    3    3    0    0  0.16307155010E+02 -0.51084712016E+02 -0.62824755564E+03  0.63053196769E+03  0.00000000000E+00 0.  1.
          5    1    4    4  501    0  0.10996087812E+03 -0.12270833118E+03 -0.19389996611E+03  0.25448653896E+03  0.41800000000E+01 0. -1.
         -5    1    4    4    0  501  0.52520650578E+01 -0.14392406796E+03 -0.85710613466E+02  0.16764695996E+03  0.41800000000E+01 0. -1.
</event>
<event>
11    1  0.8039394E-009  0.1494081E+03  0.7561462E-02  0.1097485E+00
         22   -1    0    0    0    0  0.00000000000E+00  0.00000000000E+00  0.18071955903E+03  0.18071955903E+03  0.00000000000E+00 0.  1.
         22   -1    0    0    0    0 -0.00000000000E+00 -0.00000000000E+00 -0.10979166217E+04  0.10979166217E+04  0.00000000000E+00 0.  1.
         24    2    1    2    0    0  0.30803379530E+02 -0.26725896419E+02 -0.56915600350E+03  0.57614440950E+03  0.79628528484E+02 0.  0.
         25    2    1    2    0    0 -0.24958589893E+02  0.10736018220E+03 -0.49329824814E+03  0.52071076813E+03  0.12508957789E+03 0.  0.
        -24    2    1    2    0    0 -0.58447896375E+01 -0.80634285782E+02  0.14525718895E+03  0.18178100313E+03  0.73543405857E+02 0.  0.
        -11    1    3    3    0    0  0.18331300294E+02 -0.28308629415E+02 -0.55890821498E+03  0.55992482339E+03  0.00000000000E+00 0.  1.
         12    1    3    3    0    0  0.12472079236E+02  0.15827329960E+01 -0.10247788519E+02  0.16219586115E+02  0.00000000000E+00 0. -1.
         11    1    5    5    0    0 -0.30715821893E+02 -0.31102920184E+02  0.27531411751E+02  0.51660739364E+02  0.00000000000E+00 0. -1.
        -12    1    5    5    0    0  0.24871032256E+02 -0.49531365598E+02  0.11772577720E+03  0.13012026376E+03  0.00000000000E+00 0.  1.
          5    1    4    4  501    0  0.44958384689E+02  0.49826941174E+02 -0.13104539373E+03  0.14729001337E+03  0.41800000000E+01 0.  1.
         -5    1    4    4    0  501 -0.69916974582E+02  0.57533241027E+02 -0.36225285441E+03  0.37342075476E+03  0.41800000000E+01 0.  1.
</event>
<event>
11    1  0.8039394E-009  0.5119433E+03  0.7561462E-02  0.9367223E-01
         22   -1    0    0    0    0  0.00000000000E+00  0.00000000000E+00  0.59833256370E+03  0.59833256370E+03  0.00000000000E+00 0. -1.
         22   -1    0    0    0    0 -0.00000000000E+00 -0.00000000000E+00 -0.12012698375E+04  0.12012698375E+04  0.00000000000E+00 0. -1.
         24    2    1    2    0    0  0.79553757742E+02  0.24373430833E+02 -0.32003822706E+03  0.34177135397E+03  0.86373185125E+02 0.  0.
         25    2    1    2    0    0  0.20687689949E+03  0.39261458141E+03 -0.67166144918E+03  0.81469022918E+03  0.12508719410E+03 0.  0.
        -24    2    1    2    0    0 -0.28643065724E+03 -0.41698801224E+03  0.38876240248E+03  0.64314081801E+03  0.81070231614E+02 0.  0.
        -11    1    3    3    0    0  0.22595808216E+02  0.36488864486E+02 -0.23384469328E+03  0.23775060116E+03  0.00000000000E+00 0.  1.
         12    1    3    3    0    0  0.56957949526E+02 -0.12115433653E+02 -0.86193533787E+02  0.10402075280E+03  0.00000000000E+00 0. -1.
         13    1    5    5    0    0 -0.21191606480E+03 -0.28348513092E+03  0.31311149983E+03  0.47255798511E+03  0.00000000000E+00 0. -1.
        -14    1    5    5    0    0 -0.74514592440E+02 -0.13350288132E+03  0.75650902656E+02  0.17058283290E+03  0.00000000000E+00 0.  1.
          5    1    4    4  501    0  0.67617260097E+02  0.44252211609E+02 -0.16971494878E+03  0.18801858508E+03  0.41800000000E+01 0.  1.
         -5    1    4    4    0  501  0.13925963940E+03  0.34836236980E+03 -0.50194650040E+03  0.62667164410E+03  0.41800000000E+01 0.  1.
</event>
<event>
11    1  0.8039394E-009  0.1604164E+03  0.7561462E-02  0.1086686E+00
         22   -1    0    0    0    0  0.00000000000E+00  0.00000000000E+00  0.76003949959E+03  0.76003949959E+03  0.00000000000E+00 0.  1.
         22   -1    0    0    0    0 -0.00000000000E+00 -0.00000000000E+00 -0.29936774668E+04  0.29936774668E+04  0.00000000000E+00 0. -1.
         24    2    1    2    0    0 -0.98223373937E+02  0.20742786728E+02 -0.29587335108E+04  0.29615244250E+04  0.80279745076E+02 0.  0.
         25    2    1    2    0    0  0.92135311895E+02 -0.83644981270E+02  0.25398029573E+03  0.30925660900E+03  0.12509300941E+03 0.  0.
        -24    2    1    2    0    0  0.60880620425E+01  0.62902194542E+02  0.47111524785E+03  0.48293593241E+03  0.85345108105E+02 0.  0.
        -11    1    3    3    0    0 -0.20387495136E+02  0.42455620916E+02 -0.12353901630E+04  0.12362875816E+04  0.00000000000E+00 0.  1.
         12    1    3    3    0    0 -0.77835878802E+02 -0.21712834188E+02 -0.17233433478E+04  0.17252368433E+04  0.00000000000E+00 0. -1.
         11    1    5    5    0    0  0.36952864072E+02  0.90186428770E+01  0.10691709069E+03  0.11348177987E+03  0.00000000000E+00 0. -1.
        -12    1    5    5    0    0 -0.30864802029E+02  0.53883551665E+02  0.36419815717E+03  0.36945415254E+03  0.00000000000E+00 0.  1.
          5    1    4    4  501    0 -0.26530970390E+02 -0.15297075516E+02  0.16368008977E+02  0.34975377440E+02  0.41800000000E+01 0. -1.
         -5    1    4    4    0  501  0.11866628229E+03 -0.68347905754E+02  0.23761228675E+03  0.27428123156E+03  0.41800000000E+01 0. -1.
</event>
<event>
11    1  0.8039394E-009  0.2374468E+03  0.7561462E-02  0.1030807E+00
         22   -1    0    0    0    0  0.00000000000E+00  0.00000000000E+00  0.13996363302E+03  0.13996363302E+03  0.00000000000E+00 0. -1.
         22   -1    0    0    0    0 -0.00000000000E+00 -0.00000000000E+00 -0.86014511901E+03  0.86014511901E+03  0.00000000000E+00 0. -1.
         24    2    1    2    0    0  0.29299248985E+02 -0.32041683783E+02 -0.46022141659E+03  0.46915980614E+03  0.80137730959E+02 0.  0.
         25    2    1    2    0    0 -0.13306428663E+03  0.18471823708E+03 -0.16591569247E+03  0.30822440079E+03  0.12508929909E+03 0.  0.
        -24    2    1    2    0    0  0.10376503764E+03 -0.15267655330E+03 -0.94044376931E+02  0.22272454510E+03  0.81759190263E+02 0.  0.
        -13    1    3    3    0    0  0.42904283228E+02 -0.20217198830E+02 -0.12890814892E+03  0.13735655611E+03  0.00000000000E+00 0.  1.
         14    1    3    3    0    0 -0.13605034243E+02 -0.11824484953E+02 -0.33131326767E+03  0.33180325003E+03  0.00000000000E+00 0. -1.
         11    1    5    5    0    0  0.10332655614E+03 -0.15803536026E+03 -0.75389738360E+02  0.20331051362E+03  0.00000000000E+00 0. -1.
        -12    1    5    5    0    0  0.43848149749E+00  0.53588069625E+01 -0.18654638571E+02  0.19414031480E+02  0.00000000000E+00 0.  1.
          5    1    4    4  501    0  0.57519013225E+01  0.67773920340E+02 -0.86340157197E+02  0.10999310793E+03  0.41800000000E+01 0. -1.
         -5    1    4    4    0  501 -0.13881618795E+03  0.11694431674E+03 -0.79575535274E+02  0.19823129286E+03  0.41800000000E+01 0. -1.
</event>
<event>
11    1  0.1127759E-008  0.1580234E+03  0.7561462E-02  0.1088951E+00
         22   -1    0    0    0    0  0.00000000000E+00  0.00000000000E+00  0.87653068643E+03  0.87653068643E+03  0.00000000000E+00 0.  1.
         22   -1    0    0    0    0 -0.00000000000E+00 -0.00000000000E+00 -0.84919914063E+03  0.84919914063E+03  0.00000000000E+00 0. -1.
         24    2    1    2    0    0  0.33312455279E+02 -0.62507605967E+01 -0.52593702146E+03  0.53324414245E+03  0.81183577348E+02 0.  0.
         25    2    1    2    0    0 -0.12252227512E+03 -0.29588878014E+02 -0.28988633106E+03  0.33995437072E+03  0.12509068566E+03 0.  0.
        -24    2    1    2    0    0  0.89209819836E+02  0.35839638611E+02  0.84315489832E+03  0.85253131389E+03  0.81587909356E+02 0.  0.
        -11    1    3    3    0    0 -0.22440478110E+01 -0.43803829451E+01  0.10691647387E+01  0.50365284236E+01  0.00000000000E+00 0.  1.
         12    1    3    3    0    0  0.35556503090E+02 -0.18703776516E+01 -0.52700618620E+03  0.52820761403E+03  0.00000000000E+00 0. -1.
         11    1    5    5    0    0  0.29391188187E+02  0.33633111414E+01  0.65118463450E+02  0.71523199642E+02  0.00000000000E+00 0. -1.
        -12    1    5    5    0    0  0.59818631649E+02  0.32476327470E+02  0.77803643487E+03  0.78100811425E+03  0.00000000000E+00 0.  1.
          5    1    4    4  501    0 -0.90596380436E+02  0.34623587618E+02 -0.11261014829E+03  0.14867755334E+03  0.41800000000E+01 0.  1.
         -5    1    4    4    0  501 -0.31925894680E+02 -0.64212465633E+02 -0.17727618276E+03  0.19127681739E+03  0.41800000000E+01 0.  1.
</event>
<event>
11    1  0.8039394E-009  0.1436197E+03  0.7561462E-02  0.1103582E+00
         22   -1    0    0    0    0  0.00000000000E+00  0.00000000000E+00  0.13707468128E+04  0.13707468128E+04  0.00000000000E+00 0.  1.
         22   -1    0    0    0    0 -0.00000000000E+00 -0.00000000000E+00 -0.63248862529E+03  0.63248862529E+03  0.00000000000E+00 0. -1.
         24    2    1    2    0    0  0.31574340136E+02 -0.31476999440E+02 -0.58113314166E+03  0.58844614992E+03  0.81027171770E+02 0.  0.
         25    2    1    2    0    0 -0.83276592319E+02  0.76259243312E+02  0.11101267356E+03  0.20180116745E+03  0.12509769971E+03 0.  0.
        -24    2    1    2    0    0  0.51702252183E+02 -0.44782243872E+02  0.12083786556E+04  0.12129881207E+04  0.80514802439E+02 0.  0.
        -13    1    3    3    0    0  0.46523496914E+02 -0.16768817690E+02 -0.17726807513E+03  0.18403695138E+03  0.00000000000E+00 0.  1.
         14    1    3    3    0    0 -0.14949156778E+02 -0.14708181750E+02 -0.40386506653E+03  0.40440919854E+03  0.00000000000E+00 0. -1.
         13    1    5    5    0    0  0.95481665303E+01  0.23291309818E+02  0.24608324334E+03  0.24736736900E+03  0.00000000000E+00 0. -1.
        -14    1    5    5    0    0  0.42154085653E+02 -0.68073553690E+02  0.96229541225E+03  0.96562075169E+03  0.00000000000E+00 0.  1.
          5    1    4    4  501    0 -0.66597781322E+02  0.47957481490E+01  0.10945528353E+03  0.12828170240E+03  0.41800000000E+01 0. -1.
         -5    1    4    4    0  501 -0.16678810997E+02  0.71463495163E+02  0.15573900288E+01  0.73519465048E+02  0.41800000000E+01 0. -1.
</event>
<event>
11    1  0.8039394E-009  0.2126950E+03  0.7561462E-02  0.1045892E+00
         22   -1    0    0    0    0  0.00000000000E+00  0.00000000000E+00  0.86450000022E+03  0.86450000022E+03  0.00000000000E+00 0. -1.
         22   -1    0    0    0    0 -0.00000000000E+00 -0.00000000000E+00 -0.16114520446E+04  0.16114520446E+04  0.00000000000E+00 0.  1.
        -24    2    1    2    0    0 -0.68767320334E+02  0.15853684559E+03 -0.15771932581E+04  0.15889960861E+04  0.86643595395E+02 0.  0.
         25    2    1    2    0    0  0.22050450778E+02 -0.12796629835E+03  0.32232072045E+03  0.36932114716E+03  0.12508344021E+03 0.  0.
         24    2    1    2    0    0  0.46716869556E+02 -0.30570547238E+02  0.50792049325E+03  0.51763481155E+03  0.82737817265E+02 0.  0.
        -13    1    5    5    0    0 -0.11310592504E+02 -0.32511674766E+02  0.29281713570E+03  0.29483353516E+03  0.00000000000E+00 0.  1.
         14    1    5    5    0    0  0.58027462060E+02  0.19411275284E+01  0.21510335755E+03  0.22280127638E+03  0.00000000000E+00 0. -1.
         11    1    3    3    0    0 -0.30740531834E+02  0.90293788064E+01 -0.14384026899E+03  0.14736530448E+03  0.00000000000E+00 0. -1.
        -12    1    3    3    0    0 -0.38026788500E+02  0.14950746678E+03 -0.14333529891E+04  0.14416307817E+04  0.00000000000E+00 0.  1.
          5    1    4    4  501    0 -0.32578614207E+01 -0.10049312719E+03  0.93275871218E+02  0.13721276480E+03  0.41800000000E+01 0.  1.
         -5    1    4    4    0  501  0.25308312199E+02 -0.27473171159E+02  0.22904484923E+03  0.23210838236E+03  0.41800000000E+01 0.  1.
</event>
<event>
11    1  0.8039394E-009  0.1436300E+03  0.7561462E-02  0.1103571E+00
         22   -1    0    0    0    0  0.00000000000E+00  0.00000000000E+00  0.13556304783E+04  0.13556304783E+04  0.00000000000E+00 0. -1.
         22   -1    0    0    0    0 -0.00000000000E+00 -0.00000000000E+00 -0.21591600528E+03  0.21591600528E+03  0.00000000000E+00 0. -1.
         24    2    1    2    0    0 -0.10952713371E+02 -0.64563613570E+02 -0.15266448050E+03  0.18473244641E+03  0.80815908239E+02 0.  0.
         25    2    1    2    0    0  0.39566271625E+02  0.12220513201E+03  0.13408961277E+03  0.22389576568E+03  0.12509878297E+03 0.  0.
        -24    2    1    2    0    0 -0.28613558253E+02 -0.57641518437E+02  0.11582893407E+04  0.11629182714E+04  0.81261484560E+02 0.  0.
        -13    1    3    3    0    0  0.60201724623E+01 -0.50265760472E+01  0.88109815588E+01  0.11795861107E+02  0.00000000000E+00 0.  1.
         14    1    3    3    0    0 -0.16972885834E+02 -0.59537037522E+02 -0.16147546206E+03  0.17293658531E+03  0.00000000000E+00 0. -1.
         13    1    5    5    0    0  0.45353126262E+01 -0.65676147326E+02  0.89691572239E+03  0.89932849307E+03  0.00000000000E+00 0. -1.
        -14    1    5    5    0    0 -0.33148870880E+02  0.80346288886E+01  0.26137361832E+03  0.26358977836E+03  0.00000000000E+00 0.  1.
          5    1    4    4  501    0 -0.17665145916E+02  0.10090648171E+03  0.36755825693E+02  0.10891574062E+03  0.41800000000E+01 0. -1.
         -5    1    4    4    0  501  0.57231417540E+02  0.21298650292E+02  0.97333787073E+02  0.11498002506E+03  0.41800000000E+01 0. -1.
</event>
<event>
11    1  0.8039394E-009  0.1460042E+03  0.7561462E-02  0.1101033E+00
         22   -1    0    0    0    0  0.00000000000E+00  0.00000000000E+00  0.25893443414E+03  0.25893443414E+03  0.00000000000E+00 0. -1.
         22   -1    0    0    0    0 -0.00000000000E+00 -0.00000000000E+00 -0.83237298970E+03  0.83237298970E+03  0.00000000000E+00 0.  1.
        -24    2    1    2    0    0  0.62839234857E+01  0.53751462258E+01 -0.41999290312E+03  0.42779813521E+03  0.80924816459E+02 0.  0.
         25    2    1    2    0    0 -0.78026406919E+02 -0.27455644987E+02 -0.38172841711E+03  0.41012944137E+03  0.12509053373E+03 0.  0.
         24    2    1    2    0    0  0.71742483433E+02  0.22080498761E+02  0.22828276468E+03  0.25337984727E+03  0.80335508948E+02 0.  0.
        -11    1    5    5    0    0 -0.17484884586E+02  0.11644086233E+01  0.48841327343E+02  0.51889809144E+02  0.00000000000E+00 0.  1.
         12    1    5    5    0    0  0.89227368019E+02  0.20916090138E+02  0.17944143733E+03  0.20149003812E+03  0.00000000000E+00 0. -1.
         13    1    3    3    0    0 -0.36510568932E+02 -0.31408372948E+01 -0.15778654157E+03  0.16198604632E+03  0.00000000000E+00 0. -1.
        -14    1    3    3    0    0  0.42794492417E+02  0.85159835206E+01 -0.26220636156E+03  0.26581208889E+03  0.00000000000E+00 0.  1.
          5    1    4    4  501    0  0.11822373168E+02 -0.32638652209E+02 -0.27105147672E+02  0.44240383765E+02  0.41800000000E+01 0. -1.
         -5    1    4    4    0  501 -0.89848780087E+02  0.51830072218E+01 -0.35462326944E+03  0.36588905760E+03  0.41800000000E+01 0. -1.
</event>
<event>
11    1  0.8039394E-009  0.1365957E+03  0.7561462E-02  0.1111421E+00
         22   -1    0    0    0    0  0.00000000000E+00  0.00000000000E+00  0.11226028662E+04  0.11226028662E+04  0.00000000000E+00 0.  1.
         22   -1    0    0    0    0 -0.00000000000E+00 -0.00000000000E+00 -0.10272657120E+03  0.10272657120E+03  0.00000000000E+00 0.  1.
        -24    2    1    2    0    0 -0.43339162764E+02 -0.30510817596E+02 -0.48424624050E+02  0.10772797066E+03  0.80319228258E+02 0.  0.
         25    2    1    2    0    0  0.43547807691E+02  0.57684677824E+02  0.20881406749E+03  0.25392218620E+03  0.12509687546E+03 0.  0.
         24    2    1    2    0    0 -0.20864492647E+00 -0.27173860228E+02  0.85948685153E+03  0.86367928052E+03  0.80534399091E+02 0.  0.
        -13    1    5    5    0    0 -0.33017876998E+02  0.20294657601E+01  0.56139234697E+03  0.56236613177E+03  0.00000000000E+00 0.  1.
         14    1    5    5    0    0  0.32809232071E+02 -0.29203325988E+02  0.29809450456E+03  0.30131314875E+03  0.00000000000E+00 0. -1.
         11    1    3    3    0    0  0.11518994958E+02 -0.21745470760E+02 -0.45943363024E+02  0.52118570101E+02  0.00000000000E+00 0. -1.
        -12    1    3    3    0    0 -0.54858157723E+02 -0.87653468357E+01 -0.24812610260E+01  0.55609400556E+02  0.00000000000E+00 0.  1.
          5    1    4    4  501    0 -0.16776979692E+02 -0.28756237206E+02  0.84274192470E+02  0.90708324548E+02  0.41800000000E+01 0. -1.
         -5    1    4    4    0  501  0.60324787383E+02  0.86440915029E+02  0.12453987502E+03  0.16321386165E+03  0.41800000000E+01 0. -1.
</event>
<event>
11    1  0.8039394E-009  0.1359725E+03  0.7561462E-02  0.1112141E+00
         22   -1    0    0    0    0  0.00000000000E+00  0.00000000000E+00  0.11463484871E+04  0.11463484871E+04  0.00000000000E+00 0.  1.
         22   -1    0    0    0    0 -0.00000000000E+00 -0.00000000000E+00 -0.95552620733E+03  0.95552620733E+03  0.00000000000E+00 0.  1.
        -24    2    1    2    0    0 -0.86852525394E+01 -0.52566540810E+02 -0.94076402628E+03  0.94607539532E+03  0.84752732518E+02 0.  0.
         25    2    1    2    0    0 -0.20659008672E+02  0.46841730124E+02  0.49834021833E+03  0.51635213828E+03  0.12512240081E+03 0.  0.
         24    2    1    2    0    0  0.29344261211E+02  0.57248106859E+01  0.63324608773E+03  0.63944716085E+03  0.83655273388E+02 0.  0.
        -11    1    5    5    0    0  0.36980454841E+02  0.19090405579E+02  0.61087935875E+03  0.61229534424E+03  0.00000000000E+00 0.  1.
         12    1    5    5    0    0 -0.76361936300E+01 -0.13365594893E+02  0.22366728978E+02  0.27151816609E+02  0.00000000000E+00 0. -1.
         11    1    3    3    0    0  0.24882715731E+02 -0.48770242890E+02 -0.34160999461E+03  0.34596975959E+03  0.00000000000E+00 0. -1.
        -12    1    3    3    0    0 -0.33567968271E+02 -0.37962979196E+01 -0.59915403167E+03  0.60010563573E+03  0.00000000000E+00 0.  1.
          5    1    4    4  501    0 -0.94871461147E+01  0.51393995844E+02  0.68205449023E+02  0.86027928178E+02  0.41800000000E+01 0.  1.
         -5    1    4    4    0  501 -0.11171862557E+02 -0.45522657200E+01  0.43013476931E+03  0.43032421011E+03  0.41800000000E+01 0.  1.
</event>
<event>
11    1  0.8039394E-009  0.1656733E+03  0.7561462E-02  0.1081859E+00
         22   -1    0    0    0    0  0.00000000000E+00  0.00000000000E+00  0.64687099908E+03  0.64687099908E+03  0.00000000000E+00 0. -1.
         22   -1    0    0    0    0 -0.00000000000E+00 -0.00000000000E+00 -0.63956729522E+03  0.63956729522E+03  0.00000000000E+00 0.  1.
         24    2    1    2    0    0  0.35550199152E+02 -0.96108309917E+02 -0.44660020969E+03  0.46530423292E+03  0.80967017850E+02 0.  0.
         25    2    1    2    0    0 -0.21780378342E+02  0.14274975736E+03 -0.12891804710E+03  0.23047666742E+03  0.12509097989E+03 0.  0.
        -24    2    1    2    0    0 -0.13769820810E+02 -0.46641447445E+02  0.58282196065E+03  0.59065739395E+03  0.82641918117E+02 0.  0.
        -13    1    3    3    0    0  0.64957996960E+01 -0.98349377586E+02 -0.29810442366E+03  0.31397618204E+03  0.00000000000E+00 0.  1.
         14    1    3    3    0    0  0.29054399456E+02  0.22410676685E+01 -0.14849578603E+03  0.15132805088E+03  0.00000000000E+00 0. -1.
         11    1    5    5    0    0  0.28496613184E+02 -0.33814802023E+02  0.40604115163E+03  0.40844205785E+03  0.00000000000E+00 0. -1.
        -12    1    5    5    0    0 -0.42266433994E+02 -0.12826645421E+02  0.17678080902E+03  0.18221533611E+03  0.00000000000E+00 0.  1.
          5    1    4    4  501    0 -0.67608966664E+02  0.75391491407E+02 -0.37788761181E+02  0.10816798150E+03  0.41800000000E+01 0.  1.
         -5    1    4    4    0  501  0.45828588321E+02  0.67358265954E+02 -0.91129285917E+02  0.12230868592E+03  0.41800000000E+01 0.  1.
</event>
<event>
11    1  0.8039394E-009  0.1596919E+03  0.7561462E-02  0.1087367E+00
         22   -1    0    0    0    0  0.00000000000E+00  0.00000000000E+00  0.26145900277E+03  0.26145900277E+03  0.00000000000E+00 0. -1.
         22   -1    0    0    0    0 -0.00000000000E+00 -0.00000000000E+00 -0.22696442781E+04  0.22696442781E+04  0.00000000000E+00 0. -1.
         24    2    1    2    0    0  0.31300686269E+02  0.19954447863E+02 -0.21812637867E+04  0.21831501144E+04  0.82793731743E+02 0.  0.
         25    2    1    2    0    0 -0.65871768937E+01  0.84417400098E+02  0.34761758743E+02  0.15500172874E+03  0.12508983853E+03 0.  0.
        -24    2    1    2    0    0 -0.24713509375E+02 -0.10437184796E+03  0.13831675267E+03  0.19295143767E+03  0.81206483963E+02 0.  0.
        -13    1    3    3    0    0 -0.21283433248E+02  0.26645322217E+02 -0.57374034510E+03  0.57475293938E+03  0.00000000000E+00 0.  1.
         14    1    3    3    0    0  0.52584119517E+02 -0.66908743546E+01 -0.16075234416E+04  0.16083971751E+04  0.00000000000E+00 0. -1.
         11    1    5    5    0    0 -0.34825237413E+02 -0.11275338147E+03  0.13519023902E+03  0.17945061415E+03  0.00000000000E+00 0. -1.
        -12    1    5    5    0    0  0.10111728038E+02  0.83815335134E+01  0.31265136492E+01  0.13500823514E+02  0.00000000000E+00 0.  1.
          5    1    4    4  501    0  0.27951592920E+02 -0.15055582047E+02 -0.18439916515E+02  0.36952199104E+02  0.41800000000E+01 0. -1.
         -5    1    4    4    0  501 -0.34538769814E+02  0.99472982145E+02  0.53201675257E+02  0.11804952964E+03  0.41800000000E+01 0. -1.
</event>
<event>
11    1  0.8039394E-009  0.1738556E+03  0.7561462E-02  0.1074724E+00
         22   -1    0    0    0    0  0.00000000000E+00  0.00000000000E+00  0.81443245113E+03  0.81443245113E+03  0.00000000000E+00 0.  1.
         22   -1    0    0    0    0 -0.00000000000E+00 -0.00000000000E+00 -0.89328009945E+03  0.89328009945E+03  0.00000000000E+00 0.  1.
         24    2    1    2    0    0  0.10351447781E+02 -0.17996688583E+02 -0.80290075272E+03  0.80675453164E+03  0.75975142876E+02 0.  0.
         25    2    1    2    0    0 -0.13006671448E+03  0.22990405062E+02  0.20787309235E+02  0.18309800263E+03  0.12508739905E+03 0.  0.
        -24    2    1    2    0    0  0.11971526669E+03 -0.49937164786E+01  0.70326579517E+03  0.71786001632E+03  0.79897071852E+02 0.  0.
        -13    1    3    3    0    0 -0.20529857795E+02 -0.24976447422E+02 -0.63938584171E+03  0.64020274332E+03  0.00000000000E+00 0.  1.
         14    1    3    3    0    0  0.30881305577E+02  0.69797588384E+01 -0.16351491101E+03  0.16655178832E+03  0.00000000000E+00 0. -1.
         11    1    5    5    0    0  0.77568114502E+01  0.14953841360E+02  0.25123811625E+02  0.30248824867E+02  0.00000000000E+00 0. -1.
        -12    1    5    5    0    0  0.11195845524E+03 -0.19947557838E+02  0.67814198354E+03  0.68761119145E+03  0.00000000000E+00 0.  1.
          5    1    4    4  501    0  0.11460054737E+02  0.30070205873E+02 -0.16650269994E+02  0.36472647651E+02  0.41800000000E+01 0.  1.
         -5    1    4    4    0  501 -0.14152676921E+03 -0.70798008108E+01  0.37437579228E+02  0.14662535497E+03  0.41800000000E+01 0.  1.
</event>
<event>
11    1  0.8039394E-009  0.1417510E+03  0.7561462E-02  0.1105619E+00
         22   -1    0    0    0    0  0.00000000000E+00  0.00000000000E+00  0.14140346070E+03  0.14140346070E+03  0.00000000000E+00 0.  1.
         22   -1    0    0    0    0 -0.00000000000E+00 -0.00000000000E+00 -0.25832687181E+04  0.25832687181E+04  0.00000000000E+00 0. -1.
        -24    2    1    2    0    0  0.18973709331E+02 -0.36527972408E+02 -0.24685576991E+04  0.24701431469E+04  0.78331080906E+02 0.  0.
         25    2    1    2    0    0 -0.42690436604E+02  0.82851280625E+02  0.94809093063E+01  0.15628038247E+03  0.12508741833E+03 0.  0.
         24    2    1    2    0    0  0.23716727273E+02 -0.46323308217E+02  0.17211532386E+02  0.98248649394E+02  0.81536667972E+02 0.  0.
        -13    1    5    5    0    0  0.40240103875E+02 -0.43747358060E+02 -0.15572395936E+02  0.61445885235E+02  0.00000000000E+00 0.  1.
         14    1    5    5    0    0 -0.16523376602E+02 -0.25759501569E+01  0.32783928322E+02  0.36802764159E+02  0.00000000000E+00 0. -1.
         13    1    3    3    0    0  0.11657985615E+02 -0.42542479289E+02 -0.24313153812E+04  0.24317154961E+04  0.00000000000E+00 0. -1.
        -14    1    3    3    0    0  0.73157237159E+01  0.60145068811E+01 -0.37242317892E+02  0.38427650832E+02  0.00000000000E+00 0.  1.
          5    1    4    4  501    0 -0.47990366802E+02  0.10528467807E+03 -0.21170713212E+02  0.11770136040E+03  0.41800000000E+01 0. -1.
         -5    1    4    4    0  501  0.52999301978E+01 -0.22433397442E+02  0.30651622518E+02  0.38579022070E+02  0.41800000000E+01 0. -1.
</event>
<event>
11    1  0.8039394E-009  0.2029943E+03  0.7561462E-02  0.1052426E+00
         22   -1    0    0    0    0  0.00000000000E+00  0.00000000000E+00  0.65259062259E+03  0.65259062259E+03  0.00000000000E+00 0. -1.
         22   -1    0    0    0    0 -0.00000000000E+00 -0.00000000000E+00 -0.11431888192E+04  0.11431888192E+04  0.00000000000E+00 0.  1.
        -24    2    1    2    0    0 -0.14751891699E+03  0.32410385842E+02 -0.88745736290E+03  0.90373101390E+03  0.79604714258E+02 0.  0.
         25    2    1    2    0    0  0.23776602285E+03 -0.62789587254E+02 -0.16157695047E+03  0.31973424327E+03  0.12509061317E+03 0.  0.
         24    2    1    2    0    0 -0.90247105862E+02  0.30379201412E+02  0.55843611672E+03  0.57231418467E+03  0.81395291775E+02 0.  0.
        -11    1    5    5    0    0  0.14250572486E+02  0.87593491482E+01  0.47660786915E+02  0.50510945576E+02  0.00000000000E+00 0.  1.
         12    1    5    5    0    0 -0.10449767835E+03  0.21619852264E+02  0.51077532981E+03  0.52180323910E+03  0.00000000000E+00 0. -1.
         13    1    3    3    0    0 -0.25256059563E+02  0.40185637406E+02 -0.21133966264E+03  0.21660380192E+03  0.00000000000E+00 0. -1.
        -14    1    3    3    0    0 -0.12226285743E+03 -0.77752515634E+01 -0.67611770026E+03  0.68712721198E+03  0.00000000000E+00 0.  1.
          5    1    4    4  501    0  0.19173862243E+03 -0.91680013977E+02 -0.15847413882E+03  0.26514231908E+03  0.41800000000E+01 0. -1.
         -5    1    4    4    0  501  0.46027400425E+02  0.28890426723E+02 -0.31028116517E+01  0.54591924185E+02  0.41800000000E+01 0. -1.
</event>
<event>
11    1  0.8039394E-009  0.1328941E+03  0.7561462E-02  0.1115763E+00
         22   -1    0    0    0    0  0.00000000000E+00  0.00000000000E+00  0.69534314485E+03  0.69534314485E+03  0.00000000000E+00 0.  1.
         22   -1    0    0    0    0 -0.00000000000E+00 -0.00000000000E+00 -0.82357316764E+03  0.82357316764E+03  0.00000000000E+00 0.  1.
         24    2    1    2    0    0  0.31192991461E+02 -0.34250376828E+02 -0.69326829680E+03  0.69949409433E+03  0.80777259327E+02 0.  0.
         25    2    1    2    0    0 -0.20296163707E+02  0.22013620175E+02 -0.91561305824E+02  0.15787046602E+03  0.12507228943E+03 0.  0.
        -24    2    1    2    0    0 -0.10896827754E+02  0.12236756652E+02  0.65659957984E+03  0.66155175213E+03  0.79115317365E+02 0.  0.
        -11    1    3    3    0    0 -0.65744094711E+01 -0.44155012913E+02 -0.51846269650E+03  0.52038106777E+03  0.00000000000E+00 0.  1.
         12    1    3    3    0    0  0.37767400932E+02  0.99046360848E+01 -0.17480560030E+03  0.17911302657E+03  0.00000000000E+00 0. -1.
         13    1    5    5    0    0  0.23118095968E+02  0.73180391778E+01  0.72616089972E+02  0.76557798959E+02  0.00000000000E+00 0. -1.
        -14    1    5    5    0    0 -0.34014923722E+02  0.49187174746E+01  0.58398348986E+03  0.58499395317E+03  0.00000000000E+00 0.  1.
          5    1    4    4  501    0 -0.34197419270E+02 -0.13934135122E+02  0.18260330096E+02  0.41406951850E+02  0.41800000000E+01 0. -1.
         -5    1    4    4    0  501  0.13901255564E+02  0.35947755297E+02 -0.10982163592E+03  0.11646351417E+03  0.41800000000E+01 0. -1.
</event>
<event>
11    1  0.8039394E-009  0.1466319E+03  0.7561462E-02  0.1100371E+00
         22   -1    0    0    0    0  0.00000000000E+00  0.00000000000E+00  0.37711342838E+03  0.37711342838E+03  0.00000000000E+00 0.  1.
         22   -1    0    0    0    0 -0.00000000000E+00 -0.00000000000E+00 -0.11005845078E+04  0.11005845078E+04  0.00000000000E+00 0. -1.
         24    2    1    2    0    0  0.23571390764E+02 -0.27044406308E+02 -0.10320060254E+04  0.10357034476E+04  0.79738223898E+02 0.  0.
         25    2    1    2    0    0 -0.56888757665E+01  0.97674149922E+02  0.58497834567E+02  0.16924297156E+03  0.12509430005E+03 0.  0.
        -24    2    1    2    0    0 -0.17882514997E+02 -0.70629743613E+02  0.25003711142E+03  0.27275151710E+03  0.81033869258E+02 0.  0.
        -13    1    3    3    0    0 -0.11884197441E+02 -0.67298180215E+01 -0.31136350041E+02  0.33999954313E+02  0.00000000000E+00 0.  1.
         14    1    3    3    0    0  0.35455588205E+02 -0.20314588287E+02 -0.10008696754E+04  0.10017034932E+04  0.00000000000E+00 0. -1.
         11    1    5    5    0    0  0.23624825262E+02  0.50159576378E+00  0.86196398438E+02  0.89376747930E+02  0.00000000000E+00 0. -1.
        -12    1    5    5    0    0 -0.41507340260E+02 -0.71131339377E+02  0.16384071298E+03  0.18337476917E+03  0.00000000000E+00 0.  1.
          5    1    4    4  501    0  0.55096067421E+02  0.21907234750E+02  0.89147189184E+01  0.60103645422E+02  0.41800000000E+01 0. -1.
         -5    1    4    4    0  501 -0.60784943187E+02  0.75766915172E+02  0.49583115648E+02  0.10913932614E+03  0.41800000000E+01 0. -1.
</event>
<event>
11    1  0.8039394E-009  0.1374157E+03  0.7561462E-02  0.1110479E+00
         22   -1    0    0    0    0  0.00000000000E+00  0.00000000000E+00  0.32905593928E+04  0.32905593928E+04  0.00000000000E+00 0. -1.
         22   -1    0    0    0    0 -0.00000000000E+00 -0.00000000000E+00 -0.11740458131E+03  0.11740458131E+03  0.00000000000E+00 0. -1.
         24    2    1    2    0    0 -0.46443786495E+02 -0.32781382037E+02 -0.38683046600E+02  0.10580169826E+03  0.80411298635E+02 0.  0.
         25    2    1    2    0    0  0.61811580559E+02  0.83701652214E+01  0.64961615196E+02  0.15413302988E+03  0.12508496431E+03 0.  0.
        -24    2    1    2    0    0 -0.15367794064E+02  0.24411216816E+02  0.31468762429E+04  0.31480292460E+04  0.80162140520E+02 0.  0.
        -13    1    3    3    0    0 -0.10000202298E+02 -0.31896184681E+02 -0.56174819404E+02  0.65368042485E+02  0.00000000000E+00 0.  1.
         14    1    3    3    0    0 -0.36443584196E+02 -0.88519735608E+00  0.17491772805E+02  0.40433655774E+02  0.00000000000E+00 0. -1.
         13    1    5    5    0    0 -0.40691284811E+02  0.77396813015E+01  0.25878340993E+04  0.25881655683E+04  0.00000000000E+00 0. -1.
        -14    1    5    5    0    0  0.25323490747E+02  0.16671535514E+02  0.55904214359E+03  0.55986367769E+03  0.00000000000E+00 0.  1.
          5    1    4    4  501    0 -0.33683086327E+02 -0.20781521345E+02  0.16766211012E+02  0.43185647681E+02  0.41800000000E+01 0. -1.
         -5    1    4    4    0  501  0.95494666886E+02  0.29151686566E+02  0.48195404184E+02  0.11094738220E+03  0.41800000000E+01 0. -1.
</event>
<event>
11    1  0.8039394E-009  0.1825097E+03  0.7561462E-02  0.1067631E+00
         22   -1    0    0    0    0  0.00000000000E+00  0.00000000000E+00  0.19727065225E+04  0.19727065225E+04  0.00000000000E+00 0.  1.
         22   -1    0    0    0    0 -0.00000000000E+00 -0.00000000000E+00 -0.65196558320E+03  0.65196558320E+03  0.00000000000E+00 0.  1.
         24    2    1    2    0    0  0.10098886680E+03 -0.85443705579E+02 -0.61653131631E+03  0.63587707970E+03  0.82033032776E+02 0.  0.
         25    2    1    2    0    0 -0.16233681877E+03  0.62215420864E+02  0.45526707645E+03  0.50312443898E+03  0.12506833684E+03 0.  0.
        -24    2    1    2    0    0  0.61347951974E+02  0.23228284715E+02  0.14820051792E+04  0.14856705871E+04  0.81084016163E+02 0.  0.
        -11    1    3    3    0    0  0.95548907637E+02 -0.82494717877E+02 -0.40414632422E+03  0.42340196458E+03  0.00000000000E+00 0.  1.
         12    1    3    3    0    0  0.54399591587E+01 -0.29489877026E+01 -0.21238499209E+03  0.21247511513E+03  0.00000000000E+00 0. -1.
         11    1    5    5    0    0 -0.90432040494E+01  0.10603451284E+02  0.50714650080E+02  0.52594566747E+02  0.00000000000E+00 0. -1.
        -12    1    5    5    0    0  0.70391156023E+02  0.12624833431E+02  0.14312905291E+04  0.14330760203E+04  0.00000000000E+00 0.  1.
          5    1    4    4  501    0 -0.85541461821E+02 -0.28818613490E+02  0.24921730071E+03  0.26509354867E+03  0.41800000000E+01 0.  1.
         -5    1    4    4    0  501 -0.76795356949E+02  0.91034034354E+02  0.20604977574E+03  0.23803089031E+03  0.41800000000E+01 0.  1.
</event>
<event>
11    1  0.8039394E-009  0.1798825E+03  0.7561462E-02  0.1069738E+00
         22   -1    0    0    0    0  0.00000000000E+00  0.00000000000E+00  0.17501187058E+03  0.17501187058E+03  0.00000000000E+00 0. -1.
         22   -1    0    0    0    0 -0.00000000000E+00 -0.00000000000E+00 -0.10504245134E+04  0.10504245134E+04  0.00000000000E+00 0. -1.
         24    2    1    2    0    0 -0.95297030255E+02 -0.94953716257E+02 -0.92194927017E+03  0.93515494448E+03  0.80165960421E+02 0.  0.
         25    2    1    2    0    0  0.42691261631E+02  0.74481016200E+02 -0.41076761820E+02  0.15717833703E+03  0.12509102156E+03 0.  0.
        -24    2    1    2    0    0  0.52605768624E+02  0.20472700057E+02  0.87613389140E+02  0.13310310250E+03  0.82787871082E+02 0.  0.
        -13    1    3    3    0    0  0.76694606802E+01  0.76678308018E+01 -0.49190299132E+02  0.50371636712E+02  0.00000000000E+00 0.  1.
         14    1    3    3    0    0 -0.10296649093E+03 -0.10262154706E+03 -0.87275897104E+03  0.88478330777E+03  0.00000000000E+00 0. -1.
         11    1    5    5    0    0  0.27936086334E+02 -0.11702986042E+02  0.87462172364E+02  0.92558178443E+02  0.00000000000E+00 0. -1.
        -12    1    5    5    0    0  0.24669682290E+02  0.32175686099E+02  0.15121677536E+00  0.40544924057E+02  0.00000000000E+00 0.  1.
          5    1    4    4  501    0  0.75946839776E+02  0.18113321619E+02 -0.47171002606E+02  0.91315884592E+02  0.41800000000E+01 0.  1.
         -5    1    4    4    0  501 -0.33255578144E+02  0.56367694581E+02  0.60942407856E+01  0.65862452435E+02  0.41800000000E+01 0.  1.
</event>
<event>
11    1  0.8039394E-009  0.1536633E+03  0.7561462E-02  0.1093193E+00
         22   -1    0    0    0    0  0.00000000000E+00  0.00000000000E+00  0.22266124461E+03  0.22266124461E+03  0.00000000000E+00 0.  1.
         22   -1    0    0    0    0 -0.00000000000E+00 -0.00000000000E+00 -0.23938894078E+04  0.23938894078E+04  0.00000000000E+00 0.  1.
        -24    2    1    2    0    0  0.31623903210E+02  0.50087088423E+01 -0.17088954909E+04  0.17110408249E+04  0.79446505541E+02 0.  0.
         25    2    1    2    0    0 -0.10245710985E+03  0.48362041450E+02 -0.65625331672E+03  0.67760810904E+03  0.12509191545E+03 0.  0.
         24    2    1    2    0    0  0.70833206638E+02 -0.53370750292E+02  0.19392064444E+03  0.22790171846E+03  0.80425100470E+02 0.  0.
        -13    1    5    5    0    0  0.67905771443E+02 -0.29372833171E+02  0.70710833575E+02  0.10234245995E+03  0.00000000000E+00 0.  1.
         14    1    5    5    0    0  0.29274351952E+01 -0.23997917122E+02  0.12320981087E+03  0.12555925851E+03  0.00000000000E+00 0. -1.
         11    1    3    3    0    0  0.11792311095E+02  0.13252723497E+02 -0.77515466219E+02  0.79519436519E+02  0.00000000000E+00 0. -1.
        -12    1    3    3    0    0  0.19831592115E+02 -0.82440146545E+01 -0.16313800247E+04  0.16315213884E+04  0.00000000000E+00 0.  1.
          5    1    4    4  501    0 -0.76853396683E+02  0.44496049652E+02 -0.18123451603E+03  0.20186571085E+03  0.41800000000E+01 0. -1.
         -5    1    4    4    0  501 -0.25603713165E+02  0.38659917985E+01 -0.47501880069E+03  0.47574239818E+03  0.41800000000E+01 0. -1.
</event>
<event>
11    1  0.8039394E-009  0.2110844E+03  0.7561462E-02  0.1046951E+00
         22   -1    0    0    0    0  0.00000000000E+00  0.00000000000E+00  0.28089903376E+03  0.28089903376E+03  0.00000000000E+00 0. -1.
         22   -1    0    0    0    0 -0.00000000000E+00 -0.00000000000E+00 -0.13202008350E+04  0.13202008350E+04  0.00000000000E+00 0. -1.
         24    2    1    2    0    0  0.16613770852E+03  0.67043813920E+02 -0.11989548188E+04  0.12150070231E+04  0.81564683145E+02 0.  0.
         25    2    1    2    0    0 -0.47912171085E+02 -0.94423870169E+02 -0.78586614653E+01  0.16408401063E+03  0.12510140123E+03 0.  0.
        -24    2    1    2    0    0 -0.11822553744E+03  0.27380056249E+02  0.16751167905E+03  0.22200883497E+03  0.80627631769E+02 0.  0.
        -13    1    3    3    0    0  0.39159775264E+02  0.50519062022E+02 -0.28191404866E+03  0.28906953223E+03  0.00000000000E+00 0.  1.
         14    1    3    3    0    0  0.12697793326E+03  0.16524751898E+02 -0.91704077015E+03  0.92593749091E+03  0.00000000000E+00 0. -1.
         13    1    5    5    0    0  0.78750963880E+01  0.12074991500E+02  0.37810158680E+02  0.40465178391E+02  0.00000000000E+00 0. -1.
        -14    1    5    5    0    0 -0.12610063383E+03  0.15305064749E+02  0.12970152037E+03  0.18154365658E+03  0.00000000000E+00 0.  1.
          5    1    4    4  501    0 -0.14517028003E+02  0.17283178163E+02  0.33234735416E+02  0.40391489049E+02  0.41800000000E+01 0.  1.
         -5    1    4    4    0  501 -0.33395143082E+02 -0.11170704833E+03 -0.41093396881E+02  0.12369252158E+03  0.41800000000E+01 0.  1.
</event>
<event>
11    1  0.8039394E-009  0.1360603E+03  0.7561462E-02  0.1112039E+00
         22   -1    0    0    0    0  0.00000000000E+00  0.00000000000E+00  0.18379232321E+04  0.18379232321E+04  0.00000000000E+00 0.  1.
         22   -1    0    0    0    0 -0.00000000000E+00 -0.00000000000E+00 -0.41198146040E+02  0.41198146040E+02  0.00000000000E+00 0. -1.
         24    2    1    2    0    0 -0.35336555219E+02 -0.75751009037E+00  0.39860970538E+02  0.97173668250E+02  0.81268560174E+02 0.  0.
         25    2    1    2    0    0  0.79574095454E+02 -0.20036698317E+02  0.51115218902E+03  0.53259515647E+03  0.12509010518E+03 0.  0.
        -24    2    1    2    0    0 -0.44237540235E+02  0.20794208407E+02  0.12457119265E+04  0.12493525534E+04  0.81818334278E+02 0.  0.
        -11    1    3    3    0    0  0.26588247023E+02  0.44698168250E+00  0.99462611428E+01  0.28391244832E+02  0.00000000000E+00 0.  1.
         12    1    3    3    0    0 -0.61924802242E+02 -0.12044917729E+01  0.29914709395E+02  0.68782423419E+02  0.00000000000E+00 0. -1.
         13    1    5    5    0    0 -0.44858836790E+01 -0.17883559444E+01  0.27643300103E+01  0.55644307679E+01  0.00000000000E+00 0. -1.
        -14    1    5    5    0    0 -0.39751656556E+02  0.22582564352E+02  0.12429475965E+04  0.12437881226E+04  0.00000000000E+00 0.  1.
          5    1    4    4  501    0  0.98178933426E+02  0.59027947276E+01  0.23806313824E+03  0.25761497655E+03  0.41800000000E+01 0. -1.
         -5    1    4    4    0  501 -0.18604837972E+02 -0.25939493044E+02  0.27308905078E+03  0.27498017992E+03  0.41800000000E+01 0. -1.
</event>
<event>
11    1  0.8039394E-009  0.3010411E+03  0.7561462E-02  0.9997516E-01
         22   -1    0    0    0    0  0.00000000000E+00  0.00000000000E+00  0.43398020202E+03  0.43398020202E+03  0.00000000000E+00 0. -1.
         22   -1    0    0    0    0 -0.00000000000E+00 -0.00000000000E+00 -0.60046434977E+03  0.60046434977E+03  0.00000000000E+00 0. -1.
        -24    2    1    2    0    0 -0.15856697841E+03 -0.21989971304E+03 -0.33071270684E+03  0.43502769057E+03  0.79867557008E+02 0.  0.
         25    2    1    2    0    0  0.42463258928E+02 -0.50770180747E+02 -0.11861679170E+03  0.18465308537E+03  0.12508428779E+03 0.  0.
         24    2    1    2    0    0  0.11610371948E+03  0.27066989378E+03  0.28284535079E+03  0.41476377584E+03  0.72699602550E+02 0.  0.
        -13    1    5    5    0    0 -0.72702362239E+01  0.19301064421E+02  0.35958157168E+02  0.41453304928E+02  0.00000000000E+00 0.  1.
         14    1    5    5    0    0  0.12337395570E+03  0.25136882936E+03  0.24688719362E+03  0.37331047092E+03  0.00000000000E+00 0. -1.
         13    1    3    3    0    0 -0.72073291970E+02 -0.15942716167E+03 -0.23149712606E+03  0.29017666803E+03  0.00000000000E+00 0. -1.
        -14    1    3    3    0    0 -0.86493686435E+02 -0.60472551364E+02 -0.99215580785E+02  0.14485102254E+03  0.00000000000E+00 0.  1.
          5    1    4    4  501    0  0.25323853666E+02 -0.16470936475E+02 -0.13810977625E+03  0.14143681277E+03  0.41800000000E+01 0.  1.
         -5    1    4    4    0  501  0.17139405261E+02 -0.34299244273E+02  0.19492984548E+02  0.43216272595E+02  0.41800000000E+01 0.  1.
</event>
<event>
11    1  0.8039394E-009  0.2035837E+03  0.7561462E-02  0.1052018E+00
         22   -1    0    0    0    0  0.00000000000E+00  0.00000000000E+00  0.23859887098E+03  0.23859887098E+03  0.00000000000E+00 0.  1.
         22   -1    0    0    0    0 -0.00000000000E+00 -0.00000000000E+00 -0.26819343619E+04  0.26819343619E+04  0.00000000000E+00 0.  1.
         24    2    1    2    0    0 -0.16963203186E+02  0.86405489572E+02 -0.10011258820E+04  0.10077162290E+04  0.74062862648E+02 0.  0.
         25    2    1    2    0    0  0.13382929739E+03 -0.19439446316E+03 -0.16313547324E+04  0.16530775118E+04  0.12509000446E+03 0.  0.
        -24    2    1    2    0    0 -0.11686609421E+03  0.10798897359E+03  0.18914512348E+03  0.25973949204E+03  0.79808668668E+02 0.  0.
        -11    1    3    3    0    0  0.17071871019E+01  0.87496071911E+02 -0.62162841649E+03  0.62775820606E+03  0.00000000000E+00 0.  1.
         12    1    3    3    0    0 -0.18670390288E+02 -0.10905823386E+01 -0.37949746551E+03  0.37995802291E+03  0.00000000000E+00 0. -1.
         11    1    5    5    0    0  0.77429986154E+01  0.20464683660E+02  0.84946915047E+01  0.23471623051E+02  0.00000000000E+00 0. -1.
        -12    1    5    5    0    0 -0.12460909282E+03  0.87524289927E+02  0.18065043198E+03  0.23626786899E+03  0.00000000000E+00 0.  1.
          5    1    4    4  501    0  0.13988243038E+03 -0.18699193225E+03 -0.12531949928E+04  0.12747737993E+04  0.41800000000E+01 0. -1.
         -5    1    4    4    0  501 -0.60531329807E+01 -0.74025309081E+01 -0.37815973960E+03  0.37830371256E+03  0.41800000000E+01 0. -1.
</event>
<event>
11    1  0.8039394E-009  0.1534053E+03  0.7561462E-02  0.1093449E+00
         22   -1    0    0    0    0  0.00000000000E+00  0.00000000000E+00  0.15942001477E+04  0.15942001477E+04  0.00000000000E+00 0.  1.
         22   -1    0    0    0    0 -0.00000000000E+00 -0.00000000000E+00 -0.71158131413E+03  0.71158131413E+03  0.00000000000E+00 0.  1.
        -24    2    1    2    0    0 -0.84943267270E+02  0.27592622092E+02 -0.64456222023E+03  0.65573976938E+03  0.80978256022E+02 0.  0.
         25    2    1    2    0    0  0.58415219456E+02 -0.74336269638E+02  0.42809127729E+02  0.16253957919E+03  0.12509306351E+03 0.  0.
         24    2    1    2    0    0  0.26528047813E+02  0.46743647546E+02  0.14843719260E+04  0.14875021132E+04  0.80086304246E+02 0.  0.
        -13    1    5    5    0    0  0.48647381225E+02  0.54099483090E+02  0.11780789478E+04  0.11803234001E+04  0.00000000000E+00 0.  1.
         14    1    5    5    0    0 -0.22119333412E+02 -0.73558355448E+01  0.30629297828E+03  0.30717871309E+03  0.00000000000E+00 0. -1.
         13    1    3    3    0    0 -0.21688020129E+02 -0.28592081413E+02 -0.20205302525E+03  0.20521525857E+03  0.00000000000E+00 0. -1.
        -14    1    3    3    0    0 -0.63255247141E+02  0.56184703505E+02 -0.44250919499E+03  0.45052451082E+03  0.00000000000E+00 0.  1.
          5    1    4    4  501    0  0.18806404830E+02  0.35265280094E+02  0.10587528111E+02  0.41555853911E+02  0.41800000000E+01 0. -1.
         -5    1    4    4    0  501  0.39608814626E+02 -0.10960154973E+03  0.32221599618E+02  0.12098372528E+03  0.41800000000E+01 0. -1.
</event>
<event>
11    1  0.8039394E-009  0.1578004E+03  0.7561462E-02  0.1089165E+00
         22   -1    0    0    0    0  0.00000000000E+00  0.00000000000E+00  0.25536828506E+04  0.25536828506E+04  0.00000000000E+00 0.  1.
         22   -1    0    0    0    0 -0.00000000000E+00 -0.00000000000E+00 -0.27983791991E+03  0.27983791991E+03  0.00000000000E+00 0. -1.
        -24    2    1    2    0    0 -0.30456336513E+02 -0.26757026699E+02 -0.18559266193E+03  0.20619461746E+03  0.80175165708E+02 0.  0.
         25    2    1    2    0    0  0.11506722686E+03 -0.18436096959E+02  0.63550198292E+01  0.17107933628E+03  0.12508955455E+03 0.  0.
         24    2    1    2    0    0 -0.84610890343E+02  0.45193123659E+02  0.24530825728E+04  0.24562468168E+04  0.79579486938E+02 0.  0.
        -11    1    5    5    0    0  0.51383171464E+01  0.28499110024E+02  0.91451999783E+03  0.91497837570E+03  0.00000000000E+00 0.  1.
         12    1    5    5    0    0 -0.89749207490E+02  0.16694013635E+02  0.15385625750E+04  0.15412684411E+04  0.00000000000E+00 0. -1.
         11    1    3    3    0    0 -0.19589825908E+02 -0.21997633869E+01 -0.17686165593E+03  0.17795686437E+03  0.00000000000E+00 0. -1.
        -12    1    3    3    0    0 -0.10866510605E+02 -0.24557263312E+02 -0.87310060064E+01  0.28237753098E+02  0.00000000000E+00 0.  1.
          5    1    4    4  501    0  0.75069813519E+02 -0.67102174288E+02 -0.19872710200E+02  0.10271599538E+03  0.41800000000E+01 0.  1.
         -5    1    4    4    0  501  0.39997413337E+02  0.48666077329E+02  0.26227730029E+02  0.68363340898E+02  0.41800000000E+01 0.  1.
</event>
<event>
11    1  0.8039394E-009  0.1666415E+03  0.7561462E-02  0.1080992E+00
         22   -1    0    0    0    0  0.00000000000E+00  0.00000000000E+00  0.10119592927E+04  0.10119592927E+04  0.00000000000E+00 0.  1.
         22   -1    0    0    0    0 -0.00000000000E+00 -0.00000000000E+00 -0.48222939512E+02  0.48222939512E+02  0.00000000000E+00 0.  1.
        -24    2    1    2    0    0 -0.61976374207E+02  0.83094423877E+02  0.21990112736E+03  0.25637031978E+03  0.81384770131E+02 0.  0.
         25    2    1    2    0    0  0.70596058892E+02 -0.93717529672E+02  0.24134449036E+03  0.29608245932E+03  0.12510348033E+03 0.  0.
         24    2    1    2    0    0 -0.86196846849E+01  0.10623105794E+02  0.50249073546E+03  0.50772945311E+03  0.71450045413E+02 0.  0.
        -11    1    5    5    0    0 -0.36855974041E+02  0.26309683842E+01  0.37913135775E+03  0.38092764568E+03  0.00000000000E+00 0.  1.
         12    1    5    5    0    0  0.28236289356E+02  0.79921374100E+01  0.12335937772E+03  0.12680180743E+03  0.00000000000E+00 0. -1.
         13    1    3    3    0    0 -0.58176157881E+01  0.30108332001E+02  0.14706090316E+03  0.15022405116E+03  0.00000000000E+00 0. -1.
        -14    1    3    3    0    0 -0.56158758419E+02  0.52986091877E+02  0.72840224201E+02  0.10614626862E+03  0.00000000000E+00 0.  1.
          5    1    4    4  501    0 -0.21058067918E+02  0.47581867248E+01  0.93917326523E+02  0.96457343870E+02  0.41800000000E+01 0.  1.
         -5    1    4    4    0  501  0.91654126810E+02 -0.98475716396E+02  0.14742716384E+03  0.19962511545E+03  0.41800000000E+01 0.  1.
</event>
<event>
11    1  0.8039394E-009  0.1421844E+03  0.7561462E-02  0.1105143E+00
         22   -1    0    0    0    0  0.00000000000E+00  0.00000000000E+00  0.33008687457E+03  0.33008687457E+03  0.00000000000E+00 0.  1.
         22   -1    0    0    0    0 -0.00000000000E+00 -0.00000000000E+00 -0.11885809330E+04  0.11885809330E+04  0.00000000000E+00 0. -1.
         24    2    1    2    0    0  0.14452672245E+02 -0.65811815063E+02 -0.99648805071E+03  0.10020828477E+04  0.81495543718E+02 0.  0.
         25    2    1    2    0    0 -0.64130891480E+02  0.55769978769E+02 -0.15029136838E+03  0.21321452403E+03  0.12509946472E+03 0.  0.
        -24    2    1    2    0    0  0.49678219235E+02  0.10041836294E+02  0.28828536066E+03  0.30337043589E+03  0.79727086108E+02 0.  0.
        -13    1    3    3    0    0 -0.22135875827E+01  0.15118760292E+02 -0.58507955658E+02  0.60470304762E+02  0.00000000000E+00 0.  1.
         14    1    3    3    0    0  0.16666259828E+02 -0.80930575355E+02 -0.93798009505E+03  0.94161254291E+03  0.00000000000E+00 0. -1.
         13    1    5    5    0    0  0.26234727138E+02 -0.31682372603E+02  0.83698389837E+02  0.93260142092E+02  0.00000000000E+00 0. -1.
        -14    1    5    5    0    0  0.23443492097E+02  0.41724208896E+02  0.20458697082E+03  0.21011029380E+03  0.00000000000E+00 0.  1.
          5    1    4    4  501    0 -0.44245430607E+02  0.12885859495E+02  0.88822199531E+01  0.47117615982E+02  0.41800000000E+01 0.  1.
         -5    1    4    4    0  501 -0.19885460873E+02  0.42884119274E+02 -0.15917358834E+03  0.16609690805E+03  0.41800000000E+01 0.  1.
</event>
<event>
11    1  0.8039394E-009  0.1762437E+03  0.7561462E-02  0.1072722E+00
         22   -1    0    0    0    0  0.00000000000E+00  0.00000000000E+00  0.20929195761E+04  0.20929195761E+04  0.00000000000E+00 0. -1.
         22   -1    0    0    0    0 -0.00000000000E+00 -0.00000000000E+00 -0.11248360546E+03  0.11248360546E+03  0.00000000000E+00 0. -1.
         24    2    1    2    0    0  0.12692575739E+03 -0.16429634858E+02 -0.45611109444E+02  0.15535815452E+03  0.75337255586E+02 0.  0.
         25    2    1    2    0    0 -0.84672884415E+02  0.18008258707E+02  0.53186763455E+03  0.55319444525E+03  0.12508844403E+03 0.  0.
        -24    2    1    2    0    0 -0.42252872977E+02 -0.15786238493E+01  0.14941794455E+04  0.14968505818E+04  0.78750564919E+02 0.  0.
        -11    1    3    3    0    0 -0.91784365489E+01 -0.41125942741E+01 -0.98916787864E+01  0.14106822405E+02  0.00000000000E+00 0.  1.
         12    1    3    3    0    0  0.13610419394E+03 -0.12317040584E+02 -0.35719430657E+02  0.14125133211E+03  0.00000000000E+00 0. -1.
         11    1    5    5    0    0 -0.32349941912E+02  0.33676116861E+02  0.10949231140E+04  0.10959184391E+04  0.00000000000E+00 0. -1.
        -12    1    5    5    0    0 -0.99029310647E+01 -0.35254740711E+02  0.39925633149E+03  0.40093214267E+03  0.00000000000E+00 0.  1.
          5    1    4    4  501    0 -0.54353800633E+02  0.90264590853E+01  0.51334380919E+03  0.51630916266E+03  0.41800000000E+01 0. -1.
         -5    1    4    4    0  501 -0.30319083781E+02  0.89817996218E+01  0.18523825360E+02  0.36885282590E+02  0.41800000000E+01 0. -1.
</event>
<event>
11    1  0.8039394E-009  0.1787586E+03  0.7561462E-02  0.1070651E+00
         22   -1    0    0    0    0  0.00000000000E+00  0.00000000000E+00  0.36082941034E+04  0.36082941034E+04  0.00000000000E+00 0.  1.
         22   -1    0    0    0    0 -0.00000000000E+00 -0.00000000000E+00 -0.87795564536E+03  0.87795564536E+03  0.00000000000E+00 0.  1.
         24    2    1    2    0    0 -0.44533953058E+00  0.22566414835E+02 -0.86123579383E+03  0.86523084615E+03  0.79924233743E+02 0.  0.
         25    2    1    2    0    0  0.33133641730E+02 -0.14317113979E+03  0.71004183206E+03  0.73580081615E+03  0.12509046445E+03 0.  0.
        -24    2    1    2    0    0 -0.32688302199E+02  0.12060472496E+03  0.28815324198E+04  0.28852180865E+04  0.75101899116E+02 0.  0.
        -11    1    3    3    0    0  0.31847643117E+02  0.18405135997E+02 -0.68666812071E+03  0.68765262262E+03  0.00000000000E+00 0.  1.
         12    1    3    3    0    0 -0.32292982647E+02  0.41612788385E+01 -0.17456767313E+03  0.17757822352E+03  0.00000000000E+00 0. -1.
         11    1    5    5    0    0 -0.37320855294E+02  0.26758273690E+02  0.13689918658E+04  0.13697618699E+04  0.00000000000E+00 0. -1.
        -12    1    5    5    0    0  0.46325530947E+01  0.93846451267E+02  0.15125405540E+04  0.15154562166E+04  0.00000000000E+00 0.  1.
          5    1    4    4  501    0 -0.10476956292E+02 -0.11313703281E+03  0.27571678031E+03  0.29823978633E+03  0.41800000000E+01 0. -1.
         -5    1    4    4    0  501  0.43610598022E+02 -0.30034106979E+02  0.43432505175E+03  0.43756102982E+03  0.41800000000E+01 0. -1.
</event>
<event>
11    1  0.8039394E-009  0.1377122E+03  0.7561462E-02  0.1110140E+00
         22   -1    0    0    0    0  0.00000000000E+00  0.00000000000E+00  0.38695823054E+03  0.38695823054E+03  0.00000000000E+00 0. -1.
         22   -1    0    0    0    0 -0.00000000000E+00 -0.00000000000E+00 -0.29288151117E+03  0.29288151117E+03  0.00000000000E+00 0. -1.
         24    2    1    2    0    0  0.31835611466E+02 -0.56544989460E+02 -0.20140583829E+03  0.22609466123E+03  0.79646984547E+02 0.  0.
         25    2    1    2    0    0 -0.36534255672E+01  0.25480700873E+02 -0.16992968097E+02  0.12886887950E+03  0.12512319331E+03 0.  0.
        -24    2    1    2    0    0 -0.28182185899E+02  0.31064288587E+02  0.31247552575E+03  0.32487620098E+03  0.78386007325E+02 0.  0.
        -13    1    3    3    0    0 -0.15870276731E+02  0.73996958030E+01 -0.14016913205E+02  0.22429780143E+02  0.00000000000E+00 0.  1.
         14    1    3    3    0    0  0.47705888197E+02 -0.63944685263E+02 -0.18738892509E+03  0.20366488108E+03  0.00000000000E+00 0. -1.
         11    1    5    5    0    0  0.12995139372E+02  0.40553035107E+02  0.20532354491E+03  0.20969306235E+03  0.00000000000E+00 0. -1.
        -12    1    5    5    0    0 -0.41177325271E+02 -0.94887465197E+01  0.10715198084E+03  0.11518313863E+03  0.00000000000E+00 0.  1.
          5    1    4    4  501    0 -0.35293661665E+02 -0.27402225104E+02  0.27601189067E+02  0.52686075317E+02  0.41800000000E+01 0. -1.
         -5    1    4    4    0  501  0.31640236098E+02  0.52882925977E+02 -0.44594157164E+02  0.76182804184E+02  0.41800000000E+01 0. -1.
</event>
<event>
11    1  0.8039394E-009  0.1442390E+03  0.7561462E-02  0.1102915E+00
         22   -1    0    0    0    0  0.00000000000E+00  0.00000000000E+00  0.48919235062E+03  0.48919235062E+03  0.00000000000E+00 0.  1.
         22   -1    0    0    0    0 -0.00000000000E+00 -0.00000000000E+00 -0.25619948766E+03  0.25619948766E+03  0.00000000000E+00 0. -1.
         24    2    1    2    0    0 -0.36185541093E+02  0.55198414042E+02 -0.42309338164E+02  0.11100384823E+03  0.78584450941E+02 0.  0.
         25    2    1    2    0    0  0.10471591892E+03 -0.69481297166E+02 -0.12712584166E+03  0.21817705212E+03  0.12508865705E+03 0.  0.
        -24    2    1    2    0    0 -0.68530377822E+02  0.14282883124E+02  0.40242804278E+03  0.41621093793E+03  0.79892438958E+02 0.  0.
        -11    1    3    3    0    0 -0.53947327891E+02  0.23205383141E+02 -0.45474021664E+02  0.74274427898E+02  0.00000000000E+00 0.  1.
         12    1    3    3    0    0  0.17761786798E+02  0.31993030901E+02  0.31646834996E+01  0.36729420335E+02  0.00000000000E+00 0. -1.
         13    1    5    5    0    0 -0.65944642469E+01 -0.28729740460E+02  0.85606050904E+02  0.90538836402E+02  0.00000000000E+00 0. -1.
        -14    1    5    5    0    0 -0.61935913575E+02  0.43012623584E+02  0.31682199188E+03  0.32567210153E+03  0.00000000000E+00 0.  1.
          5    1    4    4  501    0  0.11165124746E+03 -0.96742841782E+02 -0.97185927594E+02  0.17688345151E+03  0.41800000000E+01 0.  1.
         -5    1    4    4    0  501 -0.69353285426E+01  0.27261544616E+02 -0.29939914067E+02  0.41293600608E+02  0.41800000000E+01 0.  1.
</event>
<event>
11    1  0.1475198E-008  0.1966873E+03  0.7561462E-02  0.1056891E+00
         22   -1    0    0    0    0  0.00000000000E+00  0.00000000000E+00  0.46812115467E+03  0.46812115467E+03  0.00000000000E+00 0.  1.
         22   -1    0    0    0    0 -0.00000000000E+00 -0.00000000000E+00 -0.15071451115E+04  0.15071451115E+04  0.00000000000E+00 0. -1.
        -24    2    1    2    0    0 -0.38016265394E+02 -0.13884065089E+02 -0.65723669688E+03  0.66340073969E+03  0.80637844696E+02 0.  0.
         25    2    1    2    0    0 -0.44448312828E+02  0.14150980399E+03 -0.81923666731E+03  0.84190158693E+03  0.12509551501E+03 0.  0.
         24    2    1    2    0    0  0.82464578223E+02 -0.12762573891E+03  0.43744940733E+03  0.46996393957E+03  0.80096096182E+02 0.  0.
        -13    1    5    5    0    0  0.23399436500E+02 -0.70106165053E+01  0.15846621120E+03  0.16033783853E+03  0.00000000000E+00 0.  1.
         14    1    5    5    0    0  0.59065141722E+02 -0.12061512240E+03  0.27898319614E+03  0.30962610104E+03  0.00000000000E+00 0. -1.
         11    1    3    3    0    0  0.16579074825E+02  0.42965574974E-01 -0.38689065615E+03  0.38724571965E+03  0.00000000000E+00 0. -1.
        -12    1    3    3    0    0 -0.54595340219E+02 -0.13927030664E+02 -0.27034604072E+03  0.27615502004E+03  0.00000000000E+00 0.  1.
          5    1    4    4  501    0 -0.11933633009E+02 -0.15823775256E+00 -0.35937617354E+03  0.35959858613E+03  0.41800000000E+01 0. -1.
         -5    1    4    4    0  501 -0.32514679820E+02  0.14166804175E+03 -0.45986049377E+03  0.48230300080E+03  0.41800000000E+01 0. -1.
</event>
<event>
11    1  0.1183618E-008  0.1765629E+03  0.7561462E-02  0.1072457E+00
         22   -1    0    0    0    0  0.00000000000E+00  0.00000000000E+00  0.93253578025E+03  0.93253578025E+03  0.00000000000E+00 0. -1.
         22   -1    0    0    0    0 -0.00000000000E+00 -0.00000000000E+00 -0.12355948981E+04  0.12355948981E+04  0.00000000000E+00 0.  1.
        -24    2    1    2    0    0  0.75674923701E+02  0.78191133323E+02 -0.63237248794E+03  0.64641030221E+03  0.78171400763E+02 0.  0.
         25    2    1    2    0    0 -0.17755628178E+03 -0.57792602049E+02 -0.57014101871E+03  0.61284111844E+03  0.12508891715E+03 0.  0.
         24    2    1    2    0    0  0.10188135808E+03 -0.20398531274E+02  0.89945438876E+03  0.90887925774E+03  0.79040473669E+02 0.  0.
        -11    1    5    5    0    0  0.17433748212E+00 -0.20221574131E+02  0.60678665091E+02  0.63959697084E+02  0.00000000000E+00 0.  1.
         12    1    5    5    0    0  0.10170702060E+03 -0.17695714295E+00  0.83877572367E+03  0.84491956065E+03  0.00000000000E+00 0. -1.
         13    1    3    3    0    0  0.83322390398E+02  0.68879148516E+02 -0.41978945757E+03  0.43348603960E+03  0.00000000000E+00 0. -1.
        -14    1    3    3    0    0 -0.76474666976E+01  0.93119848064E+01 -0.21258303037E+03  0.21292426261E+03  0.00000000000E+00 0.  1.
          5    1    4    4  501    0 -0.94773501706E+02  0.34054081328E+02 -0.27012821898E+03  0.28832000307E+03  0.41800000000E+01 0.  1.
         -5    1    4    4    0  501 -0.82782780073E+02 -0.91846683376E+02 -0.30001279972E+03  0.32452111537E+03  0.41800000000E+01 0.  1.
</event>
<event>
11    1  0.8039394E-009  0.1711541E+03  0.7561462E-02  0.1077032E+00
         22   -1    0    0    0    0  0.00000000000E+00  0.00000000000E+00  0.60499811789E+03  0.60499811789E+03  0.00000000000E+00 0.  1.
         22   -1    0    0    0    0 -0.00000000000E+00 -0.00000000000E+00 -0.21563485063E+03  0.21563485063E+03  0.00000000000E+00 0. -1.
        -24    2    1    2    0    0  0.63587062364E+02  0.85769365428E+02 -0.11457066130E+03  0.17910704924E+03  0.86909148610E+02 0.  0.
         25    2    1    2    0    0 -0.90043862151E+02 -0.15403957945E+03  0.13444075753E+03  0.25604370718E+03  0.12509186045E+03 0.  0.
         24    2    1    2    0    0  0.26456799787E+02  0.68270214026E+02  0.36949317103E+03  0.38548221210E+03  0.81917934733E+02 0.  0.
        -13    1    5    5    0    0 -0.23937360149E+02  0.28833754048E+02  0.21531577094E+03  0.21855265681E+03  0.00000000000E+00 0.  1.
         14    1    5    5    0    0  0.50394159936E+02  0.39436459978E+02  0.15417740009E+03  0.16692955529E+03  0.00000000000E+00 0. -1.
         13    1    3    3    0    0  0.11996809558E+02  0.85221026447E+02 -0.72908755568E+02  0.11279287844E+03  0.00000000000E+00 0. -1.
        -14    1    3    3    0    0  0.51590252806E+02  0.54833898122E+00 -0.41661905732E+02  0.66314170804E+02  0.00000000000E+00 0.  1.
          5    1    4    4  501    0  0.24895772337E+02 -0.15276731558E+00  0.10054756063E+02  0.27173393928E+02  0.41800000000E+01 0. -1.
         -5    1    4    4    0  501 -0.11493963449E+03 -0.15388681214E+03  0.12438600147E+03  0.22887031325E+03  0.41800000000E+01 0. -1.
</event>
<event>
11    1  0.8039394E-009  0.1969939E+03  0.7561462E-02  0.1056670E+00
         22   -1    0    0    0    0  0.00000000000E+00  0.00000000000E+00  0.86134588143E+03  0.86134588143E+03  0.00000000000E+00 0.  1.
         22   -1    0    0    0    0 -0.00000000000E+00 -0.00000000000E+00 -0.22721130328E+03  0.22721130328E+03  0.00000000000E+00 0.  1.
        -24    2    1    2    0    0 -0.71010233282E+01  0.20746150749E+02 -0.15018701468E+03  0.17188084665E+03  0.80660143577E+02 0.  0.
         25    2    1    2    0    0  0.83837137915E+02  0.11341271803E+03  0.10566916307E+03  0.21611246491E+03  0.12509002821E+03 0.  0.
         24    2    1    2    0    0 -0.76736114587E+02 -0.13415886878E+03  0.67865242976E+03  0.70056387316E+03  0.79583833783E+02 0.  0.
        -13    1    5    5    0    0 -0.67105889270E+02 -0.14367012634E+03  0.64681996011E+03  0.66597324749E+03  0.00000000000E+00 0.  1.
         14    1    5    5    0    0 -0.96302253166E+01  0.95112575582E+01  0.31832469655E+02  0.34590625671E+02  0.00000000000E+00 0. -1.
         11    1    3    3    0    0  0.26426726288E+02 -0.17656068057E+02 -0.46284387263E+02  0.56145820021E+02  0.00000000000E+00 0. -1.
        -12    1    3    3    0    0 -0.33527749616E+02  0.38402218806E+02 -0.10390262742E+03  0.11573502663E+03  0.00000000000E+00 0.  1.
          5    1    4    4  501    0  0.98559493797E+02  0.13174485074E+03  0.93937980884E+02  0.18950592647E+03  0.41800000000E+01 0. -1.
         -5    1    4    4    0  501 -0.14722355882E+02 -0.18332132705E+02  0.11731182186E+02  0.26606538439E+02  0.41800000000E+01 0. -1.
</event>
<event>
11    1  0.8039394E-009  0.1349346E+03  0.7561462E-02  0.1113350E+00
         22   -1    0    0    0    0  0.00000000000E+00  0.00000000000E+00  0.16428992817E+04  0.16428992817E+04  0.00000000000E+00 0. -1.
         22   -1    0    0    0    0 -0.00000000000E+00 -0.00000000000E+00 -0.21498173304E+03  0.21498173304E+03  0.00000000000E+00 0.  1.
        -24    2    1    2    0    0  0.35084608597E+01 -0.56266015305E+01 -0.18897220115E+03  0.20587986218E+03  0.81437441654E+02 0.  0.
         25    2    1    2    0    0  0.11891623820E+02 -0.43220310487E+02  0.26233700678E+03  0.29406997648E+03  0.12508812888E+03 0.  0.
         24    2    1    2    0    0 -0.15400084679E+02  0.48846912017E+02  0.13545527430E+04  0.13579311761E+04  0.80874976933E+02 0.  0.
        -13    1    5    5    0    0  0.57659510743E+01 -0.99994304908E+01  0.34143607573E+02  0.36041930304E+02  0.00000000000E+00 0.  1.
         14    1    5    5    0    0 -0.21166035754E+02  0.58846342508E+02  0.13204091355E+04  0.13218892458E+04  0.00000000000E+00 0. -1.
         13    1    3    3    0    0 -0.94564116827E+01 -0.33649791770E+02 -0.37384389723E+02  0.51179339611E+02  0.00000000000E+00 0. -1.
        -14    1    3    3    0    0  0.12964872542E+02  0.28023190239E+02 -0.15158781142E+03  0.15470052257E+03  0.00000000000E+00 0.  1.
          5    1    4    4  501    0 -0.40975105547E+02 -0.11452753256E+02  0.26572994040E+02  0.50336082922E+02  0.41800000000E+01 0.  1.
         -5    1    4    4    0  501  0.52866729366E+02 -0.31767557230E+02  0.23576401274E+03  0.24373389356E+03  0.41800000000E+01 0.  1.
</event>
<event>
11    1  0.8039394E-009  0.1394493E+03  0.7561462E-02  0.1108175E+00
         22   -1    0    0    0    0  0.00000000000E+00  0.00000000000E+00  0.22294582360E+03  0.22294582360E+03  0.00000000000E+00 0. -1.
         22   -1    0    0    0    0 -0.00000000000E+00 -0.00000000000E+00 -0.38398866246E+03  0.38398866246E+03  0.00000000000E+00 0. -1.
        -24    2    1    2    0    0 -0.11620312407E+02  0.51507503263E+02 -0.19244785213E+03  0.21392900483E+03  0.77080404564E+02 0.  0.
         25    2    1    2    0    0  0.31809478374E+02 -0.85530777442E+02 -0.13384705705E+03  0.20467255550E+03  0.12509381876E+03 0.  0.
         24    2    1    2    0    0 -0.20189165966E+02  0.34023274179E+02  0.16525207031E+03  0.18833292572E+03  0.81214891261E+02 0.  0.
        -11    1    5    5    0    0 -0.75454090287E+01  0.16111467051E+02 -0.35259270279E+01  0.18136833499E+02  0.00000000000E+00 0.  1.
         12    1    5    5    0    0 -0.12643756938E+02  0.17911807127E+02  0.16877799734E+03  0.17019609223E+03  0.00000000000E+00 0. -1.
         13    1    3    3    0    0  0.82335690015E+00  0.57922315137E+02 -0.19130439342E+03  0.19988257415E+03  0.00000000000E+00 0. -1.
        -14    1    3    3    0    0 -0.12443669308E+02 -0.64148118739E+01 -0.11434587120E+01  0.14046430687E+02  0.00000000000E+00 0.  1.
          5    1    4    4  501    0 -0.20843919679E+02 -0.72346816105E+02 -0.12976115084E+03  0.15007984360E+03  0.41800000000E+01 0. -1.
         -5    1    4    4    0  501  0.52653398053E+02 -0.13183961337E+02 -0.40859062077E+01  0.54592711900E+02  0.41800000000E+01 0. -1.
</event>
<event>
11    1  0.8039394E-009  0.1309555E+03  0.7561462E-02  0.1118100E+00
         22   -1    0    0    0    0  0.00000000000E+00  0.00000000000E+00  0.21503083332E+03  0.21503083332E+03  0.00000000000E+00 0. -1.
         22   -1    0    0    0    0 -0.00000000000E+00 -0.00000000000E+00 -0.71984579367E+03  0.71984579367E+03  0.00000000000E+00 0.  1.
         24    2    1    2    0    0 -0.30297873650E+02 -0.20048905996E+02 -0.39940930753E+03  0.40934576821E+03  0.81952688951E+02 0.  0.
         25    2    1    2    0    0 -0.42920433105E+01  0.39091167194E+02 -0.28661004304E+03  0.31518385678E+03  0.12509598642E+03 0.  0.
        -24    2    1    2    0    0  0.34589916960E+02 -0.19042261198E+02  0.18120439021E+03  0.21034700200E+03  0.99256033328E+02 0.  0.
        -11    1    3    3    0    0 -0.23259097351E+02 -0.36422879137E+02 -0.38198120507E+03  0.38441807029E+03  0.00000000000E+00 0.  1.
         12    1    3    3    0    0 -0.70387762992E+01  0.16373973142E+02 -0.17428102457E+02  0.24927697918E+02  0.00000000000E+00 0. -1.
         13    1    5    5    0    0  0.25322528000E+02 -0.37684649705E+02  0.18383871089E+03  0.18936217909E+03  0.00000000000E+00 0. -1.
        -14    1    5    5    0    0  0.92673889605E+01  0.18642388507E+02 -0.26343206740E+01  0.20984822916E+02  0.00000000000E+00 0.  1.
          5    1    4    4  501    0  0.13612902702E+02  0.32291944044E+02 -0.29257283347E+03  0.29469376657E+03  0.41800000000E+01 0. -1.
         -5    1    4    4    0  501 -0.17904946012E+02  0.67992231500E+01  0.59627904340E+01  0.20490090212E+02  0.41800000000E+01 0. -1.
</event>
<event>
11    1  0.8039394E-009  0.1469502E+03  0.7561462E-02  0.1100036E+00
         22   -1    0    0    0    0  0.00000000000E+00  0.00000000000E+00  0.12919548455E+04  0.12919548455E+04  0.00000000000E+00 0.  1.
         22   -1    0    0    0    0 -0.00000000000E+00 -0.00000000000E+00 -0.36882740667E+03  0.36882740667E+03  0.00000000000E+00 0.  1.
         24    2    1    2    0    0 -0.39961148997E+02 -0.27631722840E+02 -0.28104141695E+03  0.30008198960E+03  0.93298000536E+02 0.  0.
         25    2    1    2    0    0 -0.15688504267E+02 -0.27966706816E+02 -0.20678722854E+02  0.13077998520E+03  0.12509008392E+03 0.  0.
        -24    2    1    2    0    0  0.55649653264E+02  0.55598429656E+02  0.12248475786E+04  0.12299202773E+04  0.79146879219E+02 0.  0.
        -13    1    3    3    0    0 -0.52439028315E+02 -0.53689202108E+02 -0.22217076820E+03  0.23450422673E+03  0.00000000000E+00 0.  1.
         14    1    3    3    0    0  0.12477879318E+02  0.26057479268E+02 -0.58870648754E+02  0.65577762868E+02  0.00000000000E+00 0. -1.
         13    1    5    5    0    0  0.70457707339E+02  0.20953994763E+02  0.75872849846E+03  0.76228098022E+03  0.00000000000E+00 0. -1.
        -14    1    5    5    0    0 -0.14808054074E+02  0.34644434894E+02  0.46611908016E+03  0.46763929713E+03  0.00000000000E+00 0.  1.
          5    1    4    4  501    0 -0.22391116760E+02  0.37963738067E+02 -0.42013749089E+02  0.61034703491E+02  0.41800000000E+01 0.  1.
         -5    1    4    4    0  501  0.67026124926E+01 -0.65930444883E+02  0.21335026235E+02  0.69745281712E+02  0.41800000000E+01 0.  1.
</event>
<event>
11    1  0.8039394E-009  0.1272306E+03  0.7561462E-02  0.1122719E+00
         22   -1    0    0    0    0  0.00000000000E+00  0.00000000000E+00  0.17087548152E+04  0.17087548152E+04  0.00000000000E+00 0.  1.
         22   -1    0    0    0    0 -0.00000000000E+00 -0.00000000000E+00 -0.31326050162E+03  0.31326050162E+03  0.00000000000E+00 0.  1.
        -24    2    1    2    0    0 -0.21524570427E+02  0.60963392565E+01 -0.28347820538E+03  0.29590955205E+03  0.81866339781E+02 0.  0.
         25    2    1    2    0    0  0.52135425782E+02 -0.52343700492E+01  0.18166260627E+03  0.22670361159E+03  0.12509086194E+03 0.  0.
         24    2    1    2    0    0 -0.30610855355E+02 -0.86196920731E+00  0.14973099127E+04  0.14994021531E+04  0.73021057693E+02 0.  0.
        -11    1    5    5    0    0 -0.11330956822E+02  0.16243211826E+02  0.13274676277E+04  0.13276153566E+04  0.00000000000E+00 0.  1.
         12    1    5    5    0    0 -0.19279898533E+02 -0.17105181033E+02  0.16984228497E+03  0.17178679655E+03  0.00000000000E+00 0. -1.
         11    1    3    3    0    0 -0.16059136727E+02  0.29117613104E+02 -0.43430908264E+02  0.54698949332E+02  0.00000000000E+00 0. -1.
        -12    1    3    3    0    0 -0.54654337003E+01 -0.23021273848E+02 -0.24004729711E+03  0.24121060272E+03  0.00000000000E+00 0.  1.
          5    1    4    4  501    0  0.90446857177E+02 -0.19704301317E+01  0.15569151869E+03  0.18011617906E+03  0.41800000000E+01 0.  1.
         -5    1    4    4    0  501 -0.38311431396E+02 -0.32639399175E+01  0.25971087580E+02  0.46587432527E+02  0.41800000000E+01 0.  1.
</event>
<event>
11    1  0.8039394E-009  0.2329506E+03  0.7561462E-02  0.1033395E+00
         22   -1    0    0    0    0  0.00000000000E+00  0.00000000000E+00  0.63840209688E+03  0.63840209688E+03  0.00000000000E+00 0. -1.
         22   -1    0    0    0    0 -0.00000000000E+00 -0.00000000000E+00 -0.20475035565E+03  0.20475035565E+03  0.00000000000E+00 0. -1.
        -24    2    1    2    0    0 -0.58159701547E+02 -0.61210279548E+02 -0.92973751755E+02  0.14820157158E+03  0.78678701681E+02 0.  0.
         25    2    1    2    0    0  0.10762148678E+03  0.21163465699E+03  0.37627915503E+03  0.46217352084E+03  0.12508696337E+03 0.  0.
         24    2    1    2    0    0 -0.49461785234E+02 -0.15042437744E+03  0.15034633795E+03  0.23277736011E+03  0.80667939818E+02 0.  0.
        -13    1    5    5    0    0  0.21166309392E+02 -0.55416992911E+02  0.51074240915E+02  0.78279204401E+02  0.00000000000E+00 0.  1.
         14    1    5    5    0    0 -0.70628094625E+02 -0.95007384531E+02  0.99272097039E+02  0.15449815571E+03  0.00000000000E+00 0. -1.
         13    1    3    3    0    0  0.66976514944E+01 -0.45427313344E+02 -0.22502428074E+02  0.51135688149E+02  0.00000000000E+00 0. -1.
        -14    1    3    3    0    0 -0.64857353042E+02 -0.15782966204E+02 -0.70471323681E+02  0.97065883435E+02  0.00000000000E+00 0.  1.
          5    1    4    4  501    0  0.92609696255E+02  0.65203650039E+02  0.21979684495E+03  0.24729779067E+03  0.41800000000E+01 0. -1.
         -5    1    4    4    0  501  0.15011790526E+02  0.14643100695E+03  0.15648231007E+03  0.21487573017E+03  0.41800000000E+01 0. -1.
</event>
<event>
11    1  0.8039394E-009  0.1283095E+03  0.7561462E-02  0.1121364E+00
         22   -1    0    0    0    0  0.00000000000E+00  0.00000000000E+00  0.10945782780E+04  0.10945782780E+04  0.00000000000E+00 0. -1.
         22   -1    0    0    0    0 -0.00000000000E+00 -0.00000000000E+00 -0.13164422626E+04  0.13164422626E+04  0.00000000000E+00 0. -1.
        -24    2    1    2    0    0 -0.13950353458E+02  0.61288373967E+01 -0.12573965692E+04  0.12599298375E+04  0.78389337355E+02 0.  0.
         25    2    1    2    0    0 -0.39811290320E+01  0.16662758989E+02  0.15377072062E+02  0.12719008210E+03  0.12508943086E+03 0.  0.
         24    2    1    2    0    0  0.17931482490E+02 -0.22791596385E+02  0.10201555126E+04  0.10239006210E+04  0.82548269638E+02 0.  0.
        -11    1    5    5    0    0  0.15280697261E+02 -0.32026903207E+01  0.32584511802E+02  0.36131805151E+02  0.00000000000E+00 0.  1.
         12    1    5    5    0    0  0.26507852287E+01 -0.19588906065E+02  0.98757100081E+03  0.98776881584E+03  0.00000000000E+00 0. -1.
         13    1    3    3    0    0 -0.92214114540E+01  0.12298122052E+01 -0.12493681427E+04  0.12494027784E+04  0.00000000000E+00 0. -1.
        -14    1    3    3    0    0 -0.47289420036E+01  0.48990251915E+01 -0.80284265743E+01  0.10527059113E+02  0.00000000000E+00 0.  1.
          5    1    4    4  501    0  0.29972044000E+02  0.59403458672E+02 -0.89820441044E+01  0.67269932659E+02  0.41800000000E+01 0.  1.
         -5    1    4    4    0  501 -0.33953173032E+02 -0.42740699683E+02  0.24359116167E+02  0.59920149439E+02  0.41800000000E+01 0.  1.
</event>
<event>
11    1  0.8039394E-009  0.3090152E+03  0.7561462E-02  0.9964464E-01
         22   -1    0    0    0    0  0.00000000000E+00  0.00000000000E+00  0.18777081685E+04  0.18777081685E+04  0.00000000000E+00 0. -1.
         22   -1    0    0    0    0 -0.00000000000E+00 -0.00000000000E+00 -0.65089890461E+03  0.65089890461E+03  0.00000000000E+00 0.  1.
         24    2    1    2    0    0 -0.93346806830E+02 -0.75798755374E+02 -0.48360377586E+03  0.50481196786E+03  0.80643866544E+02 0.  0.
         25    2    1    2    0    0  0.33628331930E+03 -0.60943691602E+02  0.86478285559E+02  0.37407003732E+03  0.12509714050E+03 0.  0.
        -24    2    1    2    0    0 -0.24293651247E+03  0.13674244698E+03  0.16239347542E+04  0.16497250679E+04  0.81927211379E+02 0.  0.
        -11    1    3    3    0    0 -0.48035829970E+02 -0.76067298430E+02 -0.39705250210E+03  0.40711713828E+03  0.00000000000E+00 0.  1.
         12    1    3    3    0    0 -0.45310976860E+02  0.26854305583E+00 -0.86551273754E+02  0.97694829586E+02  0.00000000000E+00 0. -1.
         11    1    5    5    0    0 -0.12093760934E+03  0.44069047654E+02  0.94455224369E+03  0.95328218665E+03  0.00000000000E+00 0. -1.
        -12    1    5    5    0    0 -0.12199890314E+03  0.92673399322E+02  0.67938251050E+03  0.69644288127E+03  0.00000000000E+00 0.  1.
          5    1    4    4  501    0  0.33495929261E+03 -0.55919236131E+02  0.10410970447E+03  0.35521963859E+03  0.41800000000E+01 0.  1.
         -5    1    4    4    0  501  0.13240266856E+01 -0.50244554713E+01 -0.17631418907E+02  0.18850398726E+02  0.41800000000E+01 0.  1.
</event>
<event>
11    1  0.8039394E-009  0.1456250E+03  0.7561462E-02  0.1101435E+00
         22   -1    0    0    0    0  0.00000000000E+00  0.00000000000E+00  0.82360018039E+03  0.82360018039E+03  0.00000000000E+00 0. -1.
         22   -1    0    0    0    0 -0.00000000000E+00 -0.00000000000E+00 -0.21741541563E+03  0.21741541563E+03  0.00000000000E+00 0.  1.
        -24    2    1    2    0    0 -0.75173333300E+02  0.10699422047E+02 -0.17200145593E+03  0.20388558388E+03  0.78862683184E+02 0.  0.
         25    2    1    2    0    0  0.61486221726E+02  0.25440094795E+02  0.16524417578E+03  0.21767709459E+03  0.12509966424E+03 0.  0.
         24    2    1    2    0    0  0.13687111573E+02 -0.36139516842E+02  0.61294204491E+03  0.61945291756E+03  0.80811910949E+02 0.  0.
        -13    1    5    5    0    0 -0.40351133431E+01  0.80913806761E+01  0.64850950639E+01  0.11126951017E+02  0.00000000000E+00 0.  1.
         14    1    5    5    0    0  0.17722224916E+02 -0.44230897518E+02  0.60645694984E+03  0.60832596654E+03  0.00000000000E+00 0. -1.
         13    1    3    3    0    0 -0.61260009750E+02 -0.84250574294E+01 -0.49743388113E+02  0.79361042383E+02  0.00000000000E+00 0. -1.
        -14    1    3    3    0    0 -0.13913323550E+02  0.19124479477E+02 -0.12225806782E+03  0.12452454149E+03  0.00000000000E+00 0.  1.
          5    1    4    4  501    0  0.80123502493E+02 -0.17758321717E+02  0.14419536337E+03  0.16596658959E+03  0.41800000000E+01 0.  1.
         -5    1    4    4    0  501 -0.18637280767E+02  0.43198416512E+02  0.21048812412E+02  0.51710505001E+02  0.41800000000E+01 0.  1.
</event>
<event>
11    1  0.8039394E-009  0.3540174E+03  0.7561462E-02  0.9796111E-01
         22   -1    0    0    0    0  0.00000000000E+00  0.00000000000E+00  0.18620510774E+03  0.18620510774E+03  0.00000000000E+00 0.  1.
         22   -1    0    0    0    0 -0.00000000000E+00 -0.00000000000E+00 -0.18754256838E+04  0.18754256838E+04  0.00000000000E+00 0.  1.
        -24    2    1    2    0    0 -0.31606619632E+03  0.11056713039E+02 -0.11303692841E+04  0.11764668448E+04  0.79494824625E+02 0.  0.
         25    2    1    2    0    0  0.36410799991E+03 -0.46260591296E+02 -0.64494374456E+03  0.75253841287E+03  0.12508777434E+03 0.  0.
         24    2    1    2    0    0 -0.48041803583E+02  0.35203878257E+02  0.86092452585E+02  0.13262553389E+03  0.81426616722E+02 0.  0.
        -13    1    5    5    0    0 -0.40862639154E+02  0.21517890794E+02  0.10105933050E+03  0.11111148988E+03  0.00000000000E+00 0.  1.
         14    1    5    5    0    0 -0.71791644285E+01  0.13685987463E+02 -0.14966877917E+02  0.21514044002E+02  0.00000000000E+00 0. -1.
         11    1    3    3    0    0 -0.36341129341E+02 -0.23419049799E+02 -0.12120638074E+03  0.12868611544E+03  0.00000000000E+00 0. -1.
        -12    1    3    3    0    0 -0.27972506698E+03  0.34475762838E+02 -0.10091629034E+04  0.10477807294E+04  0.00000000000E+00 0.  1.
          5    1    4    4  501    0  0.30914798151E+03 -0.20319899698E+02 -0.60490152457E+03  0.67963865372E+03  0.41800000000E+01 0. -1.
         -5    1    4    4    0  501  0.54960018396E+02 -0.25940691598E+02 -0.40042219988E+02  0.72899759151E+02  0.41800000000E+01 0. -1.
</event>
<event>
11    1  0.8039394E-009  0.4256719E+03  0.7561462E-02  0.9576908E-01
         22   -1    0    0    0    0  0.00000000000E+00  0.00000000000E+00  0.21999146604E+04  0.21999146604E+04  0.00000000000E+00 0.  1.
         22   -1    0    0    0    0 -0.00000000000E+00 -0.00000000000E+00 -0.16602586609E+03  0.16602586609E+03  0.00000000000E+00 0.  1.
         24    2    1    2    0    0  0.19672263094E+02 -0.45942103601E+01  0.32967205815E+02  0.89085307859E+02  0.80257402854E+02 0.  0.
         25    2    1    2    0    0 -0.39031564634E+03 -0.15605392505E+03  0.31163776826E+03  0.53801717236E+03  0.12508096518E+03 0.  0.
        -24    2    1    2    0    0  0.37064338325E+03  0.16064813541E+03  0.16892838203E+04  0.17388380463E+04  0.81814331690E+02 0.  0.
        -13    1    3    3    0    0 -0.19574203127E+02 -0.27409764911E+02  0.27261613478E+02  0.43331745984E+02  0.00000000000E+00 0.  1.
         14    1    3    3    0    0  0.39246466221E+02  0.22815554551E+02  0.57055923373E+01  0.45753561875E+02  0.00000000000E+00 0. -1.
         13    1    5    5    0    0  0.15626795501E+02  0.57578111724E+01  0.24743648120E+02  0.29826116902E+02  0.00000000000E+00 0. -1.
        -14    1    5    5    0    0  0.35501658774E+03  0.15489032424E+03  0.16645401721E+04  0.17090119294E+04  0.00000000000E+00 0.  1.
          5    1    4    4  501    0 -0.38128687207E+03 -0.12051519148E+03  0.29779614635E+03  0.49860165199E+03  0.41800000000E+01 0.  1.
         -5    1    4    4    0  501 -0.90287742688E+01 -0.35538733571E+02  0.13841621905E+02  0.39415520365E+02  0.41800000000E+01 0.  1.
</event>
<event>
11    1  0.8039394E-009  0.1486843E+03  0.7561462E-02  0.1098231E+00
         22   -1    0    0    0    0  0.00000000000E+00  0.00000000000E+00  0.55304484814E+03  0.55304484814E+03  0.00000000000E+00 0. -1.
         22   -1    0    0    0    0 -0.00000000000E+00 -0.00000000000E+00 -0.26560722449E+04  0.26560722449E+04  0.00000000000E+00 0. -1.
        -24    2    1    2    0    0  0.23552445600E+02 -0.76985840980E+02 -0.26140433019E+04  0.26164286857E+04  0.77428326627E+02 0.  0.
         25    2    1    2    0    0 -0.71422143049E+02  0.39025589379E+02  0.13227806750E+03  0.19943051969E+03  0.12510366061E+03 0.  0.
         24    2    1    2    0    0  0.47869697449E+02  0.37960251601E+02  0.37873783755E+03  0.39325788774E+03  0.86469231784E+02 0.  0.
        -11    1    5    5    0    0  0.46149130295E+02 -0.16860217058E+02  0.14235327952E+03  0.15059370949E+03  0.00000000000E+00 0.  1.
         12    1    5    5    0    0  0.17205671540E+01  0.54820468659E+02  0.23638455803E+03  0.24266417826E+03  0.00000000000E+00 0. -1.
         13    1    3    3    0    0  0.41024260016E+01 -0.74106752561E+02 -0.24621091885E+04  0.24632276177E+04  0.00000000000E+00 0. -1.
        -14    1    3    3    0    0  0.19450019599E+02 -0.28790884183E+01 -0.15193411340E+03  0.15320106797E+03  0.00000000000E+00 0.  1.
          5    1    4    4  501    0 -0.25131522285E+02  0.80147372287E+02  0.95669208539E+02  0.12737843051E+03  0.41800000000E+01 0. -1.
         -5    1    4    4    0  501 -0.46290620764E+02 -0.41121782909E+02  0.36608858959E+02  0.72052089176E+02  0.41800000000E+01 0. -1.
</event>
<event>
11    1  0.8039394E-009  0.1479715E+03  0.7561462E-02  0.1098970E+00
         22   -1    0    0    0    0  0.00000000000E+00  0.00000000000E+00  0.57662348554E+03  0.57662348554E+03  0.00000000000E+00 0. -1.
         22   -1    0    0    0    0 -0.00000000000E+00 -0.00000000000E+00 -0.49825743630E+03  0.49825743630E+03  0.00000000000E+00 0. -1.
         24    2    1    2    0    0 -0.51077483334E+02 -0.49318194604E+02 -0.29711466487E+03  0.31508824662E+03  0.77215836829E+02 0.  0.
         25    2    1    2    0    0  0.47602917120E+02  0.11365140657E+03 -0.14602446025E+03  0.22837175997E+03  0.12509131796E+03 0.  0.
        -24    2    1    2    0    0  0.34745662145E+01 -0.64333211967E+02  0.52150517435E+03  0.53142091524E+03  0.79307676186E+02 0.  0.
        -13    1    3    3    0    0  0.10686891324E+02  0.84569292234E+01 -0.95289052162E+02  0.96258676285E+02  0.00000000000E+00 0.  1.
         14    1    3    3    0    0 -0.61764374659E+02 -0.57775123827E+02 -0.20182561271E+03  0.21882957034E+03  0.00000000000E+00 0. -1.
         11    1    5    5    0    0  0.23294900331E+02 -0.37753395405E+02  0.45451288504E+03  0.45667267699E+03  0.00000000000E+00 0. -1.
        -12    1    5    5    0    0 -0.19820334117E+02 -0.26579816562E+02  0.66992289314E+02  0.74748238244E+02  0.00000000000E+00 0.  1.
          5    1    4    4  501    0  0.68388411040E+02  0.13101516701E+03 -0.11789115519E+03  0.18909718566E+03  0.41800000000E+01 0.  1.
         -5    1    4    4    0  501 -0.20785493920E+02 -0.17363760444E+02 -0.28133305057E+02  0.39274574315E+02  0.41800000000E+01 0.  1.
</event>
<event>
11    1  0.8039394E-009  0.1312756E+03  0.7561462E-02  0.1117712E+00
         22   -1    0    0    0    0  0.00000000000E+00  0.00000000000E+00  0.69538052854E+03  0.69538052854E+03  0.00000000000E+00 0.  1.
         22   -1    0    0    0    0 -0.00000000000E+00 -0.00000000000E+00 -0.26287055470E+03  0.26287055470E+03  0.00000000000E+00 0. -1.
        -24    2    1    2    0    0 -0.39714988385E+02 -0.36083801070E+01 -0.21975476626E+03  0.23722881496E+03  0.79969073036E+02 0.  0.
         25    2    1    2    0    0  0.34983200462E+02  0.35998398354E+02  0.11634300736E+03  0.17805333966E+03  0.12509031699E+03 0.  0.
         24    2    1    2    0    0  0.47317879237E+01 -0.32390018247E+02  0.53592173274E+03  0.54296892862E+03  0.80818628594E+02 0.  0.
        -11    1    5    5    0    0  0.38899032016E+02 -0.35656442117E+02  0.33756546789E+03  0.34166498455E+03  0.00000000000E+00 0.  1.
         12    1    5    5    0    0 -0.34167244093E+02  0.32664238695E+01  0.19835626485E+03  0.20130394407E+03  0.00000000000E+00 0. -1.
         11    1    3    3    0    0  0.19686921002E+02 -0.10560902861E+01 -0.11584844052E+03  0.11751404748E+03  0.00000000000E+00 0. -1.
        -12    1    3    3    0    0 -0.59401909387E+02 -0.25522898209E+01 -0.10390632574E+03  0.11971476748E+03  0.00000000000E+00 0.  1.
          5    1    4    4  501    0 -0.18732736319E+02 -0.17080269538E+02  0.96499615310E+02  0.99861399812E+02  0.41800000000E+01 0.  1.
         -5    1    4    4    0  501  0.53715936781E+02  0.53078667893E+02  0.19843392054E+02  0.78191939851E+02  0.41800000000E+01 0.  1.
</event>
<event>
11    1  0.8039394E-009  0.1489335E+03  0.7561462E-02  0.1097974E+00
         22   -1    0    0    0    0  0.00000000000E+00  0.00000000000E+00  0.14355090345E+03  0.14355090345E+03  0.00000000000E+00 0. -1.
         22   -1    0    0    0    0 -0.00000000000E+00 -0.00000000000E+00 -0.45025596524E+03  0.45025596524E+03  0.00000000000E+00 0. -1.
         24    2    1    2    0    0 -0.12261223397E+02 -0.69689515473E+02 -0.21195489717E+03  0.23729178703E+03  0.79847026192E+02 0.  0.
         25    2    1    2    0    0  0.25405521476E+02  0.10426847541E+03 -0.17172810184E+03  0.23802466581E+03  0.12509134696E+03 0.  0.
        -24    2    1    2    0    0 -0.13144298079E+02 -0.34578959937E+02  0.76977937216E+02  0.11849041585E+03  0.82133420657E+02 0.  0.
        -13    1    3    3    0    0  0.24375462444E+02  0.61049964883E+00 -0.28920302900E+02  0.37827500565E+02  0.00000000000E+00 0.  1.
         14    1    3    3    0    0 -0.36636685841E+02 -0.70300015122E+02 -0.18303459427E+03  0.19946428646E+03  0.00000000000E+00 0. -1.
         11    1    5    5    0    0 -0.44397163040E+02 -0.36930729370E+02  0.58020055449E+02  0.81861551977E+02  0.00000000000E+00 0. -1.
        -12    1    5    5    0    0  0.31252864961E+02  0.23517694337E+01  0.18957881767E+02  0.36628863876E+02  0.00000000000E+00 0.  1.
          5    1    4    4  501    0  0.53809476186E+02 -0.27245040178E+01 -0.56051309112E+02  0.77859516456E+02  0.41800000000E+01 0.  1.
         -5    1    4    4    0  501 -0.28403954710E+02  0.10699297943E+03 -0.11567679273E+03  0.16016514935E+03  0.41800000000E+01 0.  1.
</event>
<event>
11    1  0.8039394E-009  0.2987665E+03  0.7561462E-02  0.1000715E+00
         22   -1    0    0    0    0  0.00000000000E+00  0.00000000000E+00  0.67478753989E+03  0.67478753989E+03  0.00000000000E+00 0.  1.
         22   -1    0    0    0    0 -0.00000000000E+00 -0.00000000000E+00 -0.23254022280E+03  0.23254022280E+03  0.00000000000E+00 0.  1.
        -24    2    1    2    0    0 -0.22569145763E+03 -0.15508266702E+03 -0.41095023005E+02  0.28826537521E+03  0.80130256267E+02 0.  0.
         25    2    1    2    0    0  0.22984024070E+03  0.13079921535E+03  0.31460147461E+03  0.42960035133E+03  0.12508958014E+03 0.  0.
         24    2    1    2    0    0 -0.41487830616E+01  0.24283451663E+02  0.16874086548E+03  0.18946203615E+03  0.82555950929E+02 0.  0.
        -11    1    5    5    0    0 -0.85479664851E+01  0.25577648634E+02  0.72765711496E+01  0.27932639123E+02  0.00000000000E+00 0.  1.
         12    1    5    5    0    0  0.43991834235E+01 -0.12941969713E+01  0.16146429433E+03  0.16152939702E+03  0.00000000000E+00 0. -1.
         11    1    3    3    0    0 -0.61749208191E+02 -0.31719643010E+02 -0.45577366687E+02  0.83044547196E+02  0.00000000000E+00 0. -1.
        -12    1    3    3    0    0 -0.16394224944E+03 -0.12336302401E+03  0.44823436818E+01  0.20522082801E+03  0.00000000000E+00 0.  1.
          5    1    4    4  501    0 -0.24548798565E+01 -0.12300422121E+01  0.60962348807E+02  0.61167146501E+02  0.41800000000E+01 0. -1.
         -5    1    4    4    0  501  0.23229512055E+03  0.13202925757E+03  0.25363912580E+03  0.36843320483E+03  0.41800000000E+01 0. -1.
</event>
<event>
11    1  0.8039394E-009  0.2104410E+03  0.7561462E-02  0.1047376E+00
         22   -1    0    0    0    0  0.00000000000E+00  0.00000000000E+00  0.20627032072E+04  0.20627032072E+04  0.00000000000E+00 0. -1.
         22   -1    0    0    0    0 -0.00000000000E+00 -0.00000000000E+00 -0.70882878250E+03  0.70882878250E+03  0.00000000000E+00 0. -1.
        -24    2    1    2    0    0 -0.76857929958E+02 -0.18079127623E+01 -0.67484591346E+03  0.68390082461E+03  0.79955744280E+02 0.  0.
         25    2    1    2    0    0  0.22922501825E+03  0.27946373471E+02  0.70091072244E+03  0.74849772683E+03  0.12509155631E+03 0.  0.
         24    2    1    2    0    0 -0.15236708829E+03 -0.26138460708E+02  0.13278096157E+04  0.13391334383E+04  0.79379097563E+02 0.  0.
        -11    1    5    5    0    0 -0.13997606301E+03 -0.33137444789E+02  0.92903798877E+03  0.94010795819E+03  0.00000000000E+00 0.  1.
         12    1    5    5    0    0 -0.12391025287E+02  0.69989840806E+01  0.39877162694E+03  0.39902548007E+03  0.00000000000E+00 0. -1.
         11    1    3    3    0    0 -0.74881226433E+02 -0.78953827442E+01 -0.67305627786E+03  0.67725496551E+03  0.00000000000E+00 0. -1.
        -12    1    3    3    0    0 -0.19767035244E+01  0.60874699819E+01 -0.17896355997E+01  0.66458591005E+01  0.00000000000E+00 0.  1.
          5    1    4    4  501    0 -0.11163278711E+02 -0.88209876051E+01  0.85347583107E+02  0.86626271743E+02  0.41800000000E+01 0. -1.
         -5    1    4    4    0  501  0.24038829696E+03  0.36767361076E+02  0.61556313933E+03  0.66187145509E+03  0.41800000000E+01 0. -1.
</event>
<event>
11    1  0.8039394E-009  0.1401549E+03  0.7561462E-02  0.1107386E+00
         22   -1    0    0    0    0  0.00000000000E+00  0.00000000000E+00  0.13421246583E+03  0.13421246583E+03  0.00000000000E+00 0.  1.
         22   -1    0    0    0    0 -0.00000000000E+00 -0.00000000000E+00 -0.19469617321E+03  0.19469617321E+03  0.00000000000E+00 0.  1.
        -24    2    1    2    0    0 -0.54512936777E+02  0.32222787865E+02 -0.28188328373E+02  0.10674389983E+03  0.81177028528E+02 0.  0.
         25    2    1    2    0    0  0.50482409213E+02 -0.38197658887E+02 -0.40463583655E+02  0.14591778486E+03  0.12508862279E+03 0.  0.
         24    2    1    2    0    0  0.40305275636E+01  0.59748710223E+01  0.81682046540E+01  0.76246954349E+02  0.75464788107E+02 0.  0.
        -13    1    5    5    0    0  0.35533367728E+02  0.50832636171E+01  0.21705080695E+02  0.41947232555E+02  0.00000000000E+00 0.  1.
         14    1    5    5    0    0 -0.31502840164E+02  0.89160740512E+00 -0.13536876041E+02  0.34299721794E+02  0.00000000000E+00 0. -1.
         13    1    3    3    0    0 -0.33349214787E+02 -0.21782941992E+02  0.46261635218E+01  0.40100724154E+02  0.00000000000E+00 0. -1.
        -14    1    3    3    0    0 -0.21163721990E+02  0.54005729857E+02 -0.32814491895E+02  0.66643175676E+02  0.00000000000E+00 0.  1.
          5    1    4    4  501    0  0.23579405562E+02 -0.59183184119E+02  0.27686436782E+02  0.69589143053E+02  0.41800000000E+01 0. -1.
         -5    1    4    4    0  501  0.26903003651E+02  0.20985525232E+02 -0.68150020437E+02  0.76328641808E+02  0.41800000000E+01 0. -1.
</event>
<event>
11    1  0.8039394E-009  0.1425189E+03  0.7561462E-02  0.1104778E+00
         22   -1    0    0    0    0  0.00000000000E+00  0.00000000000E+00  0.11180331762E+03  0.11180331762E+03  0.00000000000E+00 0.  1.
         22   -1    0    0    0    0 -0.00000000000E+00 -0.00000000000E+00 -0.14949355367E+04  0.14949355367E+04  0.00000000000E+00 0.  1.
         24    2    1    2    0    0 -0.34226326458E+01 -0.68937209104E+02 -0.82113665649E+03  0.82797701882E+03  0.80724728841E+02 0.  0.
         25    2    1    2    0    0 -0.44842106697E+02  0.63864719167E+02 -0.64015535818E+03  0.65691444833E+03  0.12509273733E+03 0.  0.
        -24    2    1    2    0    0  0.48264739343E+02  0.50724899368E+01  0.78159795628E+02  0.12184738714E+03  0.79891281634E+02 0.  0.
        -13    1    3    3    0    0  0.33003723154E+02 -0.53398395022E+02 -0.60447241208E+03  0.60772323577E+03  0.00000000000E+00 0.  1.
         14    1    3    3    0    0 -0.36426355799E+02 -0.15538814082E+02 -0.21666424441E+03  0.22025378305E+03  0.00000000000E+00 0. -1.
         13    1    5    5    0    0  0.48537932751E+02 -0.50695956601E+01  0.62212390961E+01  0.49196905713E+02  0.00000000000E+00 0. -1.
        -14    1    5    5    0    0 -0.27319340821E+00  0.10142085597E+02  0.71938556532E+02  0.72650481422E+02  0.00000000000E+00 0.  1.
          5    1    4    4  501    0 -0.18018889670E+02  0.45897542604E+02 -0.69422235741E+02  0.85253645185E+02  0.41800000000E+01 0. -1.
         -5    1    4    4    0  501 -0.26823217027E+02  0.17967176564E+02 -0.57073312244E+03  0.57166080314E+03  0.41800000000E+01 0. -1.
</event>
<event>
11    1  0.8039394E-009  0.1364872E+03  0.7561462E-02  0.1111546E+00
         22   -1    0    0    0    0  0.00000000000E+00  0.00000000000E+00  0.28539936070E+03  0.28539936070E+03  0.00000000000E+00 0. -1.
         22   -1    0    0    0    0 -0.00000000000E+00 -0.00000000000E+00 -0.12814994110E+03  0.12814994110E+03  0.00000000000E+00 0.  1.
        -24    2    1    2    0    0 -0.47648239782E+02  0.21875077958E+02 -0.46751505927E+02  0.10381361263E+03  0.76437484724E+02 0.  0.
         25    2    1    2    0    0  0.69792466993E+02 -0.42467606416E-01  0.95438404803E+02  0.17212332103E+03  0.12508780228E+03 0.  0.
         24    2    1    2    0    0 -0.22144227211E+02 -0.21832610352E+02  0.10856252073E+03  0.13761236814E+03  0.78640404918E+02 0.  0.
        -11    1    5    5    0    0  0.19903044679E+02  0.15657139341E+02  0.18416545060E+02  0.31312079646E+02  0.00000000000E+00 0.  1.
         12    1    5    5    0    0 -0.42047271890E+02 -0.37489749693E+02  0.90145975668E+02  0.10630028850E+03  0.00000000000E+00 0. -1.
         11    1    3    3    0    0  0.13512562550E+02 -0.56148969835E+01  0.85051444572E+01  0.16924948952E+02  0.00000000000E+00 0. -1.
        -12    1    3    3    0    0 -0.61160802331E+02  0.27489974942E+02 -0.55256650384E+02  0.86888663678E+02  0.00000000000E+00 0.  1.
          5    1    4    4  501    0 -0.41922385682E+01  0.47864953704E+02  0.60126607608E+02  0.77079893616E+02  0.41800000000E+01 0.  1.
         -5    1    4    4    0  501  0.73984705561E+02 -0.47907421311E+02  0.35311797195E+02  0.95043427415E+02  0.41800000000E+01 0.  1.
</event>
<event>
11    1  0.8039394E-009  0.1683054E+03  0.7561462E-02  0.1079516E+00
         22   -1    0    0    0    0  0.00000000000E+00  0.00000000000E+00  0.79955335984E+03  0.79955335984E+03  0.00000000000E+00 0. -1.
         22   -1    0    0    0    0 -0.00000000000E+00 -0.00000000000E+00 -0.61931850839E+03  0.61931850839E+03  0.00000000000E+00 0. -1.
         24    2    1    2    0    0 -0.92509350493E+02  0.62635410852E+02 -0.57173512305E+03  0.58811614161E+03  0.80736425941E+02 0.  0.
         25    2    1    2    0    0  0.12628572242E+03 -0.61561207079E+02  0.21083588719E+03  0.28255529764E+03  0.12509140255E+03 0.  0.
        -24    2    1    2    0    0 -0.33776371926E+02 -0.10742037725E+01  0.54113408731E+03  0.54820042898E+03  0.80966738045E+02 0.  0.
        -13    1    3    3    0    0 -0.65898370943E+02  0.78513746321E+02 -0.36687421086E+03  0.38092478293E+03  0.00000000000E+00 0.  1.
         14    1    3    3    0    0 -0.26610979551E+02 -0.15878335470E+02 -0.20486091219E+03  0.20719135868E+03  0.00000000000E+00 0. -1.
         13    1    5    5    0    0 -0.19104764994E+02 -0.23201062549E+02  0.48680013949E+03  0.48772703140E+03  0.00000000000E+00 0. -1.
        -14    1    5    5    0    0 -0.14671606933E+02  0.22126858776E+02  0.54333947822E+02  0.60473397583E+02  0.00000000000E+00 0.  1.
          5    1    4    4  501    0  0.11673890552E+02 -0.62353143501E+02  0.34860664440E+02  0.72504707091E+02  0.41800000000E+01 0.  1.
         -5    1    4    4    0  501  0.11461183187E+03  0.79193642178E+00  0.17597522275E+03  0.21005059055E+03  0.41800000000E+01 0.  1.
</event>
<event>
11    1  0.8039394E-009  0.1609784E+03  0.7561462E-02  0.1086161E+00
         22   -1    0    0    0    0  0.00000000000E+00  0.00000000000E+00  0.31931166017E+03  0.31931166017E+03  0.00000000000E+00 0. -1.
         22   -1    0    0    0    0 -0.00000000000E+00 -0.00000000000E+00 -0.60672237401E+03  0.60672237401E+03  0.00000000000E+00 0.  1.
        -24    2    1    2    0    0 -0.23052696825E+02  0.39742164740E+02 -0.51432496705E+03  0.52283606967E+03  0.81954362436E+02 0.  0.
         25    2    1    2    0    0 -0.29984080802E+02 -0.12029844574E+03  0.43632347642E+02  0.18144454095E+03  0.12509028153E+03 0.  0.
         24    2    1    2    0    0  0.53036777627E+02  0.80556280998E+02  0.18328190557E+03  0.22175342356E+03  0.79247143565E+02 0.  0.
        -13    1    5    5    0    0  0.16767348220E+02  0.30619619598E+02  0.78500010277E+01  0.35781665512E+02  0.00000000000E+00 0.  1.
         14    1    5    5    0    0  0.36269429407E+02  0.49936661400E+02  0.17543190454E+03  0.18597175805E+03  0.00000000000E+00 0. -1.
         11    1    3    3    0    0  0.19752058620E+02 -0.46376855200E+01 -0.43595350867E+02  0.48085409054E+02  0.00000000000E+00 0. -1.
        -12    1    3    3    0    0 -0.42804755446E+02  0.44379850260E+02 -0.47072961618E+03  0.47475066061E+03  0.00000000000E+00 0.  1.
          5    1    4    4  501    0 -0.78748084458E+02 -0.83533081218E+02  0.30075138398E+02  0.11874772761E+03  0.41800000000E+01 0.  1.
         -5    1    4    4    0  501  0.48764003656E+02 -0.36765364520E+02  0.13557209244E+02  0.62696813342E+02  0.41800000000E+01 0.  1.
</event>
<event>
11    1  0.8039394E-009  0.1367647E+03  0.7561462E-02  0.1111226E+00
         22   -1    0    0    0    0  0.00000000000E+00  0.00000000000E+00  0.10341735176E+04  0.10341735176E+04  0.00000000000E+00 0. -1.
         22   -1    0    0    0    0 -0.00000000000E+00 -0.00000000000E+00 -0.52180904020E+02  0.52180904020E+02  0.00000000000E+00 0.  1.
         24    2    1    2    0    0 -0.33215408864E+02 -0.13373532812E+02  0.19427537397E+02  0.89827988137E+02  0.80059499608E+02 0.  0.
         25    2    1    2    0    0 -0.92344761988E+01  0.53273590174E+02  0.34428576532E+03  0.37027997060E+03  0.12510482589E+03 0.  0.
        -24    2    1    2    0    0  0.42449885063E+02 -0.39900057361E+02  0.61827931090E+03  0.62624646292E+03  0.80754682324E+02 0.  0.
        -11    1    3    3    0    0 -0.16513220927E+02 -0.76818301559E+01 -0.31248053864E+02  0.36168188373E+02  0.00000000000E+00 0.  1.
         12    1    3    3    0    0 -0.16702187938E+02 -0.56917026563E+01  0.50675591261E+02  0.53659799764E+02  0.00000000000E+00 0. -1.
         11    1    5    5    0    0  0.58167884197E+02 -0.39697926525E+02  0.58730074579E+03  0.59150789862E+03  0.00000000000E+00 0. -1.
        -12    1    5    5    0    0 -0.15717999133E+02 -0.20213083654E+00  0.30978565102E+02  0.34738564297E+02  0.00000000000E+00 0.  1.
          5    1    4    4  501    0 -0.51631146734E+02  0.63631571553E+01  0.25799618180E+03  0.26322189747E+03  0.41800000000E+01 0.  1.
         -5    1    4    4    0  501  0.42396670535E+02  0.46910433018E+02  0.86289583522E+02  0.10705807313E+03  0.41800000000E+01 0.  1.
</event>
<event>
11    1  0.8039394E-009  0.1414107E+03  0.7561462E-02  0.1105993E+00
         22   -1    0    0    0    0  0.00000000000E+00  0.00000000000E+00  0.71921659253E+03  0.71921659253E+03  0.00000000000E+00 0. -1.
         22   -1    0    0    0    0 -0.00000000000E+00 -0.00000000000E+00 -0.18921151038E+03  0.18921151038E+03  0.00000000000E+00 0.  1.
         24    2    1    2    0    0 -0.66623442048E+02 -0.67015365045E+01 -0.15253096963E+03  0.18510432458E+03  0.80711341588E+02 0.  0.
         25    2    1    2    0    0  0.46645014193E+02 -0.45174400593E+02  0.36325159071E+03  0.38963508629E+03  0.12508916218E+03 0.  0.
        -24    2    1    2    0    0  0.19978427855E+02  0.51875937098E+02  0.31928446108E+03  0.33368869204E+03  0.79469023381E+02 0.  0.
        -13    1    3    3    0    0 -0.81590688049E+02 -0.64907851980E+00 -0.14683912667E+03  0.16798568630E+03  0.00000000000E+00 0.  1.
         14    1    3    3    0    0  0.14967246001E+02 -0.60524579847E+01 -0.56918429613E+01  0.17118638287E+02  0.00000000000E+00 0. -1.
         13    1    5    5    0    0  0.28602582281E+02  0.69788082557E+02  0.22413701186E+03  0.23648654140E+03  0.00000000000E+00 0. -1.
        -14    1    5    5    0    0 -0.86241544262E+01 -0.17912145459E+02  0.95147449219E+02  0.97202150632E+02  0.00000000000E+00 0.  1.
          5    1    4    4  501    0  0.44740381216E+02  0.29851547455E+01  0.32929743649E+02  0.55789365267E+02  0.41800000000E+01 0.  1.
         -5    1    4    4    0  501  0.19046329777E+01 -0.48159555339E+02  0.33032184706E+03  0.33384572102E+03  0.41800000000E+01 0.  1.
</event>
<event>
11    1  0.8039394E-009  0.1986615E+03  0.7561462E-02  0.1055474E+00
         22   -1    0    0    0    0  0.00000000000E+00  0.00000000000E+00  0.66993904513E+03  0.66993904513E+03  0.00000000000E+00 0.  1.
         22   -1    0    0    0    0 -0.00000000000E+00 -0.00000000000E+00 -0.38756644454E+03  0.38756644454E+03  0.00000000000E+00 0. -1.
         24    2    1    2    0    0  0.12045433320E+03  0.88397699983E+02 -0.24329409495E+03  0.29641522621E+03  0.79665362264E+02 0.  0.
         25    2    1    2    0    0 -0.19549583567E+03 -0.24438985943E+02  0.14012653553E+02  0.23378857464E+03  0.12507940427E+03 0.  0.
        -24    2    1    2    0    0  0.75041502471E+02 -0.63958714040E+02  0.51165404198E+03  0.52730168882E+03  0.80841005401E+02 0.  0.
        -13    1    3    3    0    0  0.10961688803E+03  0.90255466581E+02 -0.16644130508E+03  0.21877984236E+03  0.00000000000E+00 0.  1.
         14    1    3    3    0    0  0.10837445173E+02 -0.18577665981E+01 -0.76852789867E+02  0.77635383846E+02  0.00000000000E+00 0. -1.
         13    1    5    5    0    0  0.20384513669E+02 -0.69630318594E+02  0.29041081630E+03  0.29933651947E+03  0.00000000000E+00 0. -1.
        -14    1    5    5    0    0  0.54656988802E+02  0.56716045541E+01  0.22124322569E+03  0.22796516935E+03  0.00000000000E+00 0.  1.
          5    1    4    4  501    0 -0.28555416297E+02 -0.44256143296E+02  0.36372637661E+02  0.64144050306E+02  0.41800000000E+01 0.  1.
         -5    1    4    4    0  501 -0.16694041937E+03  0.19817157353E+02 -0.22359984108E+02  0.16964452433E+03  0.41800000000E+01 0.  1.
</event>
<event>
11    1  0.8039394E-009  0.7310780E+03  0.7561462E-02  0.8987720E-01
         22   -1    0    0    0    0  0.00000000000E+00  0.00000000000E+00  0.80881909832E+03  0.80881909832E+03  0.00000000000E+00 0.  1.
         22   -1    0    0    0    0 -0.00000000000E+00 -0.00000000000E+00 -0.10864551073E+04  0.10864551073E+04  0.00000000000E+00 0.  1.
        -24    2    1    2    0    0 -0.54707511318E+02  0.31711423084E+02 -0.17895216188E+03  0.20700554933E+03  0.82637128832E+02 0.  0.
         25    2    1    2    0    0 -0.64515118188E+03 -0.24240835884E+03 -0.49048066008E+03  0.85510344366E+03  0.12509501000E+03 0.  0.
         24    2    1    2    0    0  0.69985869320E+03  0.21069693576E+03  0.39179681294E+03  0.83316521266E+03  0.80399874227E+02 0.  0.
        -11    1    5    5    0    0  0.58053327632E+03  0.20145327857E+03  0.31053151587E+03  0.68849991337E+03  0.00000000000E+00 0.  1.
         12    1    5    5    0    0  0.11932541689E+03  0.92436571881E+01  0.81265297066E+02  0.14466529930E+03  0.00000000000E+00 0. -1.
         13    1    3    3    0    0 -0.32806974651E+02  0.59679281123E+02 -0.10844461650E+03  0.12805525772E+03  0.00000000000E+00 0. -1.
        -14    1    3    3    0    0 -0.21900536667E+02 -0.27967858040E+02 -0.70507545379E+02  0.78950291608E+02  0.00000000000E+00 0.  1.
          5    1    4    4  501    0 -0.35629568788E+03 -0.19880676001E+03 -0.29734815475E+03  0.50488032499E+03  0.41800000000E+01 0.  1.
         -5    1    4    4    0  501 -0.28885549401E+03 -0.43601598831E+02 -0.19313250533E+03  0.35022311867E+03  0.41800000000E+01 0.  1.
</event>
<event>
11    1  0.8039394E-009  0.1317624E+03  0.7561462E-02  0.1117122E+00
         22   -1    0    0    0    0  0.00000000000E+00  0.00000000000E+00  0.14571454992E+04  0.14571454992E+04  0.00000000000E+00 0. -1.
         22   -1    0    0    0    0 -0.00000000000E+00 -0.00000000000E+00 -0.95960328044E+03  0.95960328044E+03  0.00000000000E+00 0. -1.
         24    2    1    2    0    0  0.14768838790E+02 -0.25708031858E+02 -0.84966064737E+03  0.85441467271E+03  0.84983502842E+02 0.  0.
         25    2    1    2    0    0 -0.55919598328E+02  0.27142671738E+02 -0.60031895008E+02  0.15203589320E+03  0.12508940122E+03 0.  0.
        -24    2    1    2    0    0  0.41150759538E+02 -0.14346398795E+01  0.14072347612E+04  0.14102982137E+04  0.83282263856E+02 0.  0.
        -11    1    3    3    0    0  0.36103998092E+02  0.17086347915E+02 -0.29411327245E+03  0.29681317187E+03  0.00000000000E+00 0.  1.
         12    1    3    3    0    0 -0.21335159303E+02 -0.42794379773E+02 -0.55554737492E+03  0.55760150084E+03  0.00000000000E+00 0. -1.
         11    1    5    5    0    0 -0.81172376013E+01  0.38248902957E+01  0.10027338823E+04  0.10027740314E+04  0.00000000000E+00 0. -1.
        -12    1    5    5    0    0  0.49267997140E+02 -0.52595301752E+01  0.40450087887E+03  0.40752418236E+03  0.00000000000E+00 0.  1.
          5    1    4    4  501    0 -0.55406308081E+02  0.59421016785E+02  0.26610161095E+01  0.81395759212E+02  0.41800000000E+01 0.  1.
         -5    1    4    4    0  501 -0.51329024665E+00 -0.32278345047E+02 -0.62692911117E+02  0.70640133991E+02  0.41800000000E+01 0.  1.
</event>
<event>
11    1  0.8039394E-009  0.2557595E+03  0.7561462E-02  0.1020875E+00
         22   -1    0    0    0    0  0.00000000000E+00  0.00000000000E+00  0.83268820091E+03  0.83268820091E+03  0.00000000000E+00 0.  1.
         22   -1    0    0    0    0 -0.00000000000E+00 -0.00000000000E+00 -0.38651205034E+03  0.38651205034E+03  0.00000000000E+00 0. -1.
        -24    2    1    2    0    0  0.34764136630E+02 -0.22022554242E+03 -0.30968990026E+03  0.38985831878E+03  0.79836330521E+02 0.  0.
         25    2    1    2    0    0 -0.51160538733E+02  0.21963023471E+03  0.55539209033E+03  0.61234207042E+03  0.12509035331E+03 0.  0.
         24    2    1    2    0    0  0.16396402103E+02  0.59530770993E+00  0.20047396051E+03  0.21699986204E+03  0.81424412132E+02 0.  0.
        -13    1    5    5    0    0 -0.31890695066E+02 -0.94489309368E+01  0.92387207172E+02  0.98192131949E+02  0.00000000000E+00 0.  1.
         14    1    5    5    0    0  0.48287097169E+02  0.10044238647E+02  0.10808675333E+03  0.11880773009E+03  0.00000000000E+00 0. -1.
         13    1    3    3    0    0  0.82149334374E+00 -0.15396391644E+03 -0.25346346112E+03  0.29656245302E+03  0.00000000000E+00 0. -1.
        -14    1    3    3    0    0  0.33942643286E+02 -0.66261625978E+02 -0.56226439145E+02  0.93295865768E+02  0.00000000000E+00 0.  1.
          5    1    4    4  501    0 -0.21036457097E+02  0.50463368227E+02  0.29690904538E+03  0.30192968998E+03  0.41800000000E+01 0.  1.
         -5    1    4    4    0  501 -0.30124081636E+02  0.16916686648E+03  0.25848304494E+03  0.31041238044E+03  0.41800000000E+01 0.  1.
</event>
<event>
11    1  0.8039394E-009  0.1350268E+03  0.7561462E-02  0.1113242E+00
         22   -1    0    0    0    0  0.00000000000E+00  0.00000000000E+00  0.13945256005E+04  0.13945256005E+04  0.00000000000E+00 0.  1.
         22   -1    0    0    0    0 -0.00000000000E+00 -0.00000000000E+00 -0.40881058471E+03  0.40881058471E+03  0.00000000000E+00 0. -1.
         24    2    1    2    0    0 -0.14703972174E+02  0.57679888542E+02 -0.27405204787E+03  0.29093508458E+03  0.77430757193E+02 0.  0.
         25    2    1    2    0    0  0.21258357763E+02 -0.11843399764E+02 -0.92229999887E+02  0.15730901833E+03  0.12509024932E+03 0.  0.
        -24    2    1    2    0    0 -0.65543855887E+01 -0.45836488778E+02  0.13519970635E+04  0.13550920823E+04  0.78959154014E+02 0.  0.
        -13    1    3    3    0    0 -0.22630245670E+02 -0.12049707334E+02 -0.50645577163E+02  0.56765288267E+02  0.00000000000E+00 0.  1.
         14    1    3    3    0    0  0.79262734954E+01  0.69729595876E+02 -0.22340647070E+03  0.23416979631E+03  0.00000000000E+00 0. -1.
         11    1    5    5    0    0  0.22473858809E+02  0.12443065636E+02  0.30978596830E+03  0.31084924058E+03  0.00000000000E+00 0. -1.
        -12    1    5    5    0    0 -0.29028244397E+02 -0.58279554414E+02  0.10422110952E+04  0.10442428417E+04  0.00000000000E+00 0.  1.
          5    1    4    4  501    0 -0.34916721280E+02 -0.29030541572E+02  0.26048064090E+01  0.45675017081E+02  0.41800000000E+01 0.  1.
         -5    1    4    4    0  501  0.56175079043E+02  0.17187141809E+02 -0.94834806296E+02  0.11163400125E+03  0.41800000000E+01 0.  1.
</event>
<event>
11    1  0.8039394E-009  0.2608160E+03  0.7561462E-02  0.1018290E+00
         22   -1    0    0    0    0  0.00000000000E+00  0.00000000000E+00  0.30345281245E+03  0.30345281245E+03  0.00000000000E+00 0. -1.
         22   -1    0    0    0    0 -0.00000000000E+00 -0.00000000000E+00 -0.51379886529E+03  0.51379886529E+03  0.00000000000E+00 0.  1.
        -24    2    1    2    0    0 -0.17389030903E+03 -0.14295197185E+03 -0.34572015247E+03  0.42074463877E+03  0.82646968495E+02 0.  0.
         25    2    1    2    0    0  0.19752721332E+03  0.15518763204E+03  0.13426470578E+03  0.31108658187E+03  0.12509056344E+03 0.  0.
         24    2    1    2    0    0 -0.23636904294E+02 -0.12235660189E+02  0.11093938508E+01  0.85420457104E+02  0.81160391278E+02 0.  0.
        -13    1    5    5    0    0 -0.48019695518E+02  0.12163788283E+02 -0.68833720075E+01  0.50012295620E+02  0.00000000000E+00 0.  1.
         14    1    5    5    0    0  0.24382791224E+02 -0.24399448472E+02  0.79927658583E+01  0.35408161484E+02  0.00000000000E+00 0. -1.
         13    1    3    3    0    0 -0.23195473147E+02 -0.28650556492E+01 -0.87549013225E+02  0.90614944877E+02  0.00000000000E+00 0. -1.
        -14    1    3    3    0    0 -0.15069483588E+03 -0.14008691620E+03 -0.25817113925E+03  0.33012969389E+03  0.00000000000E+00 0.  1.
          5    1    4    4  501    0  0.40060996249E+02 -0.86991738982E+01 -0.92846049704E+01  0.42240209948E+02  0.41800000000E+01 0.  1.
         -5    1    4    4    0  501  0.15746621707E+03  0.16388680594E+03  0.14354931075E+03  0.26884637192E+03  0.41800000000E+01 0.  1.
</event>
<event>
11    1  0.8039394E-009  0.1313014E+03  0.7561462E-02  0.1117680E+00
         22   -1    0    0    0    0  0.00000000000E+00  0.00000000000E+00  0.28141533769E+03  0.28141533769E+03  0.00000000000E+00 0. -1.
         22   -1    0    0    0    0 -0.00000000000E+00 -0.00000000000E+00 -0.95020717797E+03  0.95020717797E+03  0.00000000000E+00 0. -1.
        -24    2    1    2    0    0  0.94203021029E+01 -0.77328586268E+01 -0.87679910924E+03  0.87890935765E+03  0.59635910489E+02 0.  0.
         25    2    1    2    0    0  0.27398904216E+02  0.24766965476E+02  0.51874895887E+01  0.13053786904E+03  0.12509645348E+03 0.  0.
         24    2    1    2    0    0 -0.36819206319E+02 -0.17034106849E+02  0.20281977937E+03  0.22217528897E+03  0.81118317151E+02 0.  0.
        -11    1    5    5    0    0 -0.25866131669E+02  0.17899407462E+02  0.23785020424E+02  0.39435678663E+02  0.00000000000E+00 0.  1.
         12    1    5    5    0    0 -0.10953074650E+02 -0.34933514311E+02  0.17903475894E+03  0.18273961031E+03  0.00000000000E+00 0. -1.
         13    1    3    3    0    0 -0.11695334038E+02  0.20718676869E+02 -0.45646197632E+03  0.45708159035E+03  0.00000000000E+00 0. -1.
        -14    1    3    3    0    0  0.21115636141E+02 -0.28451535495E+02 -0.42033713292E+03  0.42182776730E+03  0.00000000000E+00 0.  1.
          5    1    4    4  501    0  0.59961672132E+02  0.36051551015E+02 -0.34239213565E+02  0.78005849787E+02  0.41800000000E+01 0. -1.
         -5    1    4    4    0  501 -0.32562767916E+02 -0.11284585539E+02  0.39426703154E+02  0.52532019252E+02  0.41800000000E+01 0. -1.
</event>
<event>
11    1  0.8039394E-009  0.1986026E+03  0.7561462E-02  0.1055516E+00
         22   -1    0    0    0    0  0.00000000000E+00  0.00000000000E+00  0.70774291909E+03  0.70774291909E+03  0.00000000000E+00 0. -1.
         22   -1    0    0    0    0 -0.00000000000E+00 -0.00000000000E+00 -0.10000636872E+04  0.10000636872E+04  0.00000000000E+00 0. -1.
        -24    2    1    2    0    0  0.23543916600E+00  0.10899096102E+03 -0.87861766400E+03  0.88913446490E+03  0.81926870815E+02 0.  0.
         25    2    1    2    0    0 -0.80809473298E+02 -0.22857360587E+03  0.76424869325E+02  0.28330236961E+03  0.12507360914E+03 0.  0.
         24    2    1    2    0    0  0.80574034132E+02  0.11958264485E+03  0.50987202653E+03  0.53536977181E+03  0.76544922749E+02 0.  0.
        -11    1    5    5    0    0  0.52981001048E+02  0.15111735178E+02  0.16321482333E+03  0.17226267607E+03  0.00000000000E+00 0.  1.
         12    1    5    5    0    0  0.27593033084E+02  0.10447090967E+03  0.34665720321E+03  0.36310709574E+03  0.00000000000E+00 0. -1.
         11    1    3    3    0    0 -0.26026662046E+02  0.93683158335E+02 -0.77722285127E+03  0.78328110013E+03  0.00000000000E+00 0. -1.
        -12    1    3    3    0    0  0.26262101212E+02  0.15307802687E+02 -0.10139481273E+03  0.10585336476E+03  0.00000000000E+00 0.  1.
          5    1    4    4  501    0 -0.48497749274E+02 -0.61187002610E+02 -0.28337899013E+02  0.83164835679E+02  0.41800000000E+01 0.  1.
         -5    1    4    4    0  501 -0.32311724024E+02 -0.16738660326E+03  0.10476276834E+03  0.20013753394E+03  0.41800000000E+01 0.  1.
</event>
<event>
11    1  0.8039394E-009  0.1352647E+03  0.7561462E-02  0.1112964E+00
         22   -1    0    0    0    0  0.00000000000E+00  0.00000000000E+00  0.47968156645E+02  0.47968156645E+02  0.00000000000E+00 0. -1.
         22   -1    0    0    0    0 -0.00000000000E+00 -0.00000000000E+00 -0.10839161059E+04  0.10839161059E+04  0.00000000000E+00 0.  1.
        -24    2    1    2    0    0 -0.51433150592E+01 -0.49601021931E+02 -0.80039380278E+03  0.80581823626E+03  0.78905483337E+02 0.  0.
         25    2    1    2    0    0  0.35875844293E+01  0.68827732559E+02 -0.14510378443E+03  0.20359735932E+03  0.12508656577E+03 0.  0.
         24    2    1    2    0    0  0.15557306299E+01 -0.19226710629E+02 -0.90450362072E+02  0.12246866698E+03  0.80282125619E+02 0.  0.
        -13    1    5    5    0    0 -0.33850042638E+02 -0.38695024836E+01 -0.14010274733E+02  0.36838651362E+02  0.00000000000E+00 0.  1.
         14    1    5    5    0    0  0.35405773268E+02 -0.15357208145E+02 -0.76440087339E+02  0.85630015620E+02  0.00000000000E+00 0. -1.
         11    1    3    3    0    0  0.27980063540E+02  0.59365239924E+01 -0.26053190599E+03  0.26209731077E+03  0.00000000000E+00 0. -1.
        -12    1    3    3    0    0 -0.33123378599E+02 -0.55537545923E+02 -0.53986189679E+03  0.54372092549E+03  0.00000000000E+00 0.  1.
          5    1    4    4  501    0 -0.45352464474E+02 -0.38018079003E+01 -0.17856976145E+02  0.49067746782E+02  0.41800000000E+01 0. -1.
         -5    1    4    4    0  501  0.48940048904E+02  0.72629540460E+02 -0.12724680828E+03  0.15452961254E+03  0.41800000000E+01 0. -1.
</event>
<event>
11    1  0.8039394E-009  0.1745544E+03  0.7561462E-02  0.1074135E+00
         22   -1    0    0    0    0  0.00000000000E+00  0.00000000000E+00  0.11119417632E+04  0.11119417632E+04  0.00000000000E+00 0.  1.
         22   -1    0    0    0    0 -0.00000000000E+00 -0.00000000000E+00 -0.54196311935E+03  0.54196311935E+03  0.00000000000E+00 0.  1.
        -24    2    1    2    0    0 -0.56431218144E+02 -0.56061991739E+02 -0.50142000049E+03  0.51406033349E+03  0.80675772540E+02 0.  0.
         25    2    1    2    0    0  0.14305892970E+02  0.16271109818E+03  0.35802717305E+03  0.41292915558E+03  0.12508985106E+03 0.  0.
         24    2    1    2    0    0  0.42125325174E+02 -0.10664910644E+03  0.71337147127E+03  0.72691539345E+03  0.79740568627E+02 0.  0.
        -11    1    5    5    0    0  0.14764147515E+02 -0.56758796482E+02  0.56453348817E+03  0.56757166974E+03  0.00000000000E+00 0.  1.
         12    1    5    5    0    0  0.27361177659E+02 -0.49890309963E+02  0.14883798309E+03  0.15934372370E+03  0.00000000000E+00 0. -1.
         13    1    3    3    0    0 -0.21662957358E+01 -0.35520792765E+02 -0.67765630061E+02  0.76541493149E+02  0.00000000000E+00 0. -1.
        -14    1    3    3    0    0 -0.54264922408E+02 -0.20541198974E+02 -0.43365437043E+03  0.43751884034E+03  0.00000000000E+00 0.  1.
          5    1    4    4  501    0  0.42579347782E+02  0.46879900119E+01  0.53586253598E+02  0.68730903403E+02  0.41800000000E+01 0.  1.
         -5    1    4    4    0  501 -0.28273454812E+02  0.15802310817E+03  0.30444091945E+03  0.34419825217E+03  0.41800000000E+01 0.  1.
</event>
<event>
11    1  0.8039394E-009  0.1813958E+03  0.7561462E-02  0.1068519E+00
         22   -1    0    0    0    0  0.00000000000E+00  0.00000000000E+00  0.16031020718E+04  0.16031020718E+04  0.00000000000E+00 0. -1.
         22   -1    0    0    0    0 -0.00000000000E+00 -0.00000000000E+00 -0.40906680229E+03  0.40906680229E+03  0.00000000000E+00 0.  1.
         24    2    1    2    0    0 -0.12600283913E+03  0.21827405470E+02 -0.34821220963E+03  0.37969523117E+03  0.81015890645E+02 0.  0.
         25    2    1    2    0    0  0.22993072059E+03  0.16691730588E+02  0.37666046984E+03  0.45898267025E+03  0.12508090148E+03 0.  0.
        -24    2    1    2    0    0 -0.10392788146E+03 -0.38519136058E+02  0.11655870093E+04  0.11734909727E+04  0.78760766145E+02 0.  0.
        -13    1    3    3    0    0 -0.85402031501E+02  0.39131238277E+02 -0.29985476609E+03  0.31422546291E+03  0.00000000000E+00 0.  1.
         14    1    3    3    0    0 -0.40600807627E+02 -0.17303832808E+02 -0.48357443538E+02  0.65469768255E+02  0.00000000000E+00 0. -1.
         13    1    5    5    0    0 -0.59831697217E+02  0.75757667728E+01  0.80886435171E+03  0.81110958797E+03  0.00000000000E+00 0. -1.
        -14    1    5    5    0    0 -0.44096184245E+02 -0.46094902831E+02  0.35672265764E+03  0.36238138474E+03  0.00000000000E+00 0.  1.
          5    1    4    4  501    0  0.41885880709E+02  0.48078469931E+02  0.51672983001E+02  0.82179899282E+02  0.41800000000E+01 0. -1.
         -5    1    4    4    0  501  0.18804483988E+03 -0.31386739343E+02  0.32498748684E+03  0.37680277097E+03  0.41800000000E+01 0. -1.
</event>
<event>
11    1  0.8039394E-009  0.1286594E+03  0.7561462E-02  0.1120927E+00
         22   -1    0    0    0    0  0.00000000000E+00  0.00000000000E+00  0.76008951713E+02  0.76008951713E+02  0.00000000000E+00 0.  1.
         22   -1    0    0    0    0 -0.00000000000E+00 -0.00000000000E+00 -0.14018520387E+04  0.14018520387E+04  0.00000000000E+00 0. -1.
        -24    2    1    2    0    0 -0.39226593286E+02 -0.12500943303E+02 -0.11729164867E+04  0.11763993850E+04  0.80544579330E+02 0.  0.
         25    2    1    2    0    0  0.17788086354E+02  0.36689235346E+02 -0.16310849905E+03  0.20955751238E+03  0.12508977787E+03 0.  0.
         24    2    1    2    0    0  0.21438506932E+02 -0.24188292044E+02  0.10181898742E+02  0.91904092966E+02  0.85428380475E+02 0.  0.
        -13    1    5    5    0    0  0.97673377910E+01 -0.42997017859E+02  0.36695675493E+02  0.57364771700E+02  0.00000000000E+00 0.  1.
         14    1    5    5    0    0  0.11671169141E+02  0.18808725815E+02 -0.26513776752E+02  0.34539321267E+02  0.00000000000E+00 0. -1.
         13    1    3    3    0    0 -0.33460238150E+02 -0.43289196326E+02 -0.90613090523E+03  0.90778122886E+03  0.00000000000E+00 0. -1.
        -14    1    3    3    0    0 -0.57663551358E+01  0.30788253023E+02 -0.26678558143E+03  0.26861815619E+03  0.00000000000E+00 0.  1.
          5    1    4    4  501    0 -0.52768423095E+02  0.25196985124E+02 -0.88398799156E+02  0.10607174283E+03  0.41800000000E+01 0.  1.
         -5    1    4    4    0  501  0.70556509449E+02  0.11492250223E+02 -0.74709699897E+02  0.10348576955E+03  0.41800000000E+01 0.  1.
</event>
<event>
11    1  0.8039394E-009  0.1375782E+03  0.7561462E-02  0.1110293E+00
         22   -1    0    0    0    0  0.00000000000E+00  0.00000000000E+00  0.10611164788E+04  0.10611164788E+04  0.00000000000E+00 0.  1.
         22   -1    0    0    0    0 -0.00000000000E+00 -0.00000000000E+00 -0.30013079999E+03  0.30013079999E+03  0.00000000000E+00 0.  1.
         24    2    1    2    0    0  0.28881130046E+02 -0.55664678973E+02 -0.23582153322E+03  0.25615389495E+03  0.77912426532E+02 0.  0.
         25    2    1    2    0    0  0.29055142074E+02  0.38475004906E+02  0.39641177490E+02  0.13980073757E+03  0.12509314925E+03 0.  0.
        -24    2    1    2    0    0 -0.57936272120E+02  0.17189674067E+02  0.95716603452E+03  0.96529264624E+03  0.10941196790E+03 0.  0.
        -13    1    3    3    0    0 -0.19216017019E+02 -0.46655659532E+02 -0.10541899766E+03  0.11687245588E+03  0.00000000000E+00 0.  1.
         14    1    3    3    0    0  0.48097147065E+02 -0.90090194407E+01 -0.13040253556E+03  0.13928143906E+03  0.00000000000E+00 0. -1.
         11    1    5    5    0    0  0.22813857695E+02  0.61588002691E+01  0.60824440188E+02  0.65253470773E+02  0.00000000000E+00 0. -1.
        -12    1    5    5    0    0 -0.80750129815E+02  0.11030873798E+02  0.89634159433E+03  0.90003917546E+03  0.00000000000E+00 0.  1.
          5    1    4    4  501    0  0.59600686290E+02 -0.22741125309E+02  0.29883231537E+02  0.70568268461E+02  0.41800000000E+01 0.  1.
         -5    1    4    4    0  501 -0.30545544216E+02  0.61216130215E+02  0.97579459531E+01  0.69232469111E+02  0.41800000000E+01 0.  1.
</event>
<event>
11    1  0.8039394E-009  0.1884036E+03  0.7561462E-02  0.1063041E+00
         22   -1    0    0    0    0  0.00000000000E+00  0.00000000000E+00  0.14572426341E+03  0.14572426341E+03  0.00000000000E+00 0.  1.
         22   -1    0    0    0    0 -0.00000000000E+00 -0.00000000000E+00 -0.65535561848E+03  0.65535561848E+03  0.00000000000E+00 0.  1.
         24    2    1    2    0    0  0.10528940044E+03 -0.97430611968E+02 -0.51681313332E+03  0.54245005430E+03  0.81102802943E+02 0.  0.
         25    2    1    2    0    0 -0.96610017601E+02  0.77684299724E+02 -0.45072030985E+01  0.17616921414E+03  0.12508769406E+03 0.  0.
        -24    2    1    2    0    0 -0.86793828433E+01  0.19746312244E+02  0.11688981355E+02  0.82460613442E+02  0.78726564452E+02 0.  0.
        -13    1    3    3    0    0  0.71656061116E+02 -0.10288861267E+03 -0.45394126152E+03  0.47093877163E+03  0.00000000000E+00 0.  1.
         14    1    3    3    0    0  0.33633339329E+02  0.54580007009E+01 -0.62871871799E+02  0.71511282674E+02  0.00000000000E+00 0. -1.
         13    1    5    5    0    0  0.26154008229E+02 -0.64651520192E+01  0.25129699763E+02  0.36841988916E+02  0.00000000000E+00 0. -1.
        -14    1    5    5    0    0 -0.34833391072E+02  0.26211464263E+02 -0.13440718408E+02  0.45618624527E+02  0.00000000000E+00 0.  1.
          5    1    4    4  501    0 -0.25339050023E+02 -0.29722228845E+02  0.21239023548E+02  0.44654751873E+02  0.41800000000E+01 0.  1.
         -5    1    4    4    0  501 -0.71270967579E+02  0.10740652857E+03 -0.25746226646E+02  0.13151446227E+03  0.41800000000E+01 0.  1.
</event>
<event>
11    1  0.8039394E-009  0.1953572E+03  0.7561462E-02  0.1057856E+00
         22   -1    0    0    0    0  0.00000000000E+00  0.00000000000E+00  0.97329837414E+03  0.97329837414E+03  0.00000000000E+00 0.  1.
         22   -1    0    0    0    0 -0.00000000000E+00 -0.00000000000E+00 -0.90022979489E+02  0.90022979489E+02  0.00000000000E+00 0.  1.
        -24    2    1    2    0    0  0.11620320852E+02  0.15865311639E+03  0.57438699911E+02  0.18678693479E+03  0.79273649862E+02 0.  0.
         25    2    1    2    0    0  0.53837323133E+02 -0.11705156531E+03  0.45142358276E+03  0.48582662312E+03  0.12507889655E+03 0.  0.
         24    2    1    2    0    0 -0.65457643984E+02 -0.41601551086E+02  0.37441311198E+03  0.39070779572E+03  0.80324411003E+02 0.  0.
        -11    1    5    5    0    0 -0.84271747792E+02 -0.31576483281E+02  0.31410512179E+03  0.32674275708E+03  0.00000000000E+00 0.  1.
         12    1    5    5    0    0  0.18814103808E+02 -0.10025067805E+02  0.60307990194E+02  0.63965038637E+02  0.00000000000E+00 0. -1.
         11    1    3    3    0    0  0.73299433503E+01 -0.76060203131E+01 -0.74310793551E+00  0.10589231508E+02  0.00000000000E+00 0. -1.
        -12    1    3    3    0    0  0.42903775014E+01  0.16625913670E+03  0.58181807847E+02  0.17619770328E+03  0.00000000000E+00 0.  1.
          5    1    4    4  501    0  0.72560540317E+02 -0.13797967102E+02  0.16781409890E+03  0.18339700133E+03  0.41800000000E+01 0.  1.
         -5    1    4    4    0  501 -0.18723217184E+02 -0.10325359820E+03  0.28360948386E+03  0.30242962179E+03  0.41800000000E+01 0.  1.
</event>
<event>
11    1  0.8039394E-009  0.2896902E+03  0.7561462E-02  0.1004651E+00
         22   -1    0    0    0    0  0.00000000000E+00  0.00000000000E+00  0.38814819218E+02  0.38814819218E+02  0.00000000000E+00 0.  1.
         22   -1    0    0    0    0 -0.00000000000E+00 -0.00000000000E+00 -0.16497691287E+04  0.16497691287E+04  0.00000000000E+00 0.  1.
         24    2    1    2    0    0  0.63389975954E+02  0.12043818664E+03 -0.84751367356E+03  0.86211271066E+03  0.80220029723E+02 0.  0.
         25    2    1    2    0    0  0.14412155262E+02  0.11242657754E+02 -0.45624265037E+03  0.47343997842E+03  0.12511574472E+03 0.  0.
        -24    2    1    2    0    0 -0.77802131216E+02 -0.13168084439E+03 -0.30719798560E+03  0.35303125887E+03  0.82870084995E+02 0.  0.
        -11    1    3    3    0    0  0.59458549386E+02  0.12451933527E+03 -0.64847428831E+03  0.66299267458E+03  0.00000000000E+00 0.  1.
         12    1    3    3    0    0  0.39314265684E+01 -0.40811486337E+01 -0.19903938525E+03  0.19912003608E+03  0.00000000000E+00 0. -1.
         11    1    5    5    0    0 -0.25020483208E+02 -0.38281519385E+02 -0.27261695103E+02  0.53241894466E+02  0.00000000000E+00 0. -1.
        -12    1    5    5    0    0 -0.52781648008E+02 -0.93399325008E+02 -0.27993629049E+03  0.29978936441E+03  0.00000000000E+00 0.  1.
          5    1    4    4  501    0 -0.60842170018E+01 -0.54520540451E+02 -0.15758983500E+03  0.16691775078E+03  0.41800000000E+01 0. -1.
         -5    1    4    4    0  501  0.20496372264E+02  0.65763198205E+02 -0.29865281537E+03  0.30652222764E+03  0.41800000000E+01 0. -1.
</event>
<event>
11    1  0.8039394E-009  0.1317240E+03  0.7561462E-02  0.1117169E+00
         22   -1    0    0    0    0  0.00000000000E+00  0.00000000000E+00  0.85471333472E+03  0.85471333472E+03  0.00000000000E+00 0.  1.
         22   -1    0    0    0    0 -0.00000000000E+00 -0.00000000000E+00 -0.92387389714E+02  0.92387389714E+02  0.00000000000E+00 0.  1.
         24    2    1    2    0    0  0.11068914643E+02  0.54847009342E+01 -0.54526016168E+02  0.96448743924E+02  0.78591799507E+02 0.  0.
         25    2    1    2    0    0  0.31382407149E+02 -0.13391948454E+02  0.29541923349E+03  0.32262056638E+03  0.12508919448E+03 0.  0.
        -24    2    1    2    0    0 -0.42451321792E+02  0.79072475199E+01  0.52143272768E+03  0.52803141413E+03  0.71136808476E+02 0.  0.
        -13    1    3    3    0    0 -0.19684182658E+02  0.30401813668E+02 -0.40799076108E+02  0.54555494063E+02  0.00000000000E+00 0.  1.
         14    1    3    3    0    0  0.30753097301E+02 -0.24917112733E+02 -0.13726940060E+02  0.41893249862E+02  0.00000000000E+00 0. -1.
         13    1    5    5    0    0  0.66651686900E+01  0.25647357353E+02  0.10306960654E+03  0.10642159182E+03  0.00000000000E+00 0. -1.
        -14    1    5    5    0    0 -0.49116490482E+02 -0.17740109833E+02  0.41836312114E+03  0.42160982230E+03  0.00000000000E+00 0.  1.
          5    1    4    4  501    0  0.12514367718E+02  0.56017003303E+02  0.12631545175E+03  0.13880770803E+03  0.41800000000E+01 0. -1.
         -5    1    4    4    0  501  0.18868039431E+02 -0.69408951757E+02  0.16910378174E+03  0.18381285835E+03  0.41800000000E+01 0. -1.
</event>
<event>
11    1  0.8039394E-009  0.1815351E+03  0.7561462E-02  0.1068408E+00
         22   -1    0    0    0    0  0.00000000000E+00  0.00000000000E+00  0.16836349144E+04  0.16836349144E+04  0.00000000000E+00 0.  1.
         22   -1    0    0    0    0 -0.00000000000E+00 -0.00000000000E+00 -0.75654014350E+02  0.75654014350E+02  0.00000000000E+00 0.  1.
        -24    2    1    2    0    0  0.86476273353E+02  0.98623169145E+02  0.32677898580E+02  0.15777602190E+03  0.81368007752E+02 0.  0.
         25    2    1    2    0    0 -0.90847215372E+02 -0.99513014406E+02  0.75792042271E+03  0.77990181540E+03  0.12508963958E+03 0.  0.
         24    2    1    2    0    0  0.43709420194E+01  0.88984526143E+00  0.81738257880E+03  0.82161109148E+03  0.83130070214E+02 0.  0.
        -13    1    5    5    0    0  0.34878299479E+02  0.16607260206E+02  0.62491652063E+03  0.62610937912E+03  0.00000000000E+00 0.  1.
         14    1    5    5    0    0 -0.30507357460E+02 -0.15717414944E+02  0.19246605817E+03  0.19550171237E+03  0.00000000000E+00 0. -1.
         13    1    3    3    0    0  0.76460287424E+01 -0.13068170676E+02 -0.50442564721E+01  0.15958802076E+02  0.00000000000E+00 0. -1.
        -14    1    3    3    0    0  0.78830244610E+02  0.11169133982E+03  0.37722155052E+02  0.14181721982E+03  0.00000000000E+00 0.  1.
          5    1    4    4  501    0 -0.11871011552E+03 -0.93740750458E+02  0.56773701407E+03  0.58755613295E+03  0.41800000000E+01 0.  1.
         -5    1    4    4    0  501  0.27862900149E+02 -0.57722639479E+01  0.19018340864E+03  0.19234568245E+03  0.41800000000E+01 0.  1.
</event>
<event>
11    1  0.8039394E-009  0.1443696E+03  0.7561462E-02  0.1102775E+00
         22   -1    0    0    0    0  0.00000000000E+00  0.00000000000E+00  0.26535830601E+03  0.26535830601E+03  0.00000000000E+00 0. -1.
         22   -1    0    0    0    0 -0.00000000000E+00 -0.00000000000E+00 -0.21896340074E+04  0.21896340074E+04  0.00000000000E+00 0.  1.
         24    2    1    2    0    0  0.58872236371E+02  0.18927531819E+02 -0.21151080710E+04  0.21175399780E+04  0.80431426937E+02 0.  0.
         25    2    1    2    0    0 -0.18583977534E+02 -0.81555650351E+02  0.48147261288E+02  0.15800806008E+03  0.12510675424E+03 0.  0.
        -24    2    1    2    0    0 -0.40288258836E+02  0.62628118532E+02  0.14268510838E+03  0.17944427535E+03  0.79345968834E+02 0.  0.
        -11    1    3    3    0    0  0.66847373389E+02  0.65873821352E+01 -0.20341925477E+04  0.20353012765E+04  0.00000000000E+00 0.  1.
         12    1    3    3    0    0 -0.79751370178E+01  0.12340149684E+02 -0.80915523332E+02  0.82238701478E+02  0.00000000000E+00 0. -1.
         13    1    5    5    0    0 -0.30616176844E+01  0.59803660593E+02  0.12398626362E+03  0.13768966878E+03  0.00000000000E+00 0. -1.
        -14    1    5    5    0    0 -0.37226641152E+02  0.28244579393E+01  0.18698844766E+02  0.41754606569E+02  0.00000000000E+00 0.  1.
          5    1    4    4  501    0  0.20456044598E+01 -0.17735160196E+02 -0.41849056868E+02  0.45689565171E+02  0.41800000000E+01 0.  1.
         -5    1    4    4    0  501 -0.20629581994E+02 -0.63820490155E+02  0.89996318156E+02  0.11231849491E+03  0.41800000000E+01 0.  1.
</event>
<event>
11    1  0.8039394E-009  0.1320849E+03  0.7561462E-02  0.1116734E+00
         22   -1    0    0    0    0  0.00000000000E+00  0.00000000000E+00  0.62399224063E+03  0.62399224063E+03  0.00000000000E+00 0.  1.
         22   -1    0    0    0    0 -0.00000000000E+00 -0.00000000000E+00 -0.38846159851E+03  0.38846159851E+03  0.00000000000E+00 0.  1.
         24    2    1    2    0    0 -0.20860456553E+02  0.28694268222E+02 -0.28206066420E+03  0.29503109772E+03  0.78908875653E+02 0.  0.
         25    2    1    2    0    0 -0.17718616010E+02 -0.84462271445E+01 -0.54673899370E+02  0.13791799981E+03  0.12508737463E+03 0.  0.
        -24    2    1    2    0    0  0.38579072563E+02 -0.20248041078E+02  0.57226520569E+03  0.57950474161E+03  0.80249310882E+02 0.  0.
        -11    1    3    3    0    0  0.42291593734E+01  0.18502717973E+02 -0.25832360898E+03  0.25901992842E+03  0.00000000000E+00 0.  1.
         12    1    3    3    0    0 -0.25089615927E+02  0.10191550250E+02 -0.23737055213E+02  0.36011169296E+02  0.00000000000E+00 0. -1.
         13    1    5    5    0    0  0.23106307970E+02 -0.46418754939E+02  0.22436506762E+03  0.23027871340E+03  0.00000000000E+00 0. -1.
        -14    1    5    5    0    0  0.15472764593E+02  0.26170713861E+02  0.34790013807E+03  0.34922602821E+03  0.00000000000E+00 0.  1.
          5    1    4    4  501    0  0.41421191145E+02 -0.38963876851E+02 -0.10626627083E+02  0.58002554929E+02  0.41800000000E+01 0. -1.
         -5    1    4    4    0  501 -0.59139807154E+02  0.30517649707E+02 -0.44047272287E+02  0.79915444876E+02  0.41800000000E+01 0. -1.
</event>
<event>
11    1  0.8039394E-009  0.1327745E+03  0.7561462E-02  0.1115906E+00
         22   -1    0    0    0    0  0.00000000000E+00  0.00000000000E+00  0.54978769567E+03  0.54978769567E+03  0.00000000000E+00 0.  1.
         22   -1    0    0    0    0 -0.00000000000E+00 -0.00000000000E+00 -0.49611521656E+03  0.49611521656E+03  0.00000000000E+00 0.  1.
        -24    2    1    2    0    0  0.93494223145E+01 -0.39558743143E+01 -0.38537291876E+03  0.39388560100E+03  0.80811629857E+02 0.  0.
         25    2    1    2    0    0 -0.30097372194E+02 -0.35355585696E+02 -0.58478164701E+02  0.14568944885E+03  0.12509936253E+03 0.  0.
         24    2    1    2    0    0  0.20747949880E+02  0.39311460010E+02  0.49752356257E+03  0.50632786238E+03  0.82839245531E+02 0.  0.
        -11    1    5    5    0    0 -0.61960129746E+01 -0.18697625283E+02  0.24642747123E+03  0.24721345098E+03  0.00000000000E+00 0.  1.
         12    1    5    5    0    0  0.26943962854E+02  0.58009085293E+02  0.25109609134E+03  0.25911441140E+03  0.00000000000E+00 0. -1.
         13    1    3    3    0    0  0.36245070450E+02 -0.26006055219E+02 -0.17168434757E+03  0.17738527346E+03  0.00000000000E+00 0. -1.
        -14    1    3    3    0    0 -0.26895648135E+02  0.22050180905E+02 -0.21368857119E+03  0.21650032753E+03  0.00000000000E+00 0.  1.
          5    1    4    4  501    0 -0.57579486639E+02 -0.60707033305E+02 -0.10065996009E+02  0.84377353893E+02  0.41800000000E+01 0. -1.
         -5    1    4    4    0  501  0.27482114445E+02  0.25351447609E+02 -0.48412168691E+02  0.61312094954E+02  0.41800000000E+01 0. -1.
</event>
<event>
11    1  0.8039394E-009  0.1276615E+03  0.7561462E-02  0.1122176E+00
         22   -1    0    0    0    0  0.00000000000E+00  0.00000000000E+00  0.31685855667E+03  0.31685855667E+03  0.00000000000E+00 0.  1.
         22   -1    0    0    0    0 -0.00000000000E+00 -0.00000000000E+00 -0.50829391166E+03  0.50829391166E+03  0.00000000000E+00 0.  1.
        -24    2    1    2    0    0 -0.29457689524E+02  0.73042453774E+00 -0.38696584069E+03  0.39699176245E+03  0.83615839386E+02 0.  0.
         25    2    1    2    0    0 -0.58926316274E+01 -0.23634593371E+02 -0.71981514705E+02  0.14636323117E+03  0.12509012698E+03 0.  0.
         24    2    1    2    0    0  0.35350321152E+02  0.22904168833E+02  0.26751200042E+03  0.28179747471E+03  0.77928815155E+02 0.  0.
        -11    1    5    5    0    0  0.45492772874E+02 -0.13191247822E+02  0.18820990817E+03  0.19407877508E+03  0.00000000000E+00 0.  1.
         12    1    5    5    0    0 -0.10142451722E+02  0.36095416655E+02  0.79302092242E+02  0.87718699628E+02  0.00000000000E+00 0. -1.
         13    1    3    3    0    0 -0.38289482198E+02  0.23034930995E+02 -0.10639913070E+03  0.11540133234E+03  0.00000000000E+00 0. -1.
        -14    1    3    3    0    0  0.88317926731E+01 -0.22304506457E+02 -0.28056671000E+03  0.28159043011E+03  0.00000000000E+00 0.  1.
          5    1    4    4  501    0 -0.25395325163E+02  0.70823077955E+01 -0.97913892976E+02  0.10148736109E+03  0.41800000000E+01 0.  1.
         -5    1    4    4    0  501  0.19502693536E+02 -0.30716901166E+02  0.25932378271E+02  0.44875870078E+02  0.41800000000E+01 0.  1.
</event>
<event>
11    1  0.8039394E-009  0.2638718E+03  0.7561462E-02  0.1016758E+00
         22   -1    0    0    0    0  0.00000000000E+00  0.00000000000E+00  0.20758287160E+03  0.20758287160E+03  0.00000000000E+00 0. -1.
         22   -1    0    0    0    0 -0.00000000000E+00 -0.00000000000E+00 -0.19983914099E+04  0.19983914099E+04  0.00000000000E+00 0. -1.
        -24    2    1    2    0    0  0.65374091666E+02 -0.22195233984E+03 -0.14926193538E+04  0.15126007370E+04  0.80695980100E+02 0.  0.
         25    2    1    2    0    0 -0.21696336077E+03  0.63605184034E+01 -0.33127882082E+03  0.41533907418E+03  0.12508930135E+03 0.  0.
         24    2    1    2    0    0  0.15158926910E+03  0.21559182143E+03  0.33089636339E+02  0.27803447030E+03  0.82152922448E+02 0.  0.
        -13    1    5    5    0    0  0.16002517028E+02  0.60365823373E+01  0.22438115862E+02  0.28213293339E+02  0.00000000000E+00 0.  1.
         14    1    5    5    0    0  0.13558675207E+03  0.20955523910E+03  0.10651520476E+02  0.24982117696E+03  0.00000000000E+00 0. -1.
         13    1    3    3    0    0  0.63159027316E+02 -0.22655553677E+03 -0.13825234040E+04  0.14023863364E+04  0.00000000000E+00 0. -1.
        -14    1    3    3    0    0  0.22150643501E+01  0.46031969298E+01 -0.11009594979E+03  0.11021440056E+03  0.00000000000E+00 0.  1.
          5    1    4    4  501    0 -0.75007317865E+02 -0.47443836553E+02 -0.69931065462E+02  0.11307007419E+03  0.41800000000E+01 0.  1.
         -5    1    4    4    0  501 -0.14195604290E+03  0.53804354956E+02 -0.26134775536E+03  0.30226900000E+03  0.41800000000E+01 0.  1.
</event>
<event>
11    1  0.8039394E-009  0.1365245E+03  0.7561462E-02  0.1111503E+00
         22   -1    0    0    0    0  0.00000000000E+00  0.00000000000E+00  0.89159669036E+03  0.89159669036E+03  0.00000000000E+00 0. -1.
         22   -1    0    0    0    0 -0.00000000000E+00 -0.00000000000E+00 -0.26431402128E+03  0.26431402128E+03  0.00000000000E+00 0.  1.
        -24    2    1    2    0    0 -0.13894675605E+02  0.30436947616E+01 -0.18321610192E+03  0.20055767930E+03  0.80330048156E+02 0.  0.
         25    2    1    2    0    0 -0.24374279149E+02 -0.42519996775E+02 -0.47988470271E+01  0.13443501607E+03  0.12509072309E+03 0.  0.
         24    2    1    2    0    0  0.38268954754E+02  0.39476302013E+02  0.81529761803E+03  0.82091801627E+03  0.78570300736E+02 0.  0.
        -13    1    5    5    0    0  0.43287059373E+02  0.60405421629E+02  0.61976715313E+03  0.62420662330E+03  0.00000000000E+00 0.  1.
         14    1    5    5    0    0 -0.50181046185E+01 -0.20929119616E+02  0.19553046490E+03  0.19671139298E+03  0.00000000000E+00 0. -1.
         11    1    3    3    0    0  0.13210868884E+02  0.32058132445E+02 -0.45342536409E+02  0.57080614227E+02  0.00000000000E+00 0. -1.
        -12    1    3    3    0    0 -0.27105544490E+02 -0.29014437683E+02 -0.13787356551E+03  0.14347706508E+03  0.00000000000E+00 0.  1.
          5    1    4    4  501    0  0.11515537120E+02 -0.60254626657E+02  0.40662006478E+02  0.73716340112E+02  0.41800000000E+01 0.  1.
         -5    1    4    4    0  501 -0.35889816269E+02  0.17734629882E+02 -0.45460853505E+02  0.60718675960E+02  0.41800000000E+01 0.  1.
</event>
<event>
11    1  0.8039394E-009  0.1391943E+03  0.7561462E-02  0.1108461E+00
         22   -1    0    0    0    0  0.00000000000E+00  0.00000000000E+00  0.14460332973E+03  0.14460332973E+03  0.00000000000E+00 0.  1.
         22   -1    0    0    0    0 -0.00000000000E+00 -0.00000000000E+00 -0.17257956719E+04  0.17257956719E+04  0.00000000000E+00 0. -1.
        -24    2    1    2    0    0  0.41285694613E+02 -0.94422924652E+01 -0.16135492427E+04  0.16161056435E+04  0.80390465310E+02 0.  0.
         25    2    1    2    0    0 -0.81736882362E+01  0.63999917108E+02 -0.15430968315E+02  0.14159071093E+03  0.12508803328E+03 0.  0.
         24    2    1    2    0    0 -0.33112006377E+02 -0.54557624643E+02  0.47787868809E+02  0.11270264722E+03  0.79657183688E+02 0.  0.
        -11    1    5    5    0    0 -0.11801167819E+02 -0.64433170911E+02  0.57619140413E+02  0.87240279788E+02  0.00000000000E+00 0.  1.
         12    1    5    5    0    0 -0.21310838558E+02  0.98755462681E+01 -0.98312716036E+01  0.25462367436E+02  0.00000000000E+00 0. -1.
         13    1    3    3    0    0 -0.22569229397E+01 -0.21788011663E+02 -0.11794595063E+04  0.11796628917E+04  0.00000000000E+00 0. -1.
        -14    1    3    3    0    0  0.43542617553E+02  0.12345719198E+02 -0.43408973644E+03  0.43644275181E+03  0.00000000000E+00 0.  1.
          5    1    4    4  501    0  0.18132188154E+02 -0.30643201494E+02  0.14715352153E+02  0.38753013225E+02  0.41800000000E+01 0. -1.
         -5    1    4    4    0  501 -0.26305876390E+02  0.94643118602E+02 -0.30146320468E+02  0.10283769770E+03  0.41800000000E+01 0. -1.
</event>
<event>
11    1  0.8039394E-009  0.1931865E+03  0.7561462E-02  0.1059449E+00
         22   -1    0    0    0    0  0.00000000000E+00  0.00000000000E+00  0.37262683564E+04  0.37262683564E+04  0.00000000000E+00 0.  1.
         22   -1    0    0    0    0 -0.00000000000E+00 -0.00000000000E+00 -0.10922169124E+03  0.10922169124E+03  0.00000000000E+00 0.  1.
         24    2    1    2    0    0  0.82422715423E+02  0.12957063066E+03 -0.82367700779E+01  0.17281733474E+03  0.78841197720E+02 0.  0.
         25    2    1    2    0    0 -0.37208662731E+02 -0.11255898353E+03  0.39442342489E+03  0.43043155276E+03  0.12508986432E+03 0.  0.
        -24    2    1    2    0    0 -0.45214052692E+02 -0.17011647136E+02  0.32308600103E+04  0.32322411601E+04  0.81196084752E+02 0.  0.
        -13    1    3    3    0    0  0.48598253181E+02  0.12946264532E+03 -0.13053734993E+01  0.13828980710E+03  0.00000000000E+00 0.  1.
         14    1    3    3    0    0  0.33824462241E+02  0.10798533726E+00 -0.69313965787E+01  0.34527527645E+02  0.00000000000E+00 0. -1.
         13    1    5    5    0    0 -0.21488962504E+02 -0.49075211248E+02  0.16126286111E+04  0.16135182643E+04  0.00000000000E+00 0. -1.
        -14    1    5    5    0    0 -0.23725090188E+02  0.32063564111E+02  0.16182313992E+04  0.16187228958E+04  0.00000000000E+00 0.  1.
          5    1    4    4  501    0 -0.35122501634E+02 -0.16441130534E+02  0.27166335650E+03  0.27444918029E+03  0.41800000000E+01 0. -1.
         -5    1    4    4    0  501 -0.20861610967E+01 -0.96117852991E+02  0.12276006839E+03  0.15598237247E+03  0.41800000000E+01 0. -1.
</event>
<event>
11    1  0.8039394E-009  0.1289997E+03  0.7561462E-02  0.1120504E+00
         22   -1    0    0    0    0  0.00000000000E+00  0.00000000000E+00  0.67829015856E+03  0.67829015856E+03  0.00000000000E+00 0. -1.
         22   -1    0    0    0    0 -0.00000000000E+00 -0.00000000000E+00 -0.14683919430E+04  0.14683919430E+04  0.00000000000E+00 0.  1.
         24    2    1    2    0    0  0.39821852374E+01  0.27667290406E+02 -0.14002503896E+04  0.14027635945E+04  0.79140456479E+02 0.  0.
         25    2    1    2    0    0  0.95767866386E+01 -0.54581786401E+02  0.11488786830E+02  0.13729740377E+03  0.12509076149E+03 0.  0.
        -24    2    1    2    0    0 -0.13558971876E+02  0.26914495996E+02  0.59865981826E+03  0.60662110332E+03  0.93205950310E+02 0.  0.
        -13    1    3    3    0    0  0.34241861442E+02  0.38744065507E+02 -0.85851446403E+03  0.86007016727E+03  0.00000000000E+00 0.  1.
         14    1    3    3    0    0 -0.30259676205E+02 -0.11076775102E+02 -0.54173592553E+03  0.54269342723E+03  0.00000000000E+00 0. -1.
         11    1    5    5    0    0 -0.45610439895E+02  0.81161075571E+01  0.48118280946E+03  0.48340777771E+03  0.00000000000E+00 0. -1.
        -12    1    5    5    0    0  0.32051468019E+02  0.18798388439E+02  0.11747700880E+03  0.12321332561E+03  0.00000000000E+00 0.  1.
          5    1    4    4  501    0  0.20912178574E+02 -0.37254873151E+02 -0.53713214284E+02  0.68759192658E+02  0.41800000000E+01 0.  1.
         -5    1    4    4    0  501 -0.11335391935E+02 -0.17326913250E+02  0.65202001114E+02  0.68538211112E+02  0.41800000000E+01 0.  1.
</event>
<event>
11    1  0.8039394E-009  0.1386574E+03  0.7561462E-02  0.1109067E+00
         22   -1    0    0    0    0  0.00000000000E+00  0.00000000000E+00  0.48861225450E+02  0.48861225450E+02  0.00000000000E+00 0.  1.
         22   -1    0    0    0    0 -0.00000000000E+00 -0.00000000000E+00 -0.15231938955E+04  0.15231938955E+04  0.00000000000E+00 0. -1.
         24    2    1    2    0    0  0.53722256216E+02 -0.60680956437E+01 -0.95583773666E+03  0.96053697099E+03  0.77990968710E+02 0.  0.
         25    2    1    2    0    0 -0.86385207425E+02  0.17093898263E+02 -0.50017262011E+03  0.52304372257E+03  0.12508988923E+03 0.  0.
        -24    2    1    2    0    0  0.32662951209E+02 -0.11025802619E+02 -0.18322313287E+02  0.88474427413E+02  0.79395090760E+02 0.  0.
        -13    1    3    3    0    0  0.38159348576E+02 -0.48708692309E+01 -0.16048911514E+03  0.16503520027E+03  0.00000000000E+00 0.  1.
         14    1    3    3    0    0  0.15562907640E+02 -0.11972264129E+01 -0.79534862153E+03  0.79550177071E+03  0.00000000000E+00 0. -1.
         13    1    5    5    0    0 -0.23427800719E+02  0.19597544897E+01 -0.20014519896E+02  0.30875289324E+02  0.00000000000E+00 0. -1.
        -14    1    5    5    0    0  0.56090751928E+02 -0.12985557109E+02  0.16922066091E+01  0.57599138088E+02  0.00000000000E+00 0.  1.
          5    1    4    4  501    0  0.14162820425E+00  0.46151731400E+02 -0.74982386958E+02  0.88146656906E+02  0.41800000000E+01 0.  1.
         -5    1    4    4    0  501 -0.86526835629E+02 -0.29057833137E+02 -0.42519023315E+03  0.43489706566E+03  0.41800000000E+01 0.  1.
</event>
<event>
11    1  0.8039394E-009  0.1471480E+03  0.7561462E-02  0.1099829E+00
         22   -1    0    0    0    0  0.00000000000E+00  0.00000000000E+00  0.64312675873E+03  0.64312675873E+03  0.00000000000E+00 0. -1.
         22   -1    0    0    0    0 -0.00000000000E+00 -0.00000000000E+00 -0.81057046749E+03  0.81057046749E+03  0.00000000000E+00 0.  1.
         24    2    1    2    0    0  0.79078119404E+02  0.48737146459E+01 -0.74917866993E+03  0.75759289763E+03  0.80007605871E+02 0.  0.
         25    2    1    2    0    0 -0.43577578304E+02 -0.18965258464E+01  0.28298958950E+02  0.13546819217E+03  0.12509275707E+03 0.  0.
        -24    2    1    2    0    0 -0.35500541100E+02 -0.29771887995E+01  0.55343600223E+03  0.56063613641E+03  0.82172482133E+02 0.  0.
        -13    1    3    3    0    0  0.85533496895E+02 -0.17859907882E+02 -0.63591477592E+03  0.64188983294E+03  0.00000000000E+00 0.  1.
         14    1    3    3    0    0 -0.64553774906E+01  0.22733622527E+02 -0.11326389401E+03  0.11570306469E+03  0.00000000000E+00 0. -1.
         13    1    5    5    0    0 -0.16301604813E+02  0.10311698692E+02  0.51700534568E+03  0.51736505575E+03  0.00000000000E+00 0. -1.
        -14    1    5    5    0    0 -0.19198936287E+02 -0.13288887492E+02  0.36430656545E+02  0.43271080661E+02  0.00000000000E+00 0.  1.
          5    1    4    4  501    0  0.20395497587E+01  0.24205554905E+02  0.66131667371E+02  0.70575764117E+02  0.41800000000E+01 0. -1.
         -5    1    4    4    0  501 -0.45617128063E+02 -0.26102080751E+02 -0.37832708421E+02  0.64892428054E+02  0.41800000000E+01 0. -1.
</event>
<event>
11    1  0.8039394E-009  0.2986574E+03  0.7561462E-02  0.1000761E+00
         22   -1    0    0    0    0  0.00000000000E+00  0.00000000000E+00  0.22306644505E+04  0.22306644505E+04  0.00000000000E+00 0.  1.
         22   -1    0    0    0    0 -0.00000000000E+00 -0.00000000000E+00 -0.68091784907E+02  0.68091784907E+02  0.00000000000E+00 0.  1.
         24    2    1    2    0    0  0.68236539532E+02  0.63585736281E+02  0.23793914401E+03  0.26808215448E+03  0.80954518813E+02 0.  0.
         25    2    1    2    0    0  0.89405048952E+02 -0.27895750085E+03  0.62510086891E+03  0.70157506391E+03  0.12508366770E+03 0.  0.
        -24    2    1    2    0    0 -0.15764158848E+03  0.21537176457E+03  0.12995326527E+04  0.13290990170E+04  0.80518409520E+02 0.  0.
        -11    1    3    3    0    0  0.13192678342E+02 -0.13403827722E+02  0.93673900596E+02  0.95543231117E+02  0.00000000000E+00 0.  1.
         12    1    3    3    0    0  0.55043861190E+02  0.76989564003E+02  0.14426524341E+03  0.17253892337E+03  0.00000000000E+00 0. -1.
         13    1    5    5    0    0 -0.48237279516E+02  0.16172658379E+02  0.20474926467E+03  0.21097547582E+03  0.00000000000E+00 0. -1.
        -14    1    5    5    0    0 -0.10940430897E+03  0.19919910619E+03  0.10947833880E+04  0.11181235412E+04  0.00000000000E+00 0.  1.
          5    1    4    4  501    0  0.57839151628E+02 -0.13833230185E+03  0.45228857334E+03  0.47651192972E+03  0.41800000000E+01 0.  1.
         -5    1    4    4    0  501  0.31565897324E+02 -0.14062519900E+03  0.17281229557E+03  0.22506313418E+03  0.41800000000E+01 0.  1.
</event>
<event>
11    1  0.8039394E-009  0.1423514E+03  0.7561462E-02  0.1104961E+00
         22   -1    0    0    0    0  0.00000000000E+00  0.00000000000E+00  0.26705392309E+03  0.26705392309E+03  0.00000000000E+00 0.  1.
         22   -1    0    0    0    0 -0.00000000000E+00 -0.00000000000E+00 -0.11391955647E+04  0.11391955647E+04  0.00000000000E+00 0.  1.
         24    2    1    2    0    0 -0.48632621137E+02  0.44896036761E+02 -0.58097164798E+03  0.59014627660E+03  0.79773341861E+02 0.  0.
         25    2    1    2    0    0  0.33977297161E+02 -0.66529922212E+02 -0.53580078515E+03  0.55525712795E+03  0.12508920616E+03 0.  0.
        -24    2    1    2    0    0  0.14655323975E+02  0.21633885451E+02  0.24463079148E+03  0.26084608328E+03  0.86681321521E+02 0.  0.
        -11    1    3    3    0    0 -0.26267170943E+02  0.11876362860E+02 -0.48962881808E+03  0.49047669849E+03  0.00000000000E+00 0.  1.
         12    1    3    3    0    0 -0.22365450194E+02  0.33019673901E+02 -0.91342829899E+02  0.99669578111E+02  0.00000000000E+00 0. -1.
         13    1    5    5    0    0 -0.24226587926E+02 -0.19676809412E+02  0.11855762054E+03  0.12259695665E+03  0.00000000000E+00 0. -1.
        -14    1    5    5    0    0  0.38881911901E+02  0.41310694862E+02  0.12607317094E+03  0.13824912663E+03  0.00000000000E+00 0.  1.
          5    1    4    4  501    0 -0.20961505268E+02 -0.21070714458E+02 -0.40593506903E+03  0.40704313332E+03  0.41800000000E+01 0. -1.
         -5    1    4    4    0  501  0.54938802429E+02 -0.45459207753E+02 -0.12986571612E+03  0.14821399463E+03  0.41800000000E+01 0. -1.
</event>
<event>
11    1  0.8039394E-009  0.4283392E+03  0.7561462E-02  0.9569654E-01
         22   -1    0    0    0    0  0.00000000000E+00  0.00000000000E+00  0.50031987136E+03  0.50031987136E+03  0.00000000000E+00 0.  1.
         22   -1    0    0    0    0 -0.00000000000E+00 -0.00000000000E+00 -0.32240358358E+04  0.32240358358E+04  0.00000000000E+00 0.  1.
         24    2    1    2    0    0  0.30390754786E+03 -0.92676092143E+02 -0.24862517294E+04  0.25077901339E+04  0.81332883943E+02 0.  0.
         25    2    1    2    0    0 -0.59647873830E+03  0.30573453772E+03 -0.42235722478E+03  0.80205521565E+03  0.12508577391E+03 0.  0.
        -24    2    1    2    0    0  0.29257119044E+03 -0.21305844558E+03  0.18489298970E+03  0.41451035766E+03  0.81496111953E+02 0.  0.
        -13    1    3    3    0    0  0.26058563238E+03 -0.78247181964E+02 -0.22993483545E+04  0.23153898913E+04  0.00000000000E+00 0.  1.
         14    1    3    3    0    0  0.43321915484E+02 -0.14428910179E+02 -0.18690337491E+03  0.19240024263E+03  0.00000000000E+00 0. -1.
         13    1    5    5    0    0  0.59397364450E+02 -0.38673887490E+02  0.75266919425E+02  0.10338677690E+03  0.00000000000E+00 0. -1.
        -14    1    5    5    0    0  0.23317382599E+03 -0.17438455809E+03  0.10962607027E+03  0.31112358077E+03  0.00000000000E+00 0.  1.
          5    1    4    4  501    0 -0.24112990780E+03  0.19074751711E+03 -0.17089308679E+03  0.35178141968E+03  0.41800000000E+01 0.  1.
         -5    1    4    4    0  501 -0.35534883050E+03  0.11498702061E+03 -0.25146413799E+03  0.45027379597E+03  0.41800000000E+01 0.  1.
</event>
<event>
11    1  0.8039394E-009  0.1518887E+03  0.7561462E-02  0.1094964E+00
         22   -1    0    0    0    0  0.00000000000E+00  0.00000000000E+00  0.25075104677E+04  0.25075104677E+04  0.00000000000E+00 0. -1.
         22   -1    0    0    0    0 -0.00000000000E+00 -0.00000000000E+00 -0.16151856896E+04  0.16151856896E+04  0.00000000000E+00 0.  1.
        -24    2    1    2    0    0 -0.54358118921E+02 -0.28788699780E+02 -0.15342547150E+04  0.15375830812E+04  0.80253392542E+02 0.  0.
         25    2    1    2    0    0  0.10936753675E+03  0.93774866276E+02  0.39032552432E+02  0.19474391403E+03  0.12508664302E+03 0.  0.
         24    2    1    2    0    0 -0.55009417825E+02 -0.64986166496E+02  0.23875469407E+04  0.23903691620E+04  0.78962642640E+02 0.  0.
        -11    1    5    5    0    0 -0.12792818958E+02  0.98725241058E+00  0.53823570779E+02  0.55331796063E+02  0.00000000000E+00 0.  1.
         12    1    5    5    0    0 -0.42216598867E+02 -0.65973418907E+02  0.23337233699E+04  0.23350373660E+04  0.00000000000E+00 0. -1.
         11    1    3    3    0    0 -0.90270177706E+01  0.13664005471E+02 -0.93018115336E+03  0.93032530340E+03  0.00000000000E+00 0. -1.
        -12    1    3    3    0    0 -0.45331101150E+02 -0.42452705251E+02 -0.60407356160E+03  0.60725777783E+03  0.00000000000E+00 0.  1.
          5    1    4    4  501    0  0.13668078262E+03  0.83994636287E+02  0.40093279190E+02  0.16541365934E+03  0.41800000000E+01 0.  1.
         -5    1    4    4    0  501 -0.27313245869E+02  0.97802299886E+01 -0.10607267576E+01  0.29330254683E+02  0.41800000000E+01 0.  1.
</event>
<event>
11    1  0.8039394E-009  0.2280166E+03  0.7561462E-02  0.1036309E+00
         22   -1    0    0    0    0  0.00000000000E+00  0.00000000000E+00  0.11666614684E+03  0.11666614684E+03  0.00000000000E+00 0.  1.
         22   -1    0    0    0    0 -0.00000000000E+00 -0.00000000000E+00 -0.21073032762E+04  0.21073032762E+04  0.00000000000E+00 0. -1.
         24    2    1    2    0    0 -0.12543203194E+03  0.10957593121E+03 -0.93391673514E+03  0.95261888725E+03  0.86845822208E+02 0.  0.
         25    2    1    2    0    0 -0.19967592463E+02 -0.23533900062E+03 -0.10306877077E+04  0.10647761308E+04  0.12509159856E+03 0.  0.
        -24    2    1    2    0    0  0.14539962440E+03  0.12576306941E+03 -0.26032686589E+02  0.20657440502E+03  0.70978050367E+02 0.  0.
        -11    1    3    3    0    0 -0.11484228915E+03  0.12303197265E+03 -0.88310529059E+03  0.89899976193E+03  0.00000000000E+00 0.  1.
         12    1    3    3    0    0 -0.10589742792E+02 -0.13456041438E+02 -0.50811444548E+02  0.53619125325E+02  0.00000000000E+00 0. -1.
         11    1    5    5    0    0  0.37137797930E+02  0.35613810440E+02 -0.39759603668E+02  0.65026037961E+02  0.00000000000E+00 0. -1.
        -12    1    5    5    0    0  0.10826182647E+03  0.90149258969E+02  0.13726917079E+02  0.14154836706E+03  0.00000000000E+00 0.  1.
          5    1    4    4  501    0 -0.58748172122E+02 -0.50504248232E+02 -0.33814965683E+03  0.34693614633E+03  0.41800000000E+01 0.  1.
         -5    1    4    4    0  501  0.38780579660E+02 -0.18483475238E+03 -0.69253805085E+03  0.71783998448E+03  0.41800000000E+01 0.  1.
</event>
<event>
11    1  0.8039394E-009  0.1687553E+03  0.7561462E-02  0.1079120E+00
         22   -1    0    0    0    0  0.00000000000E+00  0.00000000000E+00  0.98753975018E+03  0.98753975018E+03  0.00000000000E+00 0. -1.
         22   -1    0    0    0    0 -0.00000000000E+00 -0.00000000000E+00 -0.29838902411E+04  0.29838902411E+04  0.00000000000E+00 0. -1.
        -24    2    1    2    0    0 -0.11077344298E+03 -0.22135595949E+02 -0.29357372211E+04  0.29389756499E+04  0.79146059886E+02 0.  0.
         25    2    1    2    0    0  0.15719028976E+03  0.19983923668E+02  0.18992663879E+03  0.27717797235E+03  0.12508939136E+03 0.  0.
         24    2    1    2    0    0 -0.46416846782E+02  0.21516722806E+01  0.74946009137E+03  0.75527636909E+03  0.81196131588E+02 0.  0.
        -13    1    5    5    0    0 -0.66019916569E+00  0.32700305887E+02  0.16351370999E+03  0.16675274877E+03  0.00000000000E+00 0.  1.
         14    1    5    5    0    0 -0.45756647616E+02 -0.30548633606E+02  0.58594638139E+03  0.58852362032E+03  0.00000000000E+00 0. -1.
         11    1    3    3    0    0 -0.11203342565E+02  0.48835352901E+01 -0.12633442674E+04  0.12634033805E+04  0.00000000000E+00 0. -1.
        -12    1    3    3    0    0 -0.99570100417E+02 -0.27019131239E+02 -0.16723929537E+04  0.16755722694E+04  0.00000000000E+00 0.  1.
          5    1    4    4  501    0  0.16782076884E+03 -0.70628173390E+01  0.17988105375E+03  0.24614702870E+03  0.41800000000E+01 0. -1.
         -5    1    4    4    0  501 -0.10630479077E+02  0.27046741007E+02  0.10045585044E+02  0.31030943643E+02  0.41800000000E+01 0. -1.
</event>
<event>
11    1  0.8039394E-009  0.1451856E+03  0.7561462E-02  0.1101902E+00
         22   -1    0    0    0    0  0.00000000000E+00  0.00000000000E+00  0.37204840485E+03  0.37204840485E+03  0.00000000000E+00 0. -1.
         22   -1    0    0    0    0 -0.00000000000E+00 -0.00000000000E+00 -0.59039638130E+03  0.59039638130E+03  0.00000000000E+00 0. -1.
         24    2    1    2    0    0  0.16248585729E+01 -0.79501431828E+02 -0.49651135723E+03  0.50930097313E+03  0.80875432253E+02 0.  0.
         25    2    1    2    0    0 -0.12984967185E+02  0.26355371544E+02 -0.28187635272E+02  0.13154515101E+03  0.12508544676E+03 0.  0.
        -24    2    1    2    0    0  0.11360108612E+02  0.53146060284E+02  0.30635101605E+03  0.32159866202E+03  0.81370747726E+02 0.  0.
        -11    1    3    3    0    0  0.25812304240E+00 -0.67791744933E+02 -0.17648450509E+03  0.18905704918E+03  0.00000000000E+00 0.  1.
         12    1    3    3    0    0  0.13667355305E+01 -0.11709686895E+02 -0.32002685214E+03  0.32024392394E+03  0.00000000000E+00 0. -1.
         11    1    5    5    0    0  0.11198407832E+02  0.53522911615E+02  0.31158591085E+03  0.31634772995E+03  0.00000000000E+00 0. -1.
        -12    1    5    5    0    0  0.16170078072E+00 -0.37685133077E+00 -0.52348947963E+01  0.52509320693E+01  0.00000000000E+00 0.  1.
          5    1    4    4  501    0  0.45032656298E+02 -0.22075494725E+02 -0.23953890118E+02  0.55736243616E+02  0.41800000000E+01 0.  1.
         -5    1    4    4    0  501 -0.58017623484E+02  0.48430866269E+02 -0.42337451534E+01  0.75808907394E+02  0.41800000000E+01 0.  1.
</event>
<event>
11    1  0.8039394E-009  0.1321301E+03  0.7561462E-02  0.1116679E+00
         22   -1    0    0    0    0  0.00000000000E+00  0.00000000000E+00  0.82350464778E+02  0.82350464778E+02  0.00000000000E+00 0.  1.
         22   -1    0    0    0    0 -0.00000000000E+00 -0.00000000000E+00 -0.32136429175E+04  0.32136429175E+04  0.00000000000E+00 0.  1.
         24    2    1    2    0    0 -0.27613767981E+02 -0.32678364561E+02 -0.27170364103E+04  0.27185590804E+04  0.80288375602E+02 0.  0.
         25    2    1    2    0    0  0.10799159742E+02  0.42069841669E+02 -0.46239854310E+03  0.48098709706E+03  0.12509868684E+03 0.  0.
        -24    2    1    2    0    0  0.16814608239E+02 -0.93914771081E+01  0.48142500636E+02  0.96447204820E+02  0.81323010628E+02 0.  0.
        -13    1    3    3    0    0  0.13161778880E+02 -0.42946928350E+02 -0.17983376594E+04  0.17988985542E+04  0.00000000000E+00 0.  1.
         14    1    3    3    0    0 -0.40775546861E+02  0.10268563788E+02 -0.91869875093E+03  0.91966052628E+03  0.00000000000E+00 0. -1.
         11    1    5    5    0    0  0.29976456175E+02  0.14206201483E+02 -0.80155131247E+01  0.34127005964E+02  0.00000000000E+00 0. -1.
        -12    1    5    5    0    0 -0.13161847937E+02 -0.23597678591E+02  0.56158013761E+02  0.62320198856E+02  0.00000000000E+00 0.  1.
          5    1    4    4  501    0 -0.34660439606E+01 -0.57979951859E+01 -0.40379203998E+03  0.40387016993E+03  0.41800000000E+01 0.  1.
         -5    1    4    4    0  501  0.14265203703E+02  0.47867836855E+02 -0.58606503119E+02  0.77116927128E+02  0.41800000000E+01 0.  1.
</event>
<event>
11    1  0.8039394E-009  0.1411774E+03  0.7561462E-02  0.1106251E+00
         22   -1    0    0    0    0  0.00000000000E+00  0.00000000000E+00  0.76010402933E+03  0.76010402933E+03  0.00000000000E+00 0. -1.
         22   -1    0    0    0    0 -0.00000000000E+00 -0.00000000000E+00 -0.56781623392E+03  0.56781623392E+03  0.00000000000E+00 0. -1.
         24    2    1    2    0    0 -0.17484048955E+02  0.63731351329E+02 -0.47328471321E+03  0.48499040430E+03  0.82764094870E+02 0.  0.
         25    2    1    2    0    0  0.16058384387E+02 -0.57256843388E+02 -0.30942089867E+02  0.14191691982E+03  0.12508709519E+03 0.  0.
        -24    2    1    2    0    0  0.14256645680E+01 -0.64745079404E+01  0.69651459849E+03  0.70101293913E+03  0.79010145832E+02 0.  0.
        -11    1    3    3    0    0  0.18629470948E+02  0.64685961859E+02 -0.25494396430E+03  0.26368116312E+03  0.00000000000E+00 0.  1.
         12    1    3    3    0    0 -0.36113519902E+02 -0.95461053002E+00 -0.21834074891E+03  0.22130924119E+03  0.00000000000E+00 0. -1.
         11    1    5    5    0    0 -0.32620462785E+02  0.18069814614E+02  0.31876439972E+03  0.32093824222E+03  0.00000000000E+00 0. -1.
        -12    1    5    5    0    0  0.34046127353E+02 -0.24544322554E+02  0.37775019877E+03  0.38007469690E+03  0.00000000000E+00 0.  1.
          5    1    4    4  501    0  0.58780614138E+02 -0.13307119504E+02 -0.49106004259E+02  0.77853144331E+02  0.41800000000E+01 0.  1.
         -5    1    4    4    0  501 -0.42722229751E+02 -0.43949723884E+02  0.18163914392E+02  0.64063775493E+02  0.41800000000E+01 0.  1.
</event>
<event>
11    1  0.8039394E-009  0.1404610E+03  0.7561462E-02  0.1107045E+00
         22   -1    0    0    0    0  0.00000000000E+00  0.00000000000E+00  0.69382982656E+02  0.69382982656E+02  0.00000000000E+00 0. -1.
         22   -1    0    0    0    0 -0.00000000000E+00 -0.00000000000E+00 -0.16938277272E+04  0.16938277272E+04  0.00000000000E+00 0.  1.
         24    2    1    2    0    0  0.88467446422E+01  0.81104965164E+01 -0.10601455217E+04  0.10631686759E+04  0.79215283737E+02 0.  0.
         25    2    1    2    0    0  0.54490264893E+02  0.45597703523E+01 -0.58068792916E+03  0.59652019345E+03  0.12509152509E+03 0.  0.
        -24    2    1    2    0    0 -0.63337009535E+02 -0.12670266869E+02  0.16388706312E+02  0.10352184051E+03  0.79221646850E+02 0.  0.
        -13    1    3    3    0    0 -0.12137358741E+02 -0.16114172605E+01 -0.97084163167E+03  0.97091883591E+03  0.00000000000E+00 0.  1.
         14    1    3    3    0    0  0.20984103383E+02  0.97219137769E+01 -0.89303889999E+02  0.92249839952E+02  0.00000000000E+00 0. -1.
         13    1    5    5    0    0  0.18396798586E+02  0.22113051808E+01  0.74272788081E+01  0.19962378097E+02  0.00000000000E+00 0. -1.
        -14    1    5    5    0    0 -0.81733808121E+02 -0.14881572050E+02  0.89614275038E+01  0.83559462418E+02  0.00000000000E+00 0.  1.
          5    1    4    4  501    0  0.43999670769E+02  0.21835430808E+02 -0.57201091002E+03  0.57413126604E+03  0.41800000000E+01 0. -1.
         -5    1    4    4    0  501  0.10490594124E+02 -0.17275660455E+02 -0.86770191370E+01  0.22388927405E+02  0.41800000000E+01 0. -1.
</event>
<event>
11    1  0.8039394E-009  0.1495647E+03  0.7561462E-02  0.1097324E+00
         22   -1    0    0    0    0  0.00000000000E+00  0.00000000000E+00  0.58683852094E+03  0.58683852094E+03  0.00000000000E+00 0.  1.
         22   -1    0    0    0    0 -0.00000000000E+00 -0.00000000000E+00 -0.18082584638E+03  0.18082584638E+03  0.00000000000E+00 0. -1.
        -24    2    1    2    0    0  0.53293394280E+02  0.26283065720E+02 -0.10200025167E+03  0.14259040003E+03  0.79981156666E+02 0.  0.
         25    2    1    2    0    0 -0.11838121991E+03 -0.62149875350E+02  0.11347254225E+03  0.21540771854E+03  0.12509095543E+03 0.  0.
         24    2    1    2    0    0  0.65087825628E+02  0.35866809631E+02  0.39454038398E+03  0.40966624876E+03  0.81495200489E+02 0.  0.
        -13    1    5    5    0    0  0.37434217691E+02 -0.68266346785E+01  0.29915452554E+03  0.30156484169E+03  0.00000000000E+00 0.  1.
         14    1    5    5    0    0  0.27653607937E+02  0.42693444309E+02  0.95385858442E+02  0.10810140707E+03  0.00000000000E+00 0. -1.
         13    1    3    3    0    0  0.10971626185E+02  0.31510499518E+02 -0.93275475529E+02  0.99063628523E+02  0.00000000000E+00 0. -1.
        -14    1    3    3    0    0  0.42321768095E+02 -0.52274337981E+01 -0.87247761393E+01  0.43526771503E+02  0.00000000000E+00 0.  1.
          5    1    4    4  501    0  0.16530184275E+02 -0.18279485761E+02 -0.10353816446E+02  0.27056616692E+02  0.41800000000E+01 0. -1.
         -5    1    4    4    0  501 -0.13491140418E+03 -0.43870389589E+02  0.12382635869E+03  0.18835110185E+03  0.41800000000E+01 0. -1.
</event>
<event>
11    1  0.8039394E-009  0.1484089E+03  0.7561462E-02  0.1098516E+00
         22   -1    0    0    0    0  0.00000000000E+00  0.00000000000E+00  0.71282396208E+03  0.71282396208E+03  0.00000000000E+00 0.  1.
         22   -1    0    0    0    0 -0.00000000000E+00 -0.00000000000E+00 -0.66580511133E+03  0.66580511133E+03  0.00000000000E+00 0. -1.
         24    2    1    2    0    0 -0.80081706600E+02  0.59520490146E+01 -0.60607308966E+03  0.61663492808E+03  0.80408568558E+02 0.  0.
         25    2    1    2    0    0  0.71899607379E+02  0.57538679370E+01  0.48509058362E+02  0.15232995372E+03  0.12509446639E+03 0.  0.
        -24    2    1    2    0    0  0.81820992200E+01 -0.11705916952E+02  0.60458288204E+03  0.60966419161E+03  0.77239821577E+02 0.  0.
        -11    1    3    3    0    0 -0.24677265280E+02 -0.35840617143E+02 -0.26833261682E+03  0.27183802256E+03  0.00000000000E+00 0.  1.
         12    1    3    3    0    0 -0.55404441319E+02  0.41792666157E+02 -0.33774047283E+03  0.34479690552E+03  0.00000000000E+00 0. -1.
         13    1    5    5    0    0  0.29914673473E+01 -0.30561167128E+02  0.97873696849E+02  0.10257774782E+03  0.00000000000E+00 0. -1.
        -14    1    5    5    0    0  0.51906318727E+01  0.18855250177E+02  0.50670918519E+03  0.50708644379E+03  0.00000000000E+00 0.  1.
          5    1    4    4  501    0  0.10574582475E+03  0.16586223187E+02  0.45623715403E+02  0.11643143071E+03  0.41800000000E+01 0. -1.
         -5    1    4    4    0  501 -0.33846217367E+02 -0.10832355250E+02  0.28853429583E+01  0.35898523010E+02  0.41800000000E+01 0. -1.
</event>
<event>
11    1  0.8039394E-009  0.1335409E+03  0.7561462E-02  0.1114993E+00
         22   -1    0    0    0    0  0.00000000000E+00  0.00000000000E+00  0.11521575125E+03  0.11521575125E+03  0.00000000000E+00 0. -1.
         22   -1    0    0    0    0 -0.00000000000E+00 -0.00000000000E+00 -0.99813241146E+03  0.99813241146E+03  0.00000000000E+00 0.  1.
         24    2    1    2    0    0  0.23057754772E+02  0.22753156906E+02 -0.87761357467E+03  0.88186010840E+03  0.80139242216E+02 0.  0.
         25    2    1    2    0    0 -0.48815273473E+02 -0.45870683811E+02 -0.59550932288E+01  0.14202147228E+03  0.12509030696E+03 0.  0.
        -24    2    1    2    0    0  0.25757518701E+02  0.23117526905E+02  0.65200769385E+00  0.89466582033E+02  0.82498329478E+02 0.  0.
        -13    1    3    3    0    0  0.69491543761E+01 -0.21215536932E+02 -0.59300425542E+03  0.59342433106E+03  0.00000000000E+00 0.  1.
         14    1    3    3    0    0  0.16108600396E+02  0.43968693838E+02 -0.28460931925E+03  0.28843577734E+03  0.00000000000E+00 0. -1.
         13    1    5    5    0    0  0.33073869830E+02  0.47807709354E+02  0.14932880212E+02  0.60020403620E+02  0.00000000000E+00 0. -1.
        -14    1    5    5    0    0 -0.73163511292E+01 -0.24690182449E+02 -0.14280872518E+02  0.29446178413E+02  0.00000000000E+00 0.  1.
          5    1    4    4  501    0 -0.68612377404E+02 -0.15391589590E+02 -0.48791447387E+02  0.85689188940E+02  0.41800000000E+01 0. -1.
         -5    1    4    4    0  501  0.19797103931E+02 -0.30479094221E+02  0.42836354159E+02  0.56332283339E+02  0.41800000000E+01 0. -1.
</event>
<event>
11    1  0.1110242E-008  0.1796077E+03  0.7561462E-02  0.1069961E+00
         22   -1    0    0    0    0  0.00000000000E+00  0.00000000000E+00  0.93066414929E+03  0.93066414929E+03  0.00000000000E+00 0.  1.
         22   -1    0    0    0    0 -0.00000000000E+00 -0.00000000000E+00 -0.56033894304E+03  0.56033894304E+03  0.00000000000E+00 0.  1.
        -24    2    1    2    0    0 -0.55133195799E+02  0.19298960554E+01 -0.33628415176E+03  0.35046181589E+03  0.81811123285E+02 0.  0.
         25    2    1    2    0    0 -0.22284831466E+02  0.10240111254E+03 -0.17875372459E+03  0.24204080738E+03  0.12509299269E+03 0.  0.
         24    2    1    2    0    0  0.77418027265E+02 -0.10433100859E+03  0.88536308259E+03  0.89850046906E+03  0.80974036580E+02 0.  0.
        -13    1    5    5    0    0  0.18928795501E+02 -0.90113488339E+02  0.57963813673E+03  0.58690638916E+03  0.00000000000E+00 0.  1.
         14    1    5    5    0    0  0.58489231764E+02 -0.14217520252E+02  0.30572494586E+03  0.31159407991E+03  0.00000000000E+00 0. -1.
         11    1    3    3    0    0 -0.48170199032E+02  0.38363507772E+02 -0.20951603120E+03  0.21837832799E+03  0.00000000000E+00 0. -1.
        -12    1    3    3    0    0 -0.69629967674E+01 -0.36433611717E+02 -0.12676812056E+03  0.13208348790E+03  0.00000000000E+00 0.  1.
          5    1    4    4  501    0  0.18244275733E+02  0.10487834064E+03 -0.16947714043E+03  0.20018065206E+03  0.41800000000E+01 0.  1.
         -5    1    4    4    0  501 -0.40529107198E+02 -0.24772281012E+01 -0.92765841549E+01  0.41860155314E+02  0.41800000000E+01 0. -1.
</event>
<event>
11    1  0.8039394E-009  0.1445956E+03  0.7561462E-02  0.1102533E+00
         22   -1    0    0    0    0  0.00000000000E+00  0.00000000000E+00  0.19075851778E+03  0.19075851778E+03  0.00000000000E+00 0. -1.
         22   -1    0    0    0    0 -0.00000000000E+00 -0.00000000000E+00 -0.82379674103E+03  0.82379674103E+03  0.00000000000E+00 0. -1.
         24    2    1    2    0    0  0.30407603107E+02  0.63185586955E+02 -0.59042385740E+03  0.59984045695E+03  0.79317095793E+02 0.  0.
         25    2    1    2    0    0  0.22794426525E+02 -0.10548185232E+03 -0.17881801537E+03  0.24345385995E+03  0.12509153549E+03 0.  0.
        -24    2    1    2    0    0 -0.53202029632E+02  0.42296265362E+02  0.13620364951E+03  0.17126094192E+03  0.78482138513E+02 0.  0.
        -11    1    3    3    0    0 -0.26350417252E+02  0.11187177760E+02 -0.14182506224E+03  0.14468533344E+03  0.00000000000E+00 0.  1.
         12    1    3    3    0    0  0.56758020359E+02  0.51998409194E+02 -0.44859879516E+03  0.45515512351E+03  0.00000000000E+00 0. -1.
         11    1    5    5    0    0 -0.18914435024E+02  0.82508237705E+01  0.11773951761E+03  0.11953420411E+03  0.00000000000E+00 0. -1.
        -12    1    5    5    0    0 -0.34287594608E+02  0.34045441591E+02  0.18464131900E+02  0.51726737805E+02  0.00000000000E+00 0.  1.
          5    1    4    4  501    0 -0.33567620073E+01 -0.61552014583E+02 -0.47297457097E+01  0.61965807062E+02  0.41800000000E+01 0.  1.
         -5    1    4    4    0  501  0.26151188532E+02 -0.43929837734E+02 -0.17408826966E+03  0.18148805288E+03  0.41800000000E+01 0.  1.
</event>
<event>
11    1  0.1748258E-008  0.1558002E+03  0.7561462E-02  0.1091095E+00
         22   -1    0    0    0    0  0.00000000000E+00  0.00000000000E+00  0.17637990005E+04  0.17637990005E+04  0.00000000000E+00 0.  1.
         22   -1    0    0    0    0 -0.00000000000E+00 -0.00000000000E+00 -0.12754058545E+04  0.12754058545E+04  0.00000000000E+00 0.  1.
         24    2    1    2    0    0 -0.42551426595E+02  0.14150853600E+01 -0.82383825082E+03  0.82889792291E+03  0.80930073111E+02 0.  0.
         25    2    1    2    0    0 -0.48535760869E+02  0.17791110944E+02 -0.43667377301E+03  0.45716622050E+03  0.12507887680E+03 0.  0.
        -24    2    1    2    0    0  0.91087187464E+02 -0.19206196304E+02  0.17489051699E+04  0.17531407115E+04  0.78532207388E+02 0.  0.
        -11    1    3    3    0    0 -0.41465432472E+02 -0.35439624332E+02 -0.48142579072E+03  0.48450607946E+03  0.00000000000E+00 0.  1.
         12    1    3    3    0    0 -0.10859941221E+01  0.36854709692E+02 -0.34241246009E+03  0.34439184345E+03  0.00000000000E+00 0. -1.
         11    1    5    5    0    0  0.34287728904E+02  0.21023336473E+02  0.31646950679E+03  0.31901501181E+03  0.00000000000E+00 0. -1.
        -12    1    5    5    0    0  0.56799458560E+02 -0.40229532778E+02  0.14324356631E+04  0.14341256997E+04  0.00000000000E+00 0.  1.
          5    1    4    4  501    0 -0.57214255665E+02 -0.43797501462E+02 -0.20892560463E+03  0.22104088503E+03  0.41800000000E+01 0. -1.
         -5    1    4    4    0  501  0.86784947961E+01  0.61588612406E+02 -0.22774816837E+03  0.23612533546E+03  0.41800000000E+01 0. -1.
</event>
<event>
11    1  0.8039394E-009  0.1337192E+03  0.7561462E-02  0.1114782E+00
         22   -1    0    0    0    0  0.00000000000E+00  0.00000000000E+00  0.12735059747E+03  0.12735059747E+03  0.00000000000E+00 0. -1.
         22   -1    0    0    0    0 -0.00000000000E+00 -0.00000000000E+00 -0.39147520331E+03  0.39147520331E+03  0.00000000000E+00 0. -1.
         24    2    1    2    0    0 -0.22940714540E+02 -0.41306524735E+02 -0.28011760649E+03  0.29511958502E+03  0.79982439510E+02 0.  0.
         25    2    1    2    0    0  0.33437701118E+02  0.35304506897E+02 -0.23231804792E+02  0.13620634928E+03  0.12509182534E+03 0.  0.
        -24    2    1    2    0    0 -0.10496986579E+02  0.60020178381E+01  0.39224805439E+02  0.87499866484E+02  0.77275030428E+02 0.  0.
        -11    1    3    3    0    0 -0.24187767764E+02  0.17885265223E+02 -0.13653433302E+03  0.13980899440E+03  0.00000000000E+00 0.  1.
         12    1    3    3    0    0  0.12470532245E+01 -0.59191789958E+02 -0.14358327347E+03  0.15531059062E+03  0.00000000000E+00 0. -1.
         11    1    5    5    0    0  0.28139317052E+02 -0.69803301471E+01  0.36550914648E+02  0.46653140674E+02  0.00000000000E+00 0. -1.
        -12    1    5    5    0    0 -0.38636303631E+02  0.12982347985E+02  0.26738907908E+01  0.40846725810E+02  0.00000000000E+00 0.  1.
          5    1    4    4  501    0  0.79629258569E+02  0.36016346108E+02 -0.10627406022E+02  0.88138585001E+02  0.41800000000E+01 0.  1.
         -5    1    4    4    0  501 -0.46191557450E+02 -0.71183921106E+00 -0.12604398770E+02  0.48067764282E+02  0.41800000000E+01 0.  1.
</event>
<event>
11    1  0.8039394E-009  0.1753529E+03  0.7561462E-02  0.1073465E+00
         22   -1    0    0    0    0  0.00000000000E+00  0.00000000000E+00  0.12074069502E+04  0.12074069502E+04  0.00000000000E+00 0. -1.
         22   -1    0    0    0    0 -0.00000000000E+00 -0.00000000000E+00 -0.88239779842E+02  0.88239779842E+02  0.00000000000E+00 0. -1.
         24    2    1    2    0    0 -0.10371595121E+03  0.59173485980E+02  0.80267341441E+01  0.14416826846E+03  0.80383836619E+02 0.  0.
         25    2    1    2    0    0  0.14375300201E+03 -0.50056081728E+02  0.57853333279E+03  0.61116302971E+03  0.12509554284E+03 0.  0.
        -24    2    1    2    0    0 -0.40037050791E+02 -0.91174042512E+01  0.53260710346E+03  0.54031543190E+03  0.81143988089E+02 0.  0.
        -11    1    3    3    0    0 -0.48882812029E+02 -0.79532863645E+01  0.25567014226E+02  0.55735592688E+02  0.00000000000E+00 0.  1.
         12    1    3    3    0    0 -0.54833139185E+02  0.67126772344E+02 -0.17540280082E+02  0.88432675768E+02  0.00000000000E+00 0. -1.
         13    1    5    5    0    0 -0.36018009920E+02 -0.91663200180E+01  0.53455743374E+03  0.53584789673E+03  0.00000000000E+00 0. -1.
        -14    1    5    5    0    0 -0.40190408715E+01  0.48915766766E-01 -0.19503302864E+01  0.44675351711E+01  0.00000000000E+00 0.  1.
          5    1    4    4  501    0  0.81504088056E+02 -0.43255926568E+02  0.13722845708E+03  0.16541799596E+03  0.41800000000E+01 0. -1.
         -5    1    4    4    0  501  0.62248913950E+02 -0.68001551602E+01  0.44130487570E+03  0.44574503376E+03  0.41800000000E+01 0. -1.
</event>
<event>
11    1  0.8039394E-009  0.2041853E+03  0.7561462E-02  0.1051603E+00
         22   -1    0    0    0    0  0.00000000000E+00  0.00000000000E+00  0.69995985826E+03  0.69995985826E+03  0.00000000000E+00 0. -1.
         22   -1    0    0    0    0 -0.00000000000E+00 -0.00000000000E+00 -0.66955515310E+03  0.66955515310E+03  0.00000000000E+00 0.  1.
        -24    2    1    2    0    0 -0.86342837214E+01 -0.16279950697E+03 -0.59045211001E+03  0.61526263828E+03  0.57759756962E+02 0.  0.
         25    2    1    2    0    0  0.89168681521E+02  0.13270949216E+03  0.11117837620E+03  0.23145375477E+03  0.12508935283E+03 0.  0.
         24    2    1    2    0    0 -0.80534397800E+02  0.30090014811E+02  0.50967843897E+03  0.52279861830E+03  0.78454355698E+02 0.  0.
        -11    1    5    5    0    0 -0.93867523871E+02  0.24864172039E+02  0.37528665187E+03  0.38764598561E+03  0.00000000000E+00 0.  1.
         12    1    5    5    0    0  0.13333126071E+02  0.52258427713E+01  0.13439178709E+03  0.13515263268E+03  0.00000000000E+00 0. -1.
         13    1    3    3    0    0 -0.29297648269E+02 -0.81620601571E+02 -0.24838698697E+03  0.26309004179E+03  0.00000000000E+00 0. -1.
        -14    1    3    3    0    0  0.20663364548E+02 -0.81178905395E+02 -0.34206512305E+03  0.35217259649E+03  0.00000000000E+00 0.  1.
          5    1    4    4  501    0  0.97277571904E+02  0.61185711112E+02  0.22525846807E+02  0.11718149775E+03  0.41800000000E+01 0.  1.
         -5    1    4    4    0  501 -0.81088903831E+01  0.71523781044E+02  0.88652529395E+02  0.11427225703E+03  0.41800000000E+01 0.  1.
</event>
<event>
11    1  0.8039394E-009  0.1615888E+03  0.7561462E-02  0.1085592E+00
         22   -1    0    0    0    0  0.00000000000E+00  0.00000000000E+00  0.13844743992E+04  0.13844743992E+04  0.00000000000E+00 0.  1.
         22   -1    0    0    0    0 -0.00000000000E+00 -0.00000000000E+00 -0.66225812698E+03  0.66225812698E+03  0.00000000000E+00 0.  1.
        -24    2    1    2    0    0  0.37680366225E+01  0.55778974665E+02 -0.62757155636E+03  0.63511955194E+03  0.80033085669E+02 0.  0.
         25    2    1    2    0    0  0.95975361835E+02 -0.24546931960E+02  0.20660370669E+03  0.26104931889E+03  0.12509129997E+03 0.  0.
         24    2    1    2    0    0 -0.99743398457E+02 -0.31232042705E+02  0.11431841219E+04  0.11505636554E+04  0.77476463733E+02 0.  0.
        -11    1    5    5    0    0 -0.23145729969E+02 -0.45215037687E+02  0.53760797548E+03  0.54000227754E+03  0.00000000000E+00 0.  1.
         12    1    5    5    0    0 -0.76597668489E+02  0.13982994982E+02  0.60557614645E+03  0.61056137784E+03  0.00000000000E+00 0. -1.
         13    1    3    3    0    0 -0.11279406945E+02  0.15800415522E+02 -0.28248827922E+02  0.34276441336E+02  0.00000000000E+00 0. -1.
        -14    1    3    3    0    0  0.15047443568E+02  0.39978559143E+02 -0.59932272843E+03  0.60084311061E+03  0.00000000000E+00 0.  1.
          5    1    4    4  501    0  0.12050515481E+03 -0.35014255731E+02  0.13420916890E+03  0.18378537444E+03  0.41800000000E+01 0. -1.
         -5    1    4    4    0  501 -0.24529792978E+02  0.10467323770E+02  0.72394537791E+02  0.77263944453E+02  0.41800000000E+01 0. -1.
</event>
<event>
11    1  0.8039394E-009  0.1735052E+03  0.7561462E-02  0.1075021E+00
         22   -1    0    0    0    0  0.00000000000E+00  0.00000000000E+00  0.20402028490E+03  0.20402028490E+03  0.00000000000E+00 0.  1.
         22   -1    0    0    0    0 -0.00000000000E+00 -0.00000000000E+00 -0.35760900642E+04  0.35760900642E+04  0.00000000000E+00 0.  1.
        -24    2    1    2    0    0  0.39929838861E+02  0.40960444432E+02 -0.33587675161E+04  0.33602237436E+04  0.80698386247E+02 0.  0.
         25    2    1    2    0    0 -0.12888984569E+03  0.38930701672E+02 -0.13816780098E+03  0.22993078313E+03  0.12509848900E+03 0.  0.
         24    2    1    2    0    0  0.88960006825E+02 -0.79891146103E+02  0.12486553782E+03  0.18995582238E+03  0.78710443292E+02 0.  0.
        -13    1    5    5    0    0  0.75399972743E+02 -0.79674156251E+02  0.13432175071E+03  0.17342277756E+03  0.00000000000E+00 0.  1.
         14    1    5    5    0    0  0.13560034082E+02 -0.21698985166E+00 -0.94562128897E+01  0.16533044823E+02  0.00000000000E+00 0. -1.
         13    1    3    3    0    0 -0.95332017101E+01  0.29466583157E+02 -0.47470336164E+03  0.47571256343E+03  0.00000000000E+00 0. -1.
        -14    1    3    3    0    0  0.49463040571E+02  0.11493861275E+02 -0.28840641545E+04  0.28845111801E+04  0.00000000000E+00 0.  1.
          5    1    4    4  501    0 -0.37228207152E+02 -0.35584067592E+02 -0.86876085331E+02  0.10107963136E+03  0.41800000000E+01 0. -1.
         -5    1    4    4    0  501 -0.91661638534E+02  0.74514769264E+02 -0.51291715648E+02  0.12885115177E+03  0.41800000000E+01 0. -1.
</event>
<event>
11    1  0.8039394E-009  0.1691520E+03  0.7561462E-02  0.1078772E+00
         22   -1    0    0    0    0  0.00000000000E+00  0.00000000000E+00  0.79087093989E+03  0.79087093989E+03  0.00000000000E+00 0.  1.
         22   -1    0    0    0    0 -0.00000000000E+00 -0.00000000000E+00 -0.18688346175E+03  0.18688346175E+03  0.00000000000E+00 0. -1.
         24    2    1    2    0    0 -0.45293332949E+02  0.10242078438E+03 -0.91546683721E+02  0.16644457875E+03  0.82349859822E+02 0.  0.
         25    2    1    2    0    0 -0.18594877267E+02 -0.13701197634E+03  0.11157275078E+03  0.21729002427E+03  0.12509366415E+03 0.  0.
        -24    2    1    2    0    0  0.63888210216E+02  0.34591191959E+02  0.58396141109E+03  0.59401979862E+03  0.81057618711E+02 0.  0.
        -13    1    3    3    0    0  0.23149237010E+02  0.34738667175E+02 -0.37146242983E+02  0.55879383846E+02  0.00000000000E+00 0.  1.
         14    1    3    3    0    0 -0.68442569959E+02  0.67682117206E+02 -0.54400440738E+02  0.11056519491E+03  0.00000000000E+00 0. -1.
         11    1    5    5    0    0  0.33987543558E+02 -0.21404205184E+02  0.14378335246E+03  0.14928812934E+03  0.00000000000E+00 0. -1.
        -12    1    5    5    0    0  0.29900666659E+02  0.55995397143E+02  0.44017805863E+03  0.44473166929E+03  0.00000000000E+00 0.  1.
          5    1    4    4  501    0 -0.47874450596E+02 -0.12190894234E+03  0.12534732161E+03  0.18133719056E+03  0.41800000000E+01 0.  1.
         -5    1    4    4    0  501  0.29279573328E+02 -0.15103033997E+02 -0.13774570838E+02  0.35952833713E+02  0.41800000000E+01 0.  1.
</event>
<event>
11    1  0.8039394E-009  0.1420376E+03  0.7561462E-02  0.1105304E+00
         22   -1    0    0    0    0  0.00000000000E+00  0.00000000000E+00  0.21307641371E+03  0.21307641371E+03  0.00000000000E+00 0.  1.
         22   -1    0    0    0    0 -0.00000000000E+00 -0.00000000000E+00 -0.69336345762E+03  0.69336345762E+03  0.00000000000E+00 0. -1.
        -24    2    1    2    0    0  0.87298034476E+01  0.63637033265E+02 -0.46287042680E+03  0.47366035776E+03  0.77325422949E+02 0.  0.
         25    2    1    2    0    0 -0.27233615549E+02 -0.78947330038E+02 -0.18914388891E+03  0.24164966199E+03  0.12507916569E+03 0.  0.
         24    2    1    2    0    0  0.18503812101E+02  0.15310296772E+02  0.17172727180E+03  0.19112985158E+03  0.80396318557E+02 0.  0.
        -13    1    5    5    0    0  0.33922649123E+02 -0.23793825036E+02  0.75510384971E+02  0.86131936422E+02  0.00000000000E+00 0.  1.
         14    1    5    5    0    0 -0.15418837021E+02  0.39104121808E+02  0.96216886828E+02  0.10499791516E+03  0.00000000000E+00 0. -1.
         11    1    3    3    0    0 -0.88696772832E+00  0.76626845585E+02 -0.43270135605E+03  0.43943477753E+03  0.00000000000E+00 0. -1.
        -12    1    3    3    0    0  0.96167711759E+01 -0.12989812319E+02 -0.30169070747E+02  0.34225580224E+02  0.00000000000E+00 0.  1.
          5    1    4    4  501    0 -0.75490734542E+02 -0.58434247319E+02 -0.10127554773E+03  0.13923943848E+03  0.41800000000E+01 0. -1.
         -5    1    4    4    0  501  0.48257118992E+02 -0.20513082719E+02 -0.87868341184E+02  0.10241022351E+03  0.41800000000E+01 0. -1.
</event>
<event>
11    1  0.8039394E-009  0.1727868E+03  0.7561462E-02  0.1075632E+00
         22   -1    0    0    0    0  0.00000000000E+00  0.00000000000E+00  0.11074960178E+04  0.11074960178E+04  0.00000000000E+00 0.  1.
         22   -1    0    0    0    0 -0.00000000000E+00 -0.00000000000E+00 -0.73593241066E+02  0.73593241066E+02  0.00000000000E+00 0.  1.
         24    2    1    2    0    0 -0.45023085933E+02 -0.57031397567E+02  0.17799477136E+03  0.20370215634E+03  0.67325858983E+02 0.  0.
         25    2    1    2    0    0  0.15908862698E+03  0.46871892418E+02  0.14626369685E+03  0.25406122068E+03  0.12509144377E+03 0.  0.
        -24    2    1    2    0    0 -0.11406554105E+03  0.10159505149E+02  0.70964430854E+03  0.72332588187E+03  0.80567509203E+02 0.  0.
        -13    1    3    3    0    0  0.73658358207E+01 -0.27675964607E+02  0.20709927515E+02  0.35342830276E+02  0.00000000000E+00 0.  1.
         14    1    3    3    0    0 -0.52388921754E+02 -0.29355432960E+02  0.15728484385E+03  0.16835932606E+03  0.00000000000E+00 0. -1.
         11    1    5    5    0    0  0.83711788577E+01 -0.14920078678E+01  0.10820413322E+02  0.13761688392E+02  0.00000000000E+00 0. -1.
        -12    1    5    5    0    0 -0.12243671991E+03  0.11651513017E+02  0.69882389522E+03  0.70956419348E+03  0.00000000000E+00 0.  1.
          5    1    4    4  501    0  0.57082545444E+02  0.77220316261E+02  0.41599099285E+02  0.10473467286E+03  0.41800000000E+01 0. -1.
         -5    1    4    4    0  501  0.10200608154E+03 -0.30348423844E+02  0.10466459756E+03  0.14932654782E+03  0.41800000000E+01 0. -1.
</event>
<event>
11    1  0.8039394E-009  0.1742463E+03  0.7561462E-02  0.1074394E+00
         22   -1    0    0    0    0  0.00000000000E+00  0.00000000000E+00  0.10239555968E+03  0.10239555968E+03  0.00000000000E+00 0. -1.
         22   -1    0    0    0    0 -0.00000000000E+00 -0.00000000000E+00 -0.22634866026E+04  0.22634866026E+04  0.00000000000E+00 0.  1.
        -24    2    1    2    0    0  0.76889910024E+02 -0.32171732761E+02 -0.16947938724E+04  0.16989101661E+04  0.83799785333E+02 0.  0.
         25    2    1    2    0    0 -0.17113320011E+03  0.92813570285E+02 -0.47636630542E+03  0.52959827454E+03  0.12509414235E+03 0.  0.
         24    2    1    2    0    0  0.94243290088E+02 -0.60641837524E+02  0.10069134907E+02  0.13737372160E+03  0.78809401237E+02 0.  0.
        -13    1    5    5    0    0  0.90675276715E+02 -0.27965685688E+02 -0.14955996502E+02  0.96061268025E+02  0.00000000000E+00 0.  1.
         14    1    5    5    0    0  0.35680133731E+01 -0.32676151836E+02  0.25025131409E+02  0.41312453574E+02  0.00000000000E+00 0. -1.
         11    1    3    3    0    0  0.18216790234E+02 -0.39143081587E+02 -0.32663435621E+03  0.32947539353E+03  0.00000000000E+00 0. -1.
        -12    1    3    3    0    0  0.58673119790E+02  0.69713488261E+01 -0.13681595162E+04  0.13694347726E+04  0.00000000000E+00 0.  1.
          5    1    4    4  501    0  0.32861639068E+01  0.25783960937E+02 -0.11810778411E+02  0.28854434694E+02  0.41800000000E+01 0. -1.
         -5    1    4    4    0  501 -0.17441936402E+03  0.67029609348E+02 -0.46455552701E+03  0.50074383985E+03  0.41800000000E+01 0. -1.
</event>
<event>
11    1  0.8039394E-009  0.1309793E+03  0.7561462E-02  0.1118072E+00
         22   -1    0    0    0    0  0.00000000000E+00  0.00000000000E+00  0.46694791032E+03  0.46694791032E+03  0.00000000000E+00 0.  1.
         22   -1    0    0    0    0 -0.00000000000E+00 -0.00000000000E+00 -0.43783256198E+03  0.43783256198E+03  0.00000000000E+00 0.  1.
        -24    2    1    2    0    0 -0.28396611758E+02  0.28381696676E+02 -0.39994943923E+03  0.41003988439E+03  0.81001633234E+02 0.  0.
         25    2    1    2    0    0  0.27314914844E+02  0.16310211496E+02  0.13653369207E+03  0.18788469173E+03  0.12508829179E+03 0.  0.
         24    2    1    2    0    0  0.10816969142E+01 -0.44691908172E+02  0.29253109549E+03  0.30685589619E+03  0.81163800238E+02 0.  0.
        -11    1    5    5    0    0 -0.25695667795E+02 -0.39812780495E+02  0.26071405637E+03  0.26498517698E+03  0.00000000000E+00 0.  1.
         12    1    5    5    0    0  0.26777364709E+02 -0.48791276768E+01  0.31817039127E+02  0.41870719202E+02  0.00000000000E+00 0. -1.
         13    1    3    3    0    0 -0.36906511562E+02  0.25401206211E+02 -0.95822543854E+02  0.10577935424E+03  0.00000000000E+00 0. -1.
        -14    1    3    3    0    0  0.85098998036E+01  0.29804904653E+01 -0.30412689537E+03  0.30426053015E+03  0.00000000000E+00 0.  1.
          5    1    4    4  501    0 -0.15104555420E+02 -0.37498704794E+02  0.69366331884E+01  0.41229719083E+02  0.41800000000E+01 0. -1.
         -5    1    4    4    0  501  0.42419470264E+02  0.53808916290E+02  0.12959705888E+03  0.14665497264E+03  0.41800000000E+01 0. -1.
</event>
<event>
11    1  0.8039394E-009  0.1448452E+03  0.7561462E-02  0.1102265E+00
         22   -1    0    0    0    0  0.00000000000E+00  0.00000000000E+00  0.33947196471E+03  0.33947196471E+03  0.00000000000E+00 0.  1.
         22   -1    0    0    0    0 -0.00000000000E+00 -0.00000000000E+00 -0.28610704883E+04  0.28610704883E+04  0.00000000000E+00 0. -1.
         24    2    1    2    0    0  0.57630442559E+02 -0.44280400171E+02 -0.27824167800E+04  0.27846035841E+04  0.83017835191E+02 0.  0.
         25    2    1    2    0    0 -0.92150530640E+02  0.50418670774E+02  0.26189423577E+02  0.16542843525E+03  0.12508764376E+03 0.  0.
        -24    2    1    2    0    0  0.34520088081E+02 -0.61382706022E+01  0.23462883286E+03  0.25051043368E+03  0.80470325748E+02 0.  0.
        -13    1    3    3    0    0  0.20599684252E+01  0.15299631126E+02 -0.12665126027E+03  0.12758865118E+03  0.00000000000E+00 0.  1.
         14    1    3    3    0    0  0.55570474134E+02 -0.59580031297E+02 -0.26557655197E+04  0.26570149329E+04  0.00000000000E+00 0. -1.
         11    1    5    5    0    0  0.94317032016E+01  0.12179217594E+00 -0.41718517624E+01  0.10313884125E+02  0.00000000000E+00 0. -1.
        -12    1    5    5    0    0  0.25088384879E+02 -0.62600627782E+01  0.23880068462E+03  0.24019654955E+03  0.00000000000E+00 0.  1.
          5    1    4    4  501    0 -0.44485837550E+02  0.90202766015E+02  0.22148272644E+02  0.10307059290E+03  0.41800000000E+01 0.  1.
         -5    1    4    4    0  501 -0.47664693090E+02 -0.39784095241E+02  0.40411509325E+01  0.62357842349E+02  0.41800000000E+01 0.  1.
</event>
<event>
11    1  0.8039394E-009  0.1495419E+03  0.7561462E-02  0.1097348E+00
         22   -1    0    0    0    0  0.00000000000E+00  0.00000000000E+00  0.36031205594E+03  0.36031205594E+03  0.00000000000E+00 0. -1.
         22   -1    0    0    0    0 -0.00000000000E+00 -0.00000000000E+00 -0.63011323950E+03  0.63011323950E+03  0.00000000000E+00 0. -1.
        -24    2    1    2    0    0  0.15827964439E+02  0.38125036581E+02 -0.52823161476E+03  0.53591464895E+03  0.80447680232E+02 0.  0.
         25    2    1    2    0    0 -0.95483520164E+02 -0.42590239814E+02 -0.10280564063E+02  0.16335422860E+03  0.12509149793E+03 0.  0.
         24    2    1    2    0    0  0.79655555726E+02  0.44652032324E+01  0.26871099526E+03  0.29115641789E+03  0.78749699084E+02 0.  0.
        -11    1    5    5    0    0  0.59126683565E+01  0.32630321965E+02  0.79594786276E+02  0.86226605876E+02  0.00000000000E+00 0.  1.
         12    1    5    5    0    0  0.73742887369E+02 -0.28165118732E+02  0.18911620898E+03  0.20492981201E+03  0.00000000000E+00 0. -1.
         11    1    3    3    0    0  0.39721451732E+02  0.47497427599E+02 -0.30567616983E+03  0.31188414541E+03  0.00000000000E+00 0. -1.
        -12    1    3    3    0    0 -0.23893487293E+02 -0.93723910177E+01 -0.22255544494E+03  0.22403050355E+03  0.00000000000E+00 0.  1.
          5    1    4    4  501    0 -0.62182181578E+02 -0.16157487120E+02  0.55443468661E+02  0.84965514846E+02  0.41800000000E+01 0.  1.
         -5    1    4    4    0  501 -0.33301338586E+02 -0.26432752693E+02 -0.65724032724E+02  0.78388713755E+02  0.41800000000E+01 0.  1.
</event>
<event>
11    1  0.8039394E-009  0.1314011E+03  0.7561462E-02  0.1117559E+00
         22   -1    0    0    0    0  0.00000000000E+00  0.00000000000E+00  0.88885955744E+03  0.88885955744E+03  0.00000000000E+00 0. -1.
         22   -1    0    0    0    0 -0.00000000000E+00 -0.00000000000E+00 -0.97188580122E+02  0.97188580122E+02  0.00000000000E+00 0. -1.
        -24    2    1    2    0    0  0.50127813564E+01 -0.12463207243E+02 -0.59162085655E+02  0.10149581417E+03  0.81368227235E+02 0.  0.
         25    2    1    2    0    0 -0.41642993746E+02 -0.42659000832E+01  0.31517922437E+03  0.34166835672E+03  0.12508791179E+03 0.  0.
         24    2    1    2    0    0  0.36630212390E+02  0.16729107327E+02  0.53565383861E+03  0.54288396668E+03  0.78589636521E+02 0.  0.
        -13    1    5    5    0    0  0.85560127196E+01  0.28332492436E+01  0.32828307680E+01  0.95921651772E+01  0.00000000000E+00 0.  1.
         14    1    5    5    0    0  0.28074199670E+02  0.13895858083E+02  0.53237100784E+03  0.53329180150E+03  0.00000000000E+00 0. -1.
         11    1    3    3    0    0  0.33012155232E+02  0.97043519614E+00 -0.62065090116E+02  0.70305188632E+02  0.00000000000E+00 0. -1.
        -12    1    3    3    0    0 -0.27999373875E+02 -0.13433642440E+02  0.29030044605E+01  0.31190625539E+02  0.00000000000E+00 0.  1.
          5    1    4    4  501    0 -0.34546968335E+02 -0.21512795910E+02  0.19410589701E+02  0.45282853284E+02  0.41800000000E+01 0. -1.
         -5    1    4    4    0  501 -0.70960254116E+01  0.17246895827E+02  0.29576863467E+03  0.29638550343E+03  0.41800000000E+01 0. -1.
</event>
<event>
11    1  0.8039394E-009  0.2022548E+03  0.7561462E-02  0.1052941E+00
         22   -1    0    0    0    0  0.00000000000E+00  0.00000000000E+00  0.18064316433E+04  0.18064316433E+04  0.00000000000E+00 0. -1.
         22   -1    0    0    0    0 -0.00000000000E+00 -0.00000000000E+00 -0.37677964330E+03  0.37677964330E+03  0.00000000000E+00 0. -1.
         24    2    1    2    0    0 -0.10630135200E+02 -0.54319093721E+02 -0.31385207638E+03  0.32854513155E+03  0.79844936613E+02 0.  0.
         25    2    1    2    0    0  0.10706020676E+03  0.17497923974E+03  0.23505900856E+03  0.33612446132E+03  0.12508914335E+03 0.  0.
        -24    2    1    2    0    0 -0.96430071557E+02 -0.12066014602E+03  0.15084450679E+04  0.15185416938E+04  0.81882375294E+02 0.  0.
        -13    1    3    3    0    0 -0.44465097117E+02 -0.19466806251E+02 -0.16153200210E+03  0.16866739196E+03  0.00000000000E+00 0.  1.
         14    1    3    3    0    0  0.33834961918E+02 -0.34852287469E+02 -0.15232007428E+03  0.15987773959E+03  0.00000000000E+00 0. -1.
         11    1    5    5    0    0 -0.95121553904E+02 -0.11969261675E+03  0.15090726449E+04  0.15167975079E+04  0.00000000000E+00 0. -1.
        -12    1    5    5    0    0 -0.13085176526E+01 -0.96752927429E+00 -0.62757700999E+00  0.17441858408E+01  0.00000000000E+00 0.  1.
          5    1    4    4  501    0  0.64992955391E+02  0.33422907662E+02  0.21220810735E+02  0.76216600655E+02  0.41800000000E+01 0.  1.
         -5    1    4    4    0  501  0.42067251365E+02  0.14155633208E+03  0.21383819782E+03  0.25990786067E+03  0.41800000000E+01 0.  1.
</event>
<event>
11    1  0.8039394E-009  0.1670493E+03  0.7561462E-02  0.1080628E+00
         22   -1    0    0    0    0  0.00000000000E+00  0.00000000000E+00  0.31702138541E+03  0.31702138541E+03  0.00000000000E+00 0. -1.
         22   -1    0    0    0    0 -0.00000000000E+00 -0.00000000000E+00 -0.55067145415E+03  0.55067145415E+03  0.00000000000E+00 0. -1.
        -24    2    1    2    0    0 -0.77990439671E+02  0.52044523868E+02 -0.23126214771E+03  0.26271701851E+03  0.82139574531E+02 0.  0.
         25    2    1    2    0    0  0.13987098827E+03 -0.47819470783E+02 -0.26242483519E+03  0.32613895233E+03  0.12509687028E+03 0.  0.
         24    2    1    2    0    0 -0.61880548604E+02 -0.42250530857E+01  0.26003691416E+03  0.27883686873E+03  0.79270103228E+02 0.  0.
        -13    1    5    5    0    0  0.11928186864E+02 -0.10926140767E+02  0.12498409926E+02  0.20441928593E+02  0.00000000000E+00 0.  1.
         14    1    5    5    0    0 -0.73808735468E+02  0.67010876816E+01  0.24753850424E+03  0.25839494013E+03  0.00000000000E+00 0. -1.
         11    1    3    3    0    0 -0.87227782838E+02  0.20686568564E+02 -0.18989610142E+03  0.20999321311E+03  0.00000000000E+00 0. -1.
        -12    1    3    3    0    0  0.92373431667E+01  0.31357955304E+02 -0.41366046286E+02  0.52723805392E+02  0.00000000000E+00 0.  1.
          5    1    4    4  501    0  0.43736940386E+02  0.34321836983E+02 -0.13734917187E+03  0.14823351801E+03  0.41800000000E+01 0. -1.
         -5    1    4    4    0  501  0.96134047889E+02 -0.82141307765E+02 -0.12507566332E+03  0.17790543432E+03  0.41800000000E+01 0. -1.
</event>
<event>
11    1  0.8039394E-009  0.1682851E+03  0.7561462E-02  0.1079534E+00
         22   -1    0    0    0    0  0.00000000000E+00  0.00000000000E+00  0.52178615988E+03  0.52178615988E+03  0.00000000000E+00 0. -1.
         22   -1    0    0    0    0 -0.00000000000E+00 -0.00000000000E+00 -0.29052140934E+03  0.29052140934E+03  0.00000000000E+00 0. -1.
        -24    2    1    2    0    0  0.74006646406E+00 -0.10766554121E+03 -0.17382714228E+03  0.21995274454E+03  0.81061198956E+02 0.  0.
         25    2    1    2    0    0  0.17019709981E+02  0.13217121004E+03  0.33249152274E+01  0.18280740226E+03  0.12509433227E+03 0.  0.
         24    2    1    2    0    0 -0.17759776445E+02 -0.24505668829E+02  0.40176697760E+03  0.40954742241E+03  0.73460529896E+02 0.  0.
        -11    1    5    5    0    0 -0.29564501515E+02  0.16840728877E+02  0.12897732707E+03  0.13338973273E+03  0.00000000000E+00 0.  1.
         12    1    5    5    0    0  0.11804725070E+02 -0.41346397706E+02  0.27278965052E+03  0.27615768968E+03  0.00000000000E+00 0. -1.
         11    1    3    3    0    0 -0.52152945031E+01 -0.11664945035E+03 -0.17354542316E+03  0.20917052245E+03  0.00000000000E+00 0. -1.
        -12    1    3    3    0    0  0.59553609672E+01  0.89839091326E+01 -0.28171911712E+00  0.10782222091E+02  0.00000000000E+00 0.  1.
          5    1    4    4  501    0 -0.51219700130E+01  0.12098192250E+03  0.48973180585E+02  0.13068551934E+03  0.41800000000E+01 0.  1.
         -5    1    4    4    0  501  0.22141679994E+02  0.11189287543E+02 -0.45648265358E+02  0.52121882918E+02  0.41800000000E+01 0.  1.
</event>
<event>
11    1  0.8039394E-009  0.1425497E+03  0.7561462E-02  0.1104744E+00
         22   -1    0    0    0    0  0.00000000000E+00  0.00000000000E+00  0.43893973935E+03  0.43893973935E+03  0.00000000000E+00 0.  1.
         22   -1    0    0    0    0 -0.00000000000E+00 -0.00000000000E+00 -0.10135672665E+04  0.10135672665E+04  0.00000000000E+00 0. -1.
         24    2    1    2    0    0 -0.24231909153E+02 -0.20633533081E+02 -0.92536778539E+03  0.92992471649E+03  0.86264198826E+02 0.  0.
         25    2    1    2    0    0  0.90398956678E+02  0.18619059241E+02 -0.83075585128E+00  0.15545601182E+03  0.12508893125E+03 0.  0.
        -24    2    1    2    0    0 -0.66167047525E+02  0.20144738397E+01  0.35157101409E+03  0.36712627753E+03  0.82446282056E+02 0.  0.
        -13    1    3    3    0    0 -0.41243984186E+02 -0.32565720853E+02 -0.32695574422E+03  0.33115200601E+03  0.00000000000E+00 0.  1.
         14    1    3    3    0    0  0.17012075033E+02  0.11932187772E+02 -0.59841204117E+03  0.59877271048E+03  0.00000000000E+00 0. -1.
         13    1    5    5    0    0  0.15773282124E+02  0.18963669585E+00  0.12868904038E+03  0.12965223294E+03  0.00000000000E+00 0. -1.
        -14    1    5    5    0    0 -0.81940329649E+02  0.18248371438E+01  0.22288197371E+03  0.23747404460E+03  0.00000000000E+00 0.  1.
          5    1    4    4  501    0  0.26101640017E+02 -0.24644556012E+02  0.50724579426E+02  0.62282462303E+02  0.41800000000E+01 0.  1.
         -5    1    4    4    0  501  0.64297316661E+02  0.43263615253E+02 -0.51555335277E+02  0.93173549520E+02  0.41800000000E+01 0.  1.
</event>
<event>
11    1  0.8039394E-009  0.1549195E+03  0.7561462E-02  0.1091955E+00
         22   -1    0    0    0    0  0.00000000000E+00  0.00000000000E+00  0.10334680111E+04  0.10334680111E+04  0.00000000000E+00 0. -1.
         22   -1    0    0    0    0 -0.00000000000E+00 -0.00000000000E+00 -0.21055097705E+03  0.21055097705E+03  0.00000000000E+00 0. -1.
         24    2    1    2    0    0 -0.19566217877E+02 -0.11104562645E+02 -0.16692645227E+03  0.18812889899E+03  0.83796742031E+02 0.  0.
         25    2    1    2    0    0  0.91728829304E+02 -0.42901285629E+02  0.19810321162E+03  0.25523949995E+03  0.12509045307E+03 0.  0.
        -24    2    1    2    0    0 -0.72162611427E+02  0.54005848274E+02  0.79174027472E+03  0.80065058922E+03  0.77875729630E+02 0.  0.
        -13    1    3    3    0    0  0.20760371876E+02  0.21859534611E+02 -0.92491109875E+02  0.97280201993E+02  0.00000000000E+00 0.  1.
         14    1    3    3    0    0 -0.40326589753E+02 -0.32964097256E+02 -0.74435342395E+02  0.90848696999E+02  0.00000000000E+00 0. -1.
         13    1    5    5    0    0 -0.88425998974E+02  0.50019853463E+02  0.70808378638E+03  0.71533474092E+03  0.00000000000E+00 0. -1.
        -14    1    5    5    0    0  0.16263387547E+02  0.39859948115E+01  0.83656488335E+02  0.85315848292E+02  0.00000000000E+00 0.  1.
          5    1    4    4  501    0  0.10416985695E+03 -0.14438407322E+02  0.19761224092E+03  0.22389260118E+03  0.41800000000E+01 0. -1.
         -5    1    4    4    0  501 -0.12441027643E+02 -0.28462878307E+02  0.49097069518E+00  0.31346898771E+02  0.41800000000E+01 0. -1.
</event>
<event>
11    1  0.8039394E-009  0.2000298E+03  0.7561462E-02  0.1054503E+00
         22   -1    0    0    0    0  0.00000000000E+00  0.00000000000E+00  0.30606162470E+03  0.30606162470E+03  0.00000000000E+00 0. -1.
         22   -1    0    0    0    0 -0.00000000000E+00 -0.00000000000E+00 -0.50768400588E+03  0.50768400588E+03  0.00000000000E+00 0.  1.
         24    2    1    2    0    0  0.62402984582E+02  0.13674465081E+03 -0.35787418828E+03  0.39604166188E+03  0.78624622710E+02 0.  0.
         25    2    1    2    0    0 -0.82952070470E+01 -0.21717783274E+03  0.55738166649E+02  0.25688620580E+03  0.12509499597E+03 0.  0.
        -24    2    1    2    0    0 -0.54107777535E+02  0.80433181931E+02  0.10051364045E+03  0.16081776290E+03  0.79763479133E+02 0.  0.
        -11    1    3    3    0    0 -0.14456136104E+02  0.22444451090E+02 -0.10216290556E+03  0.10559352503E+03  0.00000000000E+00 0.  1.
         12    1    3    3    0    0  0.76859120686E+02  0.11430019972E+03 -0.25571128273E+03  0.29044813685E+03  0.00000000000E+00 0. -1.
         13    1    5    5    0    0 -0.19949197001E+02  0.43846209163E+02 -0.39953504813E+00  0.48172815438E+02  0.00000000000E+00 0. -1.
        -14    1    5    5    0    0 -0.34158580534E+02  0.36586972768E+02  0.10091317550E+03  0.11264494746E+03  0.00000000000E+00 0.  1.
          5    1    4    4  501    0 -0.65322273058E+02 -0.12313442371E+03  0.43855092422E+02  0.14618422347E+03  0.41800000000E+01 0. -1.
         -5    1    4    4    0  501  0.57027066011E+02 -0.94043409025E+02  0.11883074227E+02  0.11070198233E+03  0.41800000000E+01 0. -1.
</event>
<event>
11    1  0.8039394E-009  0.1587761E+03  0.7561462E-02  0.1088234E+00
         22   -1    0    0    0    0  0.00000000000E+00  0.00000000000E+00  0.35728653542E+03  0.35728653542E+03  0.00000000000E+00 0.  1.
         22   -1    0    0    0    0 -0.00000000000E+00 -0.00000000000E+00 -0.10575417563E+04  0.10575417563E+04  0.00000000000E+00 0. -1.
        -24    2    1    2    0    0 -0.67258606851E+02  0.76438752492E+02 -0.84934830730E+03  0.85926328085E+03  0.81081660298E+02 0.  0.
         25    2    1    2    0    0  0.70583786282E+02 -0.37031769525E+02 -0.16873621332E+03  0.22466188369E+03  0.12509048508E+03 0.  0.
         24    2    1    2    0    0 -0.33251794304E+01 -0.39406982968E+02  0.31782929973E+03  0.33090312719E+03  0.83171201127E+02 0.  0.
        -11    1    5    5    0    0 -0.20039136293E+02 -0.16623392718E+02  0.29025894618E+03  0.29142436413E+03  0.00000000000E+00 0.  1.
         12    1    5    5    0    0  0.16713956862E+02 -0.22783590249E+02  0.27570353546E+02  0.39478763067E+02  0.00000000000E+00 0. -1.
         11    1    3    3    0    0 -0.24722439548E+02  0.78444341335E+02 -0.66464943330E+03  0.66971903280E+03  0.00000000000E+00 0. -1.
        -12    1    3    3    0    0 -0.42536167304E+02 -0.20055888425E+01 -0.18469887400E+03  0.18954424805E+03  0.00000000000E+00 0.  1.
          5    1    4    4  501    0  0.61839606472E+02 -0.58578485150E+02 -0.17947733662E+03  0.19870873813E+03  0.41800000000E+01 0. -1.
         -5    1    4    4    0  501  0.87441798103E+01  0.21546715626E+02  0.10741123293E+02  0.25953145559E+02  0.41800000000E+01 0. -1.
</event>
<event>
11    1  0.8039394E-009  0.1769347E+03  0.7561462E-02  0.1072150E+00
         22   -1    0    0    0    0  0.00000000000E+00  0.00000000000E+00  0.13142922793E+04  0.13142922793E+04  0.00000000000E+00 0.  1.
         22   -1    0    0    0    0 -0.00000000000E+00 -0.00000000000E+00 -0.96113863813E+03  0.96113863813E+03  0.00000000000E+00 0. -1.
        -24    2    1    2    0    0  0.12341373319E+02  0.12495436362E+03 -0.91917531755E+03  0.93127619321E+03  0.81401358474E+02 0.  0.
         25    2    1    2    0    0 -0.12924488879E+02 -0.10962722343E+03  0.16723378558E+03  0.23622700607E+03  0.12510351245E+03 0.  0.
         24    2    1    2    0    0  0.58311556006E+00 -0.15327140191E+02  0.11050951732E+04  0.11079277182E+04  0.77673841741E+02 0.  0.
        -13    1    5    5    0    0  0.27762852775E+02 -0.12956080631E+02  0.94701496919E+03  0.94751041572E+03  0.00000000000E+00 0.  1.
         14    1    5    5    0    0 -0.27179737215E+02 -0.23710595597E+01  0.15808020396E+03  0.16041730244E+03  0.00000000000E+00 0. -1.
         11    1    3    3    0    0  0.46095300081E+02  0.87888911512E+02 -0.58399487620E+03  0.59236749817E+03  0.00000000000E+00 0. -1.
        -12    1    3    3    0    0 -0.33753926762E+02  0.37065452112E+02 -0.33518044135E+03  0.33890869504E+03  0.00000000000E+00 0.  1.
          5    1    4    4  501    0 -0.30398225210E+01  0.21457650469E+02  0.67928347204E+02  0.71424113845E+02  0.41800000000E+01 0. -1.
         -5    1    4    4    0  501 -0.98846663582E+01 -0.13108487390E+03  0.99305438373E+02  0.16480289222E+03  0.41800000000E+01 0. -1.
</event>
<event>
11    1  0.8039394E-009  0.1340255E+03  0.7561462E-02  0.1114420E+00
         22   -1    0    0    0    0  0.00000000000E+00  0.00000000000E+00  0.57275286435E+02  0.57275286435E+02  0.00000000000E+00 0. -1.
         22   -1    0    0    0    0 -0.00000000000E+00 -0.00000000000E+00 -0.25403911020E+04  0.25403911020E+04  0.00000000000E+00 0. -1.
        -24    2    1    2    0    0  0.36436776913E+02 -0.19044550313E+02 -0.17212701405E+04  0.17236523142E+04  0.80722178559E+02 0.  0.
         25    2    1    2    0    0 -0.22819237345E+02 -0.28734664590E+02 -0.76634015972E+03  0.77734887298E+03  0.12509049279E+03 0.  0.
         24    2    1    2    0    0 -0.13617539568E+02  0.47779214904E+02  0.44944846620E+01  0.96665201230E+02  0.82798973277E+02 0.  0.
        -11    1    5    5    0    0  0.48796927023E+01  0.36392106237E+02 -0.35550761650E+02  0.51108252280E+02  0.00000000000E+00 0.  1.
         12    1    5    5    0    0 -0.18497232270E+02  0.11387108667E+02  0.40045246312E+02  0.45556948950E+02  0.00000000000E+00 0. -1.
         11    1    3    3    0    0 -0.43556822994E+01  0.41480041125E+01 -0.12574802614E+04  0.12574946464E+04  0.00000000000E+00 0. -1.
        -12    1    3    3    0    0  0.40792459212E+02 -0.23192554426E+02 -0.46378987909E+03  0.46615766780E+03  0.00000000000E+00 0.  1.
          5    1    4    4  501    0 -0.44113673934E+02  0.42439387288E+01 -0.95682428933E+02  0.10553021771E+03  0.41800000000E+01 0. -1.
         -5    1    4    4    0  501  0.21294436589E+02 -0.32978603319E+02 -0.67065773079E+03  0.67181865527E+03  0.41800000000E+01 0. -1.
</event>
<event>
11    1  0.8039394E-009  0.1676563E+03  0.7561462E-02  0.1080089E+00
         22   -1    0    0    0    0  0.00000000000E+00  0.00000000000E+00  0.88363685232E+02  0.88363685232E+02  0.00000000000E+00 0. -1.
         22   -1    0    0    0    0 -0.00000000000E+00 -0.00000000000E+00 -0.19826925624E+04  0.19826925624E+04  0.00000000000E+00 0.  1.
         24    2    1    2    0    0 -0.83578526798E+02  0.75975882694E+02 -0.14711057838E+04  0.14775748453E+04  0.79482648703E+02 0.  0.
         25    2    1    2    0    0  0.50532821373E+02 -0.99650868348E+02 -0.46416865483E+03  0.49353945119E+03  0.12507912757E+03 0.  0.
        -24    2    1    2    0    0  0.33045705425E+02  0.23674985654E+02  0.40945561486E+02  0.99941951120E+02  0.81604724101E+02 0.  0.
        -13    1    3    3    0    0 -0.98512470176E+02  0.68626053817E+02 -0.13504640254E+04  0.13557902957E+04  0.00000000000E+00 0.  1.
         14    1    3    3    0    0  0.14933943378E+02  0.73498288774E+01 -0.12064175847E+03  0.12178454966E+03  0.00000000000E+00 0. -1.
         13    1    5    5    0    0  0.11644969479E+02  0.41356601591E+02  0.54213258751E+02  0.69174064748E+02  0.00000000000E+00 0. -1.
        -14    1    5    5    0    0  0.21400735946E+02 -0.17681615936E+02 -0.13267697265E+02  0.30767886373E+02  0.00000000000E+00 0.  1.
          5    1    4    4  501    0  0.19783283528E+02 -0.11132162347E+03 -0.22257783607E+03  0.24968429599E+03  0.41800000000E+01 0.  1.
         -5    1    4    4    0  501  0.30749537845E+02  0.11670755119E+02 -0.24159081877E+03  0.24385515520E+03  0.41800000000E+01 0.  1.
</event>
<event>
11    1  0.8039394E-009  0.1389060E+03  0.7561462E-02  0.1108786E+00
         22   -1    0    0    0    0  0.00000000000E+00  0.00000000000E+00  0.74616640183E+03  0.74616640183E+03  0.00000000000E+00 0.  1.
         22   -1    0    0    0    0 -0.00000000000E+00 -0.00000000000E+00 -0.60125776678E+03  0.60125776678E+03  0.00000000000E+00 0.  1.
         24    2    1    2    0    0  0.19106471481E+02  0.53579225872E+00 -0.57672542718E+03  0.58272806262E+03  0.81206109915E+02 0.  0.
         25    2    1    2    0    0 -0.69080375841E+02  0.24092297895E+02  0.32011579384E+03  0.35138963296E+03  0.12509202829E+03 0.  0.
        -24    2    1    2    0    0  0.49973904360E+02 -0.24628090154E+02  0.40151826839E+03  0.41330647303E+03  0.80631177967E+02 0.  0.
        -11    1    3    3    0    0  0.10401134288E+02  0.26856334521E+02 -0.50516530454E+03  0.50598560376E+03  0.00000000000E+00 0.  1.
         12    1    3    3    0    0  0.87053371931E+01 -0.26320542262E+02 -0.71560122633E+02  0.76742458860E+02  0.00000000000E+00 0. -1.
         11    1    5    5    0    0 -0.16534820235E+02 -0.26529055857E+02  0.14129338264E+03  0.14471009316E+03  0.00000000000E+00 0. -1.
        -12    1    5    5    0    0  0.66508724595E+02  0.19009657037E+01  0.26022488575E+03  0.26859637987E+03  0.00000000000E+00 0.  1.
          5    1    4    4  501    0  0.19470910014E+02 -0.36510932571E+01  0.24177383408E+01  0.20390308419E+02  0.41800000000E+01 0. -1.
         -5    1    4    4    0  501 -0.88551285855E+02  0.27743391152E+02  0.31769805550E+03  0.33099932454E+03  0.41800000000E+01 0. -1.
</event>
<event>
11    1  0.8039394E-009  0.1539165E+03  0.7561462E-02  0.1092943E+00
         22   -1    0    0    0    0  0.00000000000E+00  0.00000000000E+00  0.89239137714E+03  0.89239137714E+03  0.00000000000E+00 0. -1.
         22   -1    0    0    0    0 -0.00000000000E+00 -0.00000000000E+00 -0.91820011016E+03  0.91820011016E+03  0.00000000000E+00 0. -1.
         24    2    1    2    0    0  0.44724891019E+02 -0.75856677404E+02 -0.52667512399E+03  0.54016614732E+03  0.81475328129E+02 0.  0.
         25    2    1    2    0    0 -0.76940500070E+02  0.60922874592E+02 -0.36603964173E+03  0.39908349314E+03  0.12510466810E+03 0.  0.
        -24    2    1    2    0    0  0.32215609051E+02  0.14933802812E+02  0.86690603270E+03  0.87134184684E+03  0.80309903376E+02 0.  0.
        -11    1    3    3    0    0  0.24206081867E+02 -0.45080747187E+01 -0.34283626102E+02  0.42209289922E+02  0.00000000000E+00 0.  1.
         12    1    3    3    0    0  0.20518809152E+02 -0.71348602686E+02 -0.49239149789E+03  0.49795685740E+03  0.00000000000E+00 0. -1.
         13    1    5    5    0    0 -0.13168601127E+02  0.30947831811E+02  0.21010128065E+03  0.21277624040E+03  0.00000000000E+00 0. -1.
        -14    1    5    5    0    0  0.45384210179E+02 -0.16014028999E+02  0.65680475205E+03  0.65856560643E+03  0.00000000000E+00 0.  1.
          5    1    4    4  501    0 -0.24437830429E+02  0.84413743472E+01 -0.29528965492E+03  0.29644884392E+03  0.41800000000E+01 0.  1.
         -5    1    4    4    0  501 -0.52502669641E+02  0.52481500245E+02 -0.70749986804E+02  0.10263464922E+03  0.41800000000E+01 0.  1.
</event>
<event>
11    1  0.8039394E-009  0.1766043E+03  0.7561462E-02  0.1072423E+00
         22   -1    0    0    0    0  0.00000000000E+00  0.00000000000E+00  0.79883963549E+03  0.79883963549E+03  0.00000000000E+00 0. -1.
         22   -1    0    0    0    0 -0.00000000000E+00 -0.00000000000E+00 -0.71522199572E+02  0.71522199572E+02  0.00000000000E+00 0. -1.
        -24    2    1    2    0    0 -0.36469684811E+02  0.12115500645E+03  0.12187464651E+03  0.19392758752E+03  0.82133466030E+02 0.  0.
         25    2    1    2    0    0  0.22127694410E+02 -0.12025390981E+03  0.21047925347E+03  0.27367797674E+03  0.12508989219E+03 0.  0.
         24    2    1    2    0    0  0.14341990401E+02 -0.90109664476E+00  0.39496353594E+03  0.40275627079E+03  0.77523636898E+02 0.  0.
        -13    1    5    5    0    0  0.25303922674E+01 -0.33741931710E+02  0.96523293614E+02  0.10228229099E+03  0.00000000000E+00 0.  1.
         14    1    5    5    0    0  0.11811598134E+02  0.32840835065E+02  0.29844024233E+03  0.30047397980E+03  0.00000000000E+00 0. -1.
         11    1    3    3    0    0 -0.13507817352E+02  0.53036913887E+02  0.27556111138E+01  0.54799349968E+02  0.00000000000E+00 0. -1.
        -12    1    3    3    0    0 -0.22961867459E+02  0.68118092567E+02  0.11911903539E+03  0.13912823755E+03  0.00000000000E+00 0.  1.
          5    1    4    4  501    0  0.73600760177E+01  0.26262553473E+02  0.34393046673E+02  0.44093610572E+02  0.41800000000E+01 0.  1.
         -5    1    4    4    0  501  0.14767618392E+02 -0.14651646328E+03  0.17608620680E+03  0.22958436617E+03  0.41800000000E+01 0.  1.
</event>
<event>
11    1  0.8039394E-009  0.2055371E+03  0.7561462E-02  0.1050676E+00
         22   -1    0    0    0    0  0.00000000000E+00  0.00000000000E+00  0.17801768422E+04  0.17801768422E+04  0.00000000000E+00 0. -1.
         22   -1    0    0    0    0 -0.00000000000E+00 -0.00000000000E+00 -0.53368487283E+03  0.53368487283E+03  0.00000000000E+00 0.  1.
         24    2    1    2    0    0  0.67420804140E+02  0.15060868717E+03 -0.49878616563E+03  0.53141569944E+03  0.79915362173E+02 0.  0.
         25    2    1    2    0    0 -0.40272140234E+02 -0.10578864780E+03  0.40867756768E+03  0.44212839211E+03  0.12508827884E+03 0.  0.
        -24    2    1    2    0    0 -0.27148663906E+02 -0.44820039366E+02  0.13366005674E+04  0.13403176235E+04  0.84878556393E+02 0.  0.
        -13    1    3    3    0    0  0.73048056800E+02  0.15561422058E+03 -0.49238620649E+03  0.52153233897E+03  0.00000000000E+00 0.  1.
         14    1    3    3    0    0 -0.56272526604E+01 -0.50055334167E+01 -0.63999591432E+01  0.98833604773E+01  0.00000000000E+00 0. -1.
         11    1    5    5    0    0 -0.33210111565E+02 -0.12755605330E+02  0.11705766373E+04  0.11711171081E+04  0.00000000000E+00 0. -1.
        -12    1    5    5    0    0  0.60614476593E+01 -0.32064434036E+02  0.16602393004E+03  0.16920051544E+03  0.00000000000E+00 0.  1.
          5    1    4    4  501    0  0.13387279183E+02 -0.10871915834E+03  0.32106316100E+03  0.33926110945E+03  0.41800000000E+01 0.  1.
         -5    1    4    4    0  501 -0.53659419417E+02  0.29305105396E+01  0.87614406675E+02  0.10286728266E+03  0.41800000000E+01 0.  1.
</event>
<event>
11    1  0.8039394E-009  0.1380614E+03  0.7561462E-02  0.1109743E+00
         22   -1    0    0    0    0  0.00000000000E+00  0.00000000000E+00  0.27908810663E+04  0.27908810663E+04  0.00000000000E+00 0. -1.
         22   -1    0    0    0    0 -0.00000000000E+00 -0.00000000000E+00 -0.52260237440E+02  0.52260237440E+02  0.00000000000E+00 0.  1.
         24    2    1    2    0    0 -0.47795218838E+02  0.28801936568E+01  0.21121778605E+02  0.94194774743E+02  0.78318884045E+02 0.  0.
         25    2    1    2    0    0  0.88752649943E+02 -0.40726075753E+02  0.41644300560E+03  0.44565202928E+03  0.12508120631E+03 0.  0.
        -24    2    1    2    0    0 -0.40957431105E+02  0.37845882097E+02  0.23010560446E+04  0.23032944997E+04  0.84834013327E+02 0.  0.
        -11    1    3    3    0    0  0.36352852488E+01 -0.51746219032E+01 -0.24298548766E+02  0.25107996392E+02  0.00000000000E+00 0.  1.
         12    1    3    3    0    0 -0.51430504087E+02  0.80548155601E+01  0.45420327371E+02  0.69086778351E+02  0.00000000000E+00 0. -1.
         11    1    5    5    0    0 -0.17141480248E+01  0.56239342381E+02  0.10733634923E+04  0.10748371917E+04  0.00000000000E+00 0. -1.
        -12    1    5    5    0    0 -0.39243283080E+02 -0.18393460285E+02  0.12276925523E+04  0.12284573081E+04  0.00000000000E+00 0.  1.
          5    1    4    4  501    0  0.64280213993E+02  0.31955379276E+02  0.27991258938E+03  0.28900107659E+03  0.41800000000E+01 0.  1.
         -5    1    4    4    0  501  0.24472435950E+02 -0.72681455029E+02  0.13653041621E+03  0.15665095269E+03  0.41800000000E+01 0.  1.
</event>
<event>
11    1  0.8039394E-009  0.1689085E+03  0.7561462E-02  0.1078985E+00
         22   -1    0    0    0    0  0.00000000000E+00  0.00000000000E+00  0.11192283807E+04  0.11192283807E+04  0.00000000000E+00 0.  1.
         22   -1    0    0    0    0 -0.00000000000E+00 -0.00000000000E+00 -0.14955527004E+03  0.14955527004E+03  0.00000000000E+00 0.  1.
        -24    2    1    2    0    0  0.60066424219E+02 -0.93006680626E+02 -0.58322623471E+02  0.14933062594E+03  0.81485516968E+02 0.  0.
         25    2    1    2    0    0 -0.76456259410E+02  0.98800774957E+02  0.13787415831E+03  0.22419662102E+03  0.12509072153E+03 0.  0.
         24    2    1    2    0    0  0.16389835191E+02 -0.57940943318E+01  0.89012157582E+03  0.89525640377E+03  0.94156308993E+02 0.  0.
        -13    1    5    5    0    0  0.52566343621E+02 -0.38365599966E+01  0.67954822012E+03  0.68158911606E+03  0.00000000000E+00 0.  1.
         14    1    5    5    0    0 -0.36176508430E+02 -0.19575343352E+01  0.21057335570E+03  0.21366728771E+03  0.00000000000E+00 0. -1.
         13    1    3    3    0    0  0.65318867948E+02 -0.63398969211E+02 -0.88766836858E+01  0.91459167503E+02  0.00000000000E+00 0. -1.
        -14    1    3    3    0    0 -0.52524437292E+01 -0.29607711414E+02 -0.49445939785E+02  0.57871458437E+02  0.00000000000E+00 0.  1.
          5    1    4    4  501    0 -0.90173229675E+02  0.11167423230E+03  0.82596506961E+02  0.16565627326E+03  0.41800000000E+01 0. -1.
         -5    1    4    4    0  501  0.13716970265E+02 -0.12873457339E+02  0.55277651347E+02  0.58540347757E+02  0.41800000000E+01 0. -1.
</event>
<event>
11    1  0.8039394E-009  0.1430017E+03  0.7561462E-02  0.1104252E+00
         22   -1    0    0    0    0  0.00000000000E+00  0.00000000000E+00  0.35900686697E+03  0.35900686697E+03  0.00000000000E+00 0.  1.
         22   -1    0    0    0    0 -0.00000000000E+00 -0.00000000000E+00 -0.75152645478E+03  0.75152645478E+03  0.00000000000E+00 0.  1.
         24    2    1    2    0    0 -0.46145027680E+02 -0.23618688108E+02 -0.68013534762E+03  0.68674747223E+03  0.79691866083E+02 0.  0.
         25    2    1    2    0    0  0.10421626473E+03  0.38313414251E+02  0.70580480710E+02  0.18154704906E+03  0.12509508071E+03 0.  0.
        -24    2    1    2    0    0 -0.58071237052E+02 -0.14694726143E+02  0.21703527911E+03  0.24223880046E+03  0.89370691639E+02 0.  0.
        -11    1    3    3    0    0  0.77431866374E+00  0.67502233631E+01 -0.44533967569E+03  0.44539150399E+03  0.00000000000E+00 0.  1.
         12    1    3    3    0    0 -0.46919346343E+02 -0.30368911471E+02 -0.23479567193E+03  0.24135596824E+03  0.00000000000E+00 0. -1.
         11    1    5    5    0    0 -0.61086191090E+02 -0.75066214554E+01  0.63235834293E+02  0.88241956269E+02  0.00000000000E+00 0. -1.
        -12    1    5    5    0    0  0.30149540376E+01 -0.71881046876E+01  0.15379944481E+03  0.15399684420E+03  0.00000000000E+00 0.  1.
          5    1    4    4  501    0  0.91118110192E+02  0.35309036571E+02 -0.11305249899E+02  0.98460749255E+02  0.41800000000E+01 0. -1.
         -5    1    4    4    0  501  0.13098154540E+02  0.30043776797E+01  0.81885730608E+02  0.83086299802E+02  0.41800000000E+01 0. -1.
</event>
<event>
11    1  0.8039394E-009  0.3011816E+03  0.7561462E-02  0.9996924E-01
         22   -1    0    0    0    0  0.00000000000E+00  0.00000000000E+00  0.87724852321E+03  0.87724852321E+03  0.00000000000E+00 0. -1.
         22   -1    0    0    0    0 -0.00000000000E+00 -0.00000000000E+00 -0.10898448015E+04  0.10898448015E+04  0.00000000000E+00 0. -1.
        -24    2    1    2    0    0  0.51260584063E+02  0.26395147854E+03 -0.87729840889E+03  0.92115913269E+03  0.81139503399E+02 0.  0.
         25    2    1    2    0    0 -0.17809002513E+03 -0.28271887421E+03 -0.81210687392E+01  0.35687496429E+03  0.12509104483E+03 0.  0.
         24    2    1    2    0    0  0.12682944107E+03  0.18767395674E+02  0.67282319934E+03  0.68905922771E+03  0.75323565096E+02 0.  0.
        -11    1    5    5    0    0  0.35119378546E+02  0.26544258685E+02  0.36856099173E+03  0.37118078215E+03  0.00000000000E+00 0.  1.
         12    1    5    5    0    0  0.91710062523E+02 -0.77768630108E+01  0.30426220761E+03  0.31787844555E+03  0.00000000000E+00 0. -1.
         13    1    3    3    0    0  0.61990624563E+02  0.22874794793E+03 -0.81542318641E+03  0.84916631713E+03  0.00000000000E+00 0. -1.
        -14    1    3    3    0    0 -0.10730040499E+02  0.35203530604E+02 -0.61875222478E+02  0.71992815564E+02  0.00000000000E+00 0.  1.
          5    1    4    4  501    0 -0.15110348960E+03 -0.26878893153E+03  0.27825846784E+02  0.30963123943E+03  0.41800000000E+01 0.  1.
         -5    1    4    4    0  501 -0.26986535536E+02 -0.13929942677E+02 -0.35946915523E+02  0.47243724862E+02  0.41800000000E+01 0.  1.
</event>
<event>
11    1  0.8039394E-009  0.1268161E+03  0.7561462E-02  0.1123244E+00
         22   -1    0    0    0    0  0.00000000000E+00  0.00000000000E+00  0.51494535191E+03  0.51494535191E+03  0.00000000000E+00 0. -1.
         22   -1    0    0    0    0 -0.00000000000E+00 -0.00000000000E+00 -0.50008412263E+03  0.50008412263E+03  0.00000000000E+00 0. -1.
        -24    2    1    2    0    0  0.20267241464E+02  0.37404418397E+01 -0.47304331606E+03  0.47999819754E+03  0.78762546900E+02 0.  0.
         25    2    1    2    0    0  0.50824229505E+01 -0.86382439153E+01  0.20945789904E+03  0.24417271211E+03  0.12508897468E+03 0.  0.
         24    2    1    2    0    0 -0.25349664414E+02  0.48978020757E+01  0.27844664629E+03  0.29085856489E+03  0.79997349900E+02 0.  0.
        -13    1    5    5    0    0 -0.28580866567E+02  0.15057850902E+01  0.26930092946E+02  0.39298387098E+02  0.00000000000E+00 0.  1.
         14    1    5    5    0    0  0.32312021524E+01  0.33920169855E+01  0.25151655334E+03  0.25156017780E+03  0.00000000000E+00 0. -1.
         13    1    3    3    0    0 -0.13313601635E+02 -0.23159194969E+02 -0.31724880261E+03  0.31837148593E+03  0.00000000000E+00 0. -1.
        -14    1    3    3    0    0  0.33580843098E+02  0.26899636809E+02 -0.15579451345E+03  0.16162671161E+03  0.00000000000E+00 0.  1.
          5    1    4    4  501    0 -0.47659223088E+02  0.26997700727E+02  0.13718667070E+03  0.14777663012E+03  0.41800000000E+01 0. -1.
         -5    1    4    4    0  501  0.52741646039E+02 -0.35635944642E+02  0.72271228338E+02  0.96396081990E+02  0.41800000000E+01 0. -1.
</event>
<event>
11    1  0.8039394E-009  0.4935464E+03  0.7561462E-02  0.9408059E-01
         22   -1    0    0    0    0  0.00000000000E+00  0.00000000000E+00  0.93055729206E+03  0.93055729206E+03  0.00000000000E+00 0. -1.
         22   -1    0    0    0    0 -0.00000000000E+00 -0.00000000000E+00 -0.94869931089E+03  0.94869931089E+03  0.00000000000E+00 0. -1.
         24    2    1    2    0    0 -0.51976564436E+02  0.20044874462E+02 -0.48294805210E+02  0.10787438248E+03  0.78747278949E+02 0.  0.
         25    2    1    2    0    0  0.18749291604E+03  0.43810914135E+03 -0.72352888167E+03  0.87534831821E+03  0.12508965697E+03 0.  0.
        -24    2    1    2    0    0 -0.13551635161E+03 -0.45815401581E+03  0.75368166805E+03  0.89603390226E+03  0.81061171320E+02 0.  0.
        -11    1    3    3    0    0  0.11526916680E+02 -0.18492838411E+02 -0.15106082145E+02  0.26515063613E+02  0.00000000000E+00 0.  1.
         12    1    3    3    0    0 -0.63503481116E+02  0.38537712873E+02 -0.33188723066E+02  0.81359318865E+02  0.00000000000E+00 0. -1.
         11    1    5    5    0    0 -0.37926815903E+02 -0.12716923087E+03  0.14666511854E+03  0.19779058026E+03  0.00000000000E+00 0. -1.
        -12    1    5    5    0    0 -0.97589535706E+02 -0.33098478494E+03  0.60701654950E+03  0.69824332200E+03  0.00000000000E+00 0.  1.
          5    1    4    4  501    0  0.13955862947E+03  0.41239974766E+03 -0.61060709794E+03  0.74993910645E+03  0.41800000000E+01 0.  1.
         -5    1    4    4    0  501  0.47934286576E+02  0.25709393691E+02 -0.11292178374E+03  0.12540921177E+03  0.41800000000E+01 0.  1.
</event>
<event>
11    1  0.8039394E-009  0.2037415E+03  0.7561462E-02  0.1051909E+00
         22   -1    0    0    0    0  0.00000000000E+00  0.00000000000E+00  0.38442472814E+03  0.38442472814E+03  0.00000000000E+00 0. -1.
         22   -1    0    0    0    0 -0.00000000000E+00 -0.00000000000E+00 -0.25360410454E+03  0.25360410454E+03  0.00000000000E+00 0.  1.
        -24    2    1    2    0    0 -0.25630417587E+02 -0.15092268301E+03 -0.12001530723E+03  0.21108379992E+03  0.81964151101E+02 0.  0.
         25    2    1    2    0    0 -0.18860524585E+02  0.19954018691E+03  0.13269439487E+03  0.27097456431E+03  0.12508959386E+03 0.  0.
         24    2    1    2    0    0  0.44490942172E+02 -0.48617503906E+02  0.11814153597E+03  0.15597046845E+03  0.77628982270E+02 0.  0.
        -11    1    5    5    0    0 -0.75652784711E+01  0.92066727432E+01 -0.27279183744E+01  0.12224475449E+02  0.00000000000E+00 0.  1.
         12    1    5    5    0    0  0.52056220643E+02 -0.57824176649E+02  0.12086945434E+03  0.14374599301E+03  0.00000000000E+00 0. -1.
         13    1    3    3    0    0 -0.51512643665E+02 -0.90651482367E+02 -0.94450240542E+02  0.14068436889E+03  0.00000000000E+00 0. -1.
        -14    1    3    3    0    0  0.25882226079E+02 -0.60271200641E+02 -0.25565066688E+02  0.70399431022E+02  0.00000000000E+00 0.  1.
          5    1    4    4  501    0  0.43421638701E+02  0.64217029947E+02  0.10665879691E+02  0.78361336335E+02  0.41800000000E+01 0. -1.
         -5    1    4    4    0  501 -0.62282163286E+02  0.13532315697E+03  0.12202851518E+03  0.19261322798E+03  0.41800000000E+01 0. -1.
</event>
<event>
11    1  0.8039394E-009  0.1749547E+03  0.7561462E-02  0.1073799E+00
         22   -1    0    0    0    0  0.00000000000E+00  0.00000000000E+00  0.78798859851E+02  0.78798859851E+02  0.00000000000E+00 0. -1.
         22   -1    0    0    0    0 -0.00000000000E+00 -0.00000000000E+00 -0.10718797674E+04  0.10718797674E+04  0.00000000000E+00 0. -1.
        -24    2    1    2    0    0  0.52253296311E+02 -0.10359349454E+02 -0.59568737816E+03  0.60334214810E+03  0.79627709220E+02 0.  0.
         25    2    1    2    0    0 -0.55649100444E+02  0.12954485845E+03 -0.34596895478E+03  0.39397983925E+03  0.12508758265E+03 0.  0.
         24    2    1    2    0    0  0.33958041328E+01 -0.11918550899E+03 -0.51424574624E+02  0.15335663992E+03  0.81590778229E+02 0.  0.
        -11    1    5    5    0    0  0.37016772209E+02 -0.43960108814E+02 -0.40347498956E+02  0.70218610522E+02  0.00000000000E+00 0.  1.
         12    1    5    5    0    0 -0.33620968076E+02 -0.75225400178E+02 -0.11077075668E+02  0.83138029395E+02  0.00000000000E+00 0. -1.
         13    1    3    3    0    0  0.21213552886E+02  0.27667327134E+02 -0.40283297751E+03  0.40433884749E+03  0.00000000000E+00 0. -1.
        -14    1    3    3    0    0  0.31039743425E+02 -0.38026676588E+02 -0.19285440065E+03  0.19900330061E+03  0.00000000000E+00 0.  1.
          5    1    4    4  501    0 -0.74762098002E+02  0.97618939616E+02 -0.33191928538E+03  0.35398688263E+03  0.41800000000E+01 0. -1.
         -5    1    4    4    0  501  0.19112997559E+02  0.31925918829E+02 -0.14049669401E+02  0.39992956618E+02  0.41800000000E+01 0. -1.
</event>
<event>
11    1  0.8039394E-009  0.1393183E+03  0.7561462E-02  0.1108322E+00
         22   -1    0    0    0    0  0.00000000000E+00  0.00000000000E+00  0.19580907955E+04  0.19580907955E+04  0.00000000000E+00 0. -1.
         22   -1    0    0    0    0 -0.00000000000E+00 -0.00000000000E+00 -0.53468037564E+03  0.53468037564E+03  0.00000000000E+00 0. -1.
         24    2    1    2    0    0 -0.39165235698E+02  0.33422924713E+02 -0.41118423581E+03  0.42237888139E+03  0.81733934668E+02 0.  0.
         25    2    1    2    0    0  0.22502266558E+02  0.26170459526E+02 -0.80230223180E+02  0.15256356220E+03  0.12508999500E+03 0.  0.
        -24    2    1    2    0    0  0.16662969140E+02 -0.59593384238E+02  0.19148248789E+04  0.19178287275E+04  0.87656634188E+02 0.  0.
        -11    1    3    3    0    0 -0.34034633330E+02 -0.15392770156E+02 -0.89664742101E+02  0.97134235031E+02  0.00000000000E+00 0.  1.
         12    1    3    3    0    0 -0.51306023684E+01  0.48815694868E+02 -0.32151949371E+03  0.32524464636E+03  0.00000000000E+00 0. -1.
         13    1    5    5    0    0  0.61793202968E+01 -0.65502111139E+02  0.18766284391E+04  0.18777814061E+04  0.00000000000E+00 0. -1.
        -14    1    5    5    0    0  0.10483648843E+02  0.59087269004E+01  0.38196439741E+02  0.40047321453E+02  0.00000000000E+00 0.  1.
          5    1    4    4  501    0  0.56662538125E+02 -0.29297781637E+02 -0.32611449687E+02  0.71763377055E+02  0.41800000000E+01 0.  1.
         -5    1    4    4    0  501 -0.34160271566E+02  0.55468241163E+02 -0.47618773493E+02  0.80800185150E+02  0.41800000000E+01 0.  1.
</event>
<event>
11    1  0.8039394E-009  0.1332810E+03  0.7561462E-02  0.1115302E+00
         22   -1    0    0    0    0  0.00000000000E+00  0.00000000000E+00  0.11294475245E+04  0.11294475245E+04  0.00000000000E+00 0. -1.
         22   -1    0    0    0    0 -0.00000000000E+00 -0.00000000000E+00 -0.10777321107E+04  0.10777321107E+04  0.00000000000E+00 0.  1.
        -24    2    1    2    0    0 -0.23876877839E+02  0.40111516658E+02 -0.10400540240E+04  0.10443109310E+04  0.81816310704E+02 0.  0.
         25    2    1    2    0    0 -0.70069022007E-01 -0.98125950477E+01  0.84275175384E+02  0.15115021942E+03  0.12509113363E+03 0.  0.
         24    2    1    2    0    0  0.23946946861E+02 -0.30298921610E+02  0.10074942625E+04  0.10117184847E+04  0.83893518286E+02 0.  0.
        -11    1    5    5    0    0 -0.19621840042E+02 -0.28480054712E+01  0.68462862840E+02  0.71276162425E+02  0.00000000000E+00 0.  1.
         12    1    5    5    0    0  0.43568786903E+02 -0.27450916139E+02  0.93903139968E+03  0.94044232230E+03  0.00000000000E+00 0. -1.
         13    1    3    3    0    0  0.89146767198E+01 -0.75656688874E+00 -0.12234795866E+02  0.15156981373E+02  0.00000000000E+00 0. -1.
        -14    1    3    3    0    0 -0.32791554558E+02  0.40868083547E+02 -0.10278192282E+04  0.10291539497E+04  0.00000000000E+00 0.  1.
          5    1    4    4  501    0 -0.54929284115E+02 -0.16894395014E+02  0.10055867654E+02  0.58491364410E+02  0.41800000000E+01 0.  1.
         -5    1    4    4    0  501  0.54859215093E+02  0.70817999660E+01  0.74219307730E+02  0.92658855007E+02  0.41800000000E+01 0.  1.
</event>
<event>
11    1  0.8039394E-009  0.1433159E+03  0.7561462E-02  0.1103911E+00
         22   -1    0    0    0    0  0.00000000000E+00  0.00000000000E+00  0.66084173872E+03  0.66084173872E+03  0.00000000000E+00 0. -1.
         22   -1    0    0    0    0 -0.00000000000E+00 -0.00000000000E+00 -0.88273302469E+03  0.88273302469E+03  0.00000000000E+00 0.  1.
         24    2    1    2    0    0  0.43804532721E+02  0.58738158442E+02 -0.63300596209E+03  0.64231775697E+03  0.80663154757E+02 0.  0.
         25    2    1    2    0    0 -0.67480663820E+02 -0.14846244825E+02 -0.21976503458E+03  0.26213681242E+03  0.12507992256E+03 0.  0.
        -24    2    1    2    0    0  0.23676131099E+02 -0.43891913617E+02  0.63087971069E+03  0.63912019402E+03  0.89321631071E+02 0.  0.
        -13    1    3    3    0    0  0.43555797303E+02  0.62037088859E+02 -0.30442294461E+03  0.31371808535E+03  0.00000000000E+00 0.  1.
         14    1    3    3    0    0  0.24873541767E+00 -0.32989304175E+01 -0.32858301748E+03  0.32859967161E+03  0.00000000000E+00 0. -1.
         11    1    5    5    0    0 -0.26139549580E+02 -0.45448175645E+02  0.31549428911E+03  0.31982097990E+03  0.00000000000E+00 0. -1.
        -12    1    5    5    0    0  0.49815680679E+02  0.15562620281E+01  0.31538542158E+03  0.31929921412E+03  0.00000000000E+00 0.  1.
          5    1    4    4  501    0  0.18749523384E+02  0.62655227475E+01 -0.14382195891E+03  0.14523439561E+03  0.41800000000E+01 0.  1.
         -5    1    4    4    0  501 -0.86230187204E+02 -0.21111767573E+02 -0.75943075665E+02  0.11690241681E+03  0.41800000000E+01 0.  1.
</event>
<event>
11    1  0.8039394E-009  0.2288665E+03  0.7561462E-02  0.1035801E+00
         22   -1    0    0    0    0  0.00000000000E+00  0.00000000000E+00  0.10933612961E+04  0.10933612961E+04  0.00000000000E+00 0.  1.
         22   -1    0    0    0    0 -0.00000000000E+00 -0.00000000000E+00 -0.63933295717E+03  0.63933295717E+03  0.00000000000E+00 0. -1.
        -24    2    1    2    0    0 -0.10649683359E+02  0.19434504795E+03 -0.35290028013E+03  0.41077486943E+03  0.79460507288E+02 0.  0.
         25    2    1    2    0    0  0.10538593287E+03 -0.17218113046E+03 -0.19792963925E+03  0.30915068598E+03  0.12508184527E+03 0.  0.
         24    2    1    2    0    0 -0.94736249507E+02 -0.22163917491E+02  0.10048582583E+04  0.10127686979E+04  0.80586102204E+02 0.  0.
        -11    1    5    5    0    0 -0.96556050738E+02  0.19853093245E+01  0.89915446118E+03  0.90432613445E+03  0.00000000000E+00 0.  1.
         12    1    5    5    0    0  0.18198012312E+01 -0.24149226816E+02  0.10570379717E+03  0.10844256345E+03  0.00000000000E+00 0. -1.
         13    1    3    3    0    0 -0.99323412937E+01  0.71381016564E+02 -0.21120809342E+03  0.22316531911E+03  0.00000000000E+00 0. -1.
        -14    1    3    3    0    0 -0.71734206540E+00  0.12296403138E+03 -0.14169218672E+03  0.18760955032E+03  0.00000000000E+00 0.  1.
          5    1    4    4  501    0 -0.27237368268E+02 -0.45063629377E+02 -0.33343529094E+02  0.62464936206E+02  0.41800000000E+01 0.  1.
         -5    1    4    4    0  501  0.13262330113E+03 -0.12711750108E+03 -0.16458611016E+03  0.24668574977E+03  0.41800000000E+01 0.  1.
</event>
<event>
11    1  0.8039394E-009  0.2128312E+03  0.7561462E-02  0.1045803E+00
         22   -1    0    0    0    0  0.00000000000E+00  0.00000000000E+00  0.17627898099E+03  0.17627898099E+03  0.00000000000E+00 0.  1.
         22   -1    0    0    0    0 -0.00000000000E+00 -0.00000000000E+00 -0.17019524776E+04  0.17019524776E+04  0.00000000000E+00 0.  1.
         24    2    1    2    0    0 -0.24048731580E+02 -0.64826902388E+02 -0.14204160711E+04  0.14244105426E+04  0.81133902853E+02 0.  0.
         25    2    1    2    0    0  0.18148080021E+03  0.97843072121E+02 -0.12665774373E+03  0.27237491268E+03  0.12504943583E+03 0.  0.
        -24    2    1    2    0    0 -0.15743206863E+03 -0.33016169733E+02  0.21400318201E+02  0.18144600328E+03  0.81177304638E+02 0.  0.
        -13    1    3    3    0    0  0.22167897425E+02 -0.54565130296E+02 -0.84519634138E+03  0.84724590563E+03  0.00000000000E+00 0.  1.
         14    1    3    3    0    0 -0.46216629005E+02 -0.10261772092E+02 -0.57521972969E+03  0.57716463699E+03  0.00000000000E+00 0. -1.
         11    1    5    5    0    0 -0.26879567769E+02 -0.35509349581E+00 -0.27314863470E+02  0.38324131057E+02  0.00000000000E+00 0. -1.
        -12    1    5    5    0    0 -0.13055250086E+03 -0.32661076237E+02  0.48715181671E+02  0.14312187222E+03  0.00000000000E+00 0.  1.
          5    1    4    4  501    0  0.12649453066E+03 -0.17533499291E+01 -0.56196706647E+02  0.13849000960E+03  0.41800000000E+01 0. -1.
         -5    1    4    4    0  501  0.54986269557E+02  0.99596422050E+02 -0.70461037083E+02  0.13388490308E+03  0.41800000000E+01 0. -1.
</event>
<event>
11    1  0.8039394E-009  0.1933619E+03  0.7561462E-02  0.1059320E+00
         22   -1    0    0    0    0  0.00000000000E+00  0.00000000000E+00  0.67502025062E+03  0.67502025062E+03  0.00000000000E+00 0. -1.
         22   -1    0    0    0    0 -0.00000000000E+00 -0.00000000000E+00 -0.74687251366E+03  0.74687251366E+03  0.00000000000E+00 0.  1.
         24    2    1    2    0    0 -0.12694109517E+03 -0.37894897136E+02 -0.26959476620E+03  0.31056848171E+03  0.78875718695E+02 0.  0.
         25    2    1    2    0    0  0.11307341729E+03  0.14733352002E+03 -0.42144247197E+03  0.47722254270E+03  0.12503933083E+03 0.  0.
        -24    2    1    2    0    0  0.13867677879E+02 -0.10943862289E+03  0.61918497513E+03  0.63410173987E+03  0.80782785388E+02 0.  0.
        -13    1    3    3    0    0 -0.10289609600E+03 -0.49684047186E+02 -0.15311855276E+03  0.19105340174E+03  0.00000000000E+00 0.  1.
         14    1    3    3    0    0 -0.24044999169E+02  0.11789150050E+02 -0.11647621344E+03  0.11951507997E+03  0.00000000000E+00 0. -1.
         11    1    5    5    0    0 -0.26188427304E+02 -0.80310821133E+02  0.32619582588E+03  0.33695604838E+03  0.00000000000E+00 0. -1.
        -12    1    5    5    0    0  0.40056105183E+02 -0.29127801754E+02  0.29298914925E+03  0.29714569149E+03  0.00000000000E+00 0.  1.
          5    1    4    4  501    0  0.55391316460E+02  0.31524663301E+02 -0.42342069998E+02  0.76631100913E+02  0.41800000000E+01 0.  1.
         -5    1    4    4    0  501  0.57682100829E+02  0.11580885672E+03 -0.37910040198E+03  0.40059144178E+03  0.41800000000E+01 0.  1.
</event>
<event>
11    1  0.8039394E-009  0.1268397E+03  0.7561462E-02  0.1123214E+00
         22   -1    0    0    0    0  0.00000000000E+00  0.00000000000E+00  0.14806111829E+04  0.14806111829E+04  0.00000000000E+00 0. -1.
         22   -1    0    0    0    0 -0.00000000000E+00 -0.00000000000E+00 -0.11569959433E+03  0.11569959433E+03  0.00000000000E+00 0. -1.
         24    2    1    2    0    0 -0.59302864139E+01  0.23830931813E+01 -0.86055799925E+02  0.11895205228E+03  0.81872722024E+02 0.  0.
         25    2    1    2    0    0  0.16866560593E+02  0.15461507250E+02  0.33576808405E+03  0.35903785276E+03  0.12507771332E+03 0.  0.
        -24    2    1    2    0    0 -0.10936274180E+02 -0.17844600431E+02  0.11151993044E+04  0.11183208722E+04  0.80833487408E+02 0.  0.
        -11    1    3    3    0    0 -0.19130355413E+02 -0.35682826762E+02 -0.53848780794E+02  0.67371550501E+02  0.00000000000E+00 0.  1.
         12    1    3    3    0    0  0.13200069000E+02  0.38065919944E+02 -0.32207019131E+02  0.51580501782E+02  0.00000000000E+00 0. -1.
         13    1    5    5    0    0  0.28930871885E+02 -0.17884862109E+02  0.78291989141E+03  0.78365835669E+03  0.00000000000E+00 0. -1.
        -14    1    5    5    0    0 -0.39867146065E+02  0.40261678471E-01  0.33227941302E+03  0.33466251549E+03  0.00000000000E+00 0.  1.
          5    1    4    4  501    0  0.63510768073E+02  0.43749970890E+01  0.27064026493E+03  0.27805823789E+03  0.41800000000E+01 0.  1.
         -5    1    4    4    0  501 -0.46644207480E+02  0.11086510161E+02  0.65127819128E+02  0.80979614863E+02  0.41800000000E+01 0.  1.
</event>
<event>
11    1  0.8039394E-009  0.4060844E+03  0.7561462E-02  0.9631974E-01
         22   -1    0    0    0    0  0.00000000000E+00  0.00000000000E+00  0.16072514392E+03  0.16072514392E+03  0.00000000000E+00 0. -1.
         22   -1    0    0    0    0 -0.00000000000E+00 -0.00000000000E+00 -0.17031908635E+04  0.17031908635E+04  0.00000000000E+00 0. -1.
        -24    2    1    2    0    0 -0.37904608452E+03 -0.13058604352E+02 -0.11540654678E+04  0.12174562950E+04  0.80537350931E+02 0.  0.
         25    2    1    2    0    0  0.41081388687E+03  0.18700037398E+02 -0.30239908983E+03  0.52555667913E+03  0.12508745902E+03 0.  0.
         24    2    1    2    0    0 -0.31767802343E+02 -0.56414330456E+01 -0.86001161949E+02  0.12090303330E+03  0.78615040368E+02 0.  0.
        -11    1    5    5    0    0  0.10343678167E+02 -0.28875984223E+02 -0.57030746323E+02  0.64755850461E+02  0.00000000000E+00 0.  1.
         12    1    5    5    0    0 -0.42111480510E+02  0.23234551177E+02 -0.28970415627E+02  0.56147182839E+02  0.00000000000E+00 0. -1.
         13    1    3    3    0    0 -0.25042564171E+03 -0.23553737738E+01 -0.63537507089E+03  0.68294950803E+03  0.00000000000E+00 0. -1.
        -14    1    3    3    0    0 -0.12862044281E+03 -0.10703230578E+02 -0.51869039693E+03  0.53450678697E+03  0.00000000000E+00 0.  1.
          5    1    4    4  501    0  0.34613325333E+03  0.44499667610E+02 -0.20184106810E+03  0.40316961524E+03  0.41800000000E+01 0. -1.
         -5    1    4    4    0  501  0.64680633535E+02 -0.25799630213E+02 -0.10055802173E+03  0.12238706389E+03  0.41800000000E+01 0. -1.
</event>
<event>
11    1  0.8039394E-009  0.1644205E+03  0.7561462E-02  0.1082992E+00
         22   -1    0    0    0    0  0.00000000000E+00  0.00000000000E+00  0.11040921430E+04  0.11040921430E+04  0.00000000000E+00 0.  1.
         22   -1    0    0    0    0 -0.00000000000E+00 -0.00000000000E+00 -0.41673095649E+03  0.41673095649E+03  0.00000000000E+00 0. -1.
        -24    2    1    2    0    0  0.59767008805E+02  0.90649356224E+02 -0.31957641894E+03  0.34609431995E+03  0.76568855512E+02 0.  0.
         25    2    1    2    0    0 -0.68467708770E+02 -0.69280483271E+02 -0.30740720085E+01  0.15856662484E+03  0.12508521931E+03 0.  0.
         24    2    1    2    0    0  0.87006999647E+01 -0.21368872953E+02  0.10100116774E+04  0.10161621547E+04  0.10922273176E+03 0.  0.
        -11    1    5    5    0    0  0.88729602059E+01 -0.63534638823E+02  0.75160932392E+03  0.75434206800E+03  0.00000000000E+00 0.  1.
         12    1    5    5    0    0 -0.17226024124E+00  0.42165765870E+02  0.25840235352E+03  0.26182008668E+03  0.00000000000E+00 0. -1.
         11    1    3    3    0    0  0.24106596530E+02  0.47775847955E+02 -0.25596886420E+03  0.26150280894E+03  0.00000000000E+00 0. -1.
        -12    1    3    3    0    0  0.35660412275E+02  0.42873508269E+02 -0.63607554739E+02  0.84591511009E+02  0.00000000000E+00 0.  1.
          5    1    4    4  501    0  0.16054397937E+02  0.78849451747E+01 -0.35128072065E+02  0.39640508328E+02  0.41800000000E+01 0. -1.
         -5    1    4    4    0  501 -0.84522106707E+02 -0.77165428446E+02  0.32054000056E+02  0.11892611651E+03  0.41800000000E+01 0. -1.
</event>
<event>
11    1  0.8039394E-009  0.2019133E+03  0.7561462E-02  0.1053179E+00
         22   -1    0    0    0    0  0.00000000000E+00  0.00000000000E+00  0.77915035719E+03  0.77915035719E+03  0.00000000000E+00 0.  1.
         22   -1    0    0    0    0 -0.00000000000E+00 -0.00000000000E+00 -0.34799424267E+03  0.34799424267E+03  0.00000000000E+00 0. -1.
         24    2    1    2    0    0  0.15085700637E+03 -0.39193567515E+02 -0.27185805066E+03  0.32350145789E+03  0.80326965859E+02 0.  0.
         25    2    1    2    0    0 -0.19961316808E+03 -0.12409813273E+02  0.27521705472E+03  0.36247973601E+03  0.12509081292E+03 0.  0.
        -24    2    1    2    0    0  0.48756161713E+02  0.51603380788E+02  0.42779711046E+03  0.44116340595E+03  0.81084590497E+02 0.  0.
        -11    1    3    3    0    0  0.55699980940E+02  0.80778139150E+01 -0.41846594299E+02  0.70134701886E+02  0.00000000000E+00 0.  1.
         12    1    3    3    0    0  0.95157025427E+02 -0.47271381430E+02 -0.23001145636E+03  0.25336675600E+03  0.00000000000E+00 0. -1.
         13    1    5    5    0    0  0.30193718783E+02  0.68908126422E+02  0.23617478722E+03  0.24786795004E+03  0.00000000000E+00 0. -1.
        -14    1    5    5    0    0  0.18562442930E+02 -0.17304745634E+02  0.19162232324E+03  0.19329545591E+03  0.00000000000E+00 0.  1.
          5    1    4    4  501    0 -0.67603379936E+02 -0.13312088923E+02  0.19753804778E+03  0.20925147888E+03  0.41800000000E+01 0.  1.
         -5    1    4    4    0  501 -0.13200978814E+03  0.90227564988E+00  0.77679006938E+02  0.15322825714E+03  0.41800000000E+01 0.  1.
</event>
<event>
11    1  0.8039394E-009  0.1639202E+03  0.7561462E-02  0.1083447E+00
         22   -1    0    0    0    0  0.00000000000E+00  0.00000000000E+00  0.58683859856E+03  0.58683859856E+03  0.00000000000E+00 0.  1.
         22   -1    0    0    0    0 -0.00000000000E+00 -0.00000000000E+00 -0.42638733496E+03  0.42638733496E+03  0.00000000000E+00 0. -1.
        -24    2    1    2    0    0  0.65517175111E+02  0.26929376117E+02 -0.33811755270E+03  0.35467995035E+03  0.80353569946E+02 0.  0.
         25    2    1    2    0    0 -0.87301157101E+02 -0.12582811273E+03  0.66280980622E+02  0.20855433244E+03  0.12509010833E+03 0.  0.
         24    2    1    2    0    0  0.21783981990E+02  0.98898736614E+02  0.43228783568E+03  0.44999165073E+03  0.73240773303E+02 0.  0.
        -13    1    5    5    0    0  0.11374708041E+01  0.10338613656E+03  0.37237973570E+03  0.38646688685E+03  0.00000000000E+00 0.  1.
         14    1    5    5    0    0  0.20646511186E+02 -0.44873999485E+01  0.59908099980E+02  0.63524763877E+02  0.00000000000E+00 0. -1.
         11    1    3    3    0    0  0.70698960567E+02 -0.42527831527E+01 -0.27650406322E+03  0.28543112333E+03  0.00000000000E+00 0. -1.
        -12    1    3    3    0    0 -0.51817854564E+01  0.31182159270E+02 -0.61613489482E+02  0.69248827018E+02  0.00000000000E+00 0.  1.
          5    1    4    4  501    0 -0.96697096970E+02 -0.13880605605E+03  0.79882268146E+02  0.18712589057E+03  0.41800000000E+01 0. -1.
         -5    1    4    4    0  501  0.93959398695E+01  0.12977943315E+02 -0.13601287524E+02  0.21428441871E+02  0.41800000000E+01 0. -1.
</event>
<event>
11    1  0.8039394E-009  0.1493422E+03  0.7561462E-02  0.1097553E+00
         22   -1    0    0    0    0  0.00000000000E+00  0.00000000000E+00  0.15853278292E+04  0.15853278292E+04  0.00000000000E+00 0.  1.
         22   -1    0    0    0    0 -0.00000000000E+00 -0.00000000000E+00 -0.59019081152E+03  0.59019081152E+03  0.00000000000E+00 0. -1.
        -24    2    1    2    0    0 -0.99524219005E+01 -0.24786435402E+02 -0.50051746467E+03  0.50761977684E+03  0.80291265526E+02 0.  0.
         25    2    1    2    0    0  0.90244535857E+02  0.37153013184E+02 -0.89863534420E+01  0.15890953815E+03  0.12508822536E+03 0.  0.
         24    2    1    2    0    0 -0.80292113956E+02 -0.12366577782E+02  0.15046408358E+04  0.15089893258E+04  0.80653485044E+02 0.  0.
        -13    1    5    5    0    0 -0.60762537839E+02 -0.45434734509E+02  0.10402872109E+04  0.10430502779E+04  0.00000000000E+00 0.  1.
         14    1    5    5    0    0 -0.19529576117E+02  0.33068156726E+02  0.46435362495E+03  0.46593904787E+03  0.00000000000E+00 0. -1.
         11    1    3    3    0    0 -0.32937714869E+02 -0.43769775871E+02 -0.31784244676E+03  0.32252830465E+03  0.00000000000E+00 0. -1.
        -12    1    3    3    0    0  0.22985292969E+02  0.18983340469E+02 -0.18267501792E+03  0.18509147219E+03  0.00000000000E+00 0.  1.
          5    1    4    4  501    0  0.10399932065E+02 -0.34642246640E+02 -0.32617800314E+02  0.48883914906E+02  0.41800000000E+01 0.  1.
         -5    1    4    4    0  501  0.79844603792E+02  0.71795259824E+02  0.23631446872E+02  0.11002562324E+03  0.41800000000E+01 0.  1.
</event>
<event>
11    1  0.8039394E-009  0.2111585E+03  0.7561462E-02  0.1046902E+00
         22   -1    0    0    0    0  0.00000000000E+00  0.00000000000E+00  0.56236036876E+03  0.56236036876E+03  0.00000000000E+00 0. -1.
         22   -1    0    0    0    0 -0.00000000000E+00 -0.00000000000E+00 -0.29503113378E+03  0.29503113378E+03  0.00000000000E+00 0.  1.
        -24    2    1    2    0    0 -0.40952033092E+02 -0.45579109639E+01 -0.10838979704E+03  0.14136959502E+03  0.80865139134E+02 0.  0.
         25    2    1    2    0    0  0.17600782166E+03 -0.93202019781E+02 -0.60011594992E+02  0.24272231749E+03  0.12508941640E+03 0.  0.
         24    2    1    2    0    0 -0.13505578857E+03  0.97759930745E+02  0.43573062701E+03  0.47329959003E+03  0.79713565497E+02 0.  0.
        -13    1    5    5    0    0  0.13322163360E+01 -0.10170494519E+02  0.34521315523E+02  0.36012983556E+02  0.00000000000E+00 0.  1.
         14    1    5    5    0    0 -0.13638800491E+03  0.10793042526E+03  0.40120931149E+03  0.43728660648E+03  0.00000000000E+00 0. -1.
         13    1    3    3    0    0 -0.51143200755E+01 -0.38871744788E+02 -0.33689422557E+02  0.51692804189E+02  0.00000000000E+00 0. -1.
        -14    1    3    3    0    0 -0.35837713017E+02  0.34313833824E+02 -0.74700374480E+02  0.89676790830E+02  0.00000000000E+00 0.  1.
          5    1    4    4  501    0  0.61622064274E+02 -0.28519518339E+02 -0.85023494483E+02  0.10889035194E+03  0.41800000000E+01 0. -1.
         -5    1    4    4    0  501  0.11438575739E+03 -0.64682501442E+02  0.25011899491E+02  0.13383196555E+03  0.41800000000E+01 0. -1.
</event>
<event>
11    1  0.8039394E-009  0.1910591E+03  0.7561462E-02  0.1061033E+00
         22   -1    0    0    0    0  0.00000000000E+00  0.00000000000E+00  0.85962549550E+03  0.85962549550E+03  0.00000000000E+00 0.  1.
         22   -1    0    0    0    0 -0.00000000000E+00 -0.00000000000E+00 -0.96333364431E+02  0.96333364431E+02  0.00000000000E+00 0. -1.
         24    2    1    2    0    0 -0.17915345894E+03 -0.11892980903E+03  0.24624240831E+03  0.33719963655E+03  0.82631773018E+02 0.  0.
         25    2    1    2    0    0  0.51233649141E+02  0.91931737342E+02  0.15464324394E+03  0.22502859220E+03  0.12508798215E+03 0.  0.
        -24    2    1    2    0    0  0.12791980980E+03  0.26998071684E+02  0.36240647882E+03  0.39373063119E+03  0.81197170070E+02 0.  0.
        -11    1    3    3    0    0 -0.77945511145E+02 -0.30885570994E+02  0.15088967571E+03  0.17261840991E+03  0.00000000000E+00 0.  1.
         12    1    3    3    0    0 -0.10120794779E+03 -0.88044238032E+02  0.95352732595E+02  0.16458122663E+03  0.00000000000E+00 0. -1.
         13    1    5    5    0    0 -0.25765282734E+00  0.25218612085E+02  0.48677876061E+02  0.54823173917E+02  0.00000000000E+00 0. -1.
        -14    1    5    5    0    0  0.12817746262E+03  0.17794595994E+01  0.31372860276E+03  0.33890745727E+03  0.00000000000E+00 0.  1.
          5    1    4    4  501    0 -0.36974721331E+02  0.25709402002E+02  0.79611868494E+02  0.91562139413E+02  0.41800000000E+01 0.  1.
         -5    1    4    4    0  501  0.88208370472E+02  0.66222335339E+02  0.75031375445E+02  0.13346645279E+03  0.41800000000E+01 0.  1.
</event>
<event>
11    1  0.8039394E-009  0.2044735E+03  0.7561462E-02  0.1051405E+00
         22   -1    0    0    0    0  0.00000000000E+00  0.00000000000E+00  0.66318547768E+03  0.66318547768E+03  0.00000000000E+00 0. -1.
         22   -1    0    0    0    0 -0.00000000000E+00 -0.00000000000E+00 -0.19993680655E+04  0.19993680655E+04  0.00000000000E+00 0.  1.
         24    2    1    2    0    0  0.79905689572E+02 -0.14096252379E+03 -0.19490966844E+04  0.19575368478E+04  0.81958970698E+02 0.  0.
         25    2    1    2    0    0 -0.56343126308E+02  0.13654386488E+03  0.17823129191E+03  0.26312176628E+03  0.12509154869E+03 0.  0.
        -24    2    1    2    0    0 -0.23562563263E+02  0.44186589145E+01  0.43468280469E+03  0.44189492912E+03  0.75810743023E+02 0.  0.
        -11    1    3    3    0    0  0.63137674641E+02 -0.11560970142E+03 -0.18259105152E+04  0.18306559421E+04  0.00000000000E+00 0.  1.
         12    1    3    3    0    0  0.16768014930E+02 -0.25352822375E+02 -0.12318616924E+03  0.12688090566E+03  0.00000000000E+00 0. -1.
         13    1    5    5    0    0 -0.47075314630E+01 -0.10991817500E+02  0.39603248759E+03  0.39621296311E+03  0.00000000000E+00 0. -1.
        -14    1    5    5    0    0 -0.18855031801E+02  0.15410476414E+02  0.38650317099E+02  0.45681966019E+02  0.00000000000E+00 0.  1.
          5    1    4    4  501    0 -0.13402739045E+02 -0.17171754929E+02  0.61404253280E+02  0.65287497288E+02  0.41800000000E+01 0.  1.
         -5    1    4    4    0  501 -0.42940387263E+02  0.15371561981E+03  0.11682703863E+03  0.19783426899E+03  0.41800000000E+01 0.  1.
</event>
<event>
11    1  0.8039394E-009  0.1724379E+03  0.7561462E-02  0.1075929E+00
         22   -1    0    0    0    0  0.00000000000E+00  0.00000000000E+00  0.31222098202E+03  0.31222098202E+03  0.00000000000E+00 0. -1.
         22   -1    0    0    0    0 -0.00000000000E+00 -0.00000000000E+00 -0.64491781345E+03  0.64491781345E+03  0.00000000000E+00 0.  1.
         24    2    1    2    0    0 -0.22145749448E+02 -0.88595279830E+02 -0.52128357090E+03  0.53529291727E+03  0.80388980340E+02 0.  0.
         25    2    1    2    0    0 -0.69991449277E+01  0.18568234421E+03  0.45533754362E+02  0.22857772857E+03  0.12509010445E+03 0.  0.
        -24    2    1    2    0    0  0.29144894376E+02 -0.97087064378E+02  0.14305298511E+03  0.19326814962E+03  0.81320957759E+02 0.  0.
        -13    1    3    3    0    0 -0.16041896946E+02 -0.95625804502E+02 -0.51502858110E+03  0.52407640311E+03  0.00000000000E+00 0.  1.
         14    1    3    3    0    0 -0.61038525015E+01  0.70305246722E+01 -0.62549898020E+01  0.11216514162E+02  0.00000000000E+00 0. -1.
         11    1    5    5    0    0 -0.25328903587E+02 -0.29361775238E+02  0.68705618891E+02  0.78893150965E+02  0.00000000000E+00 0. -1.
        -12    1    5    5    0    0  0.54473797962E+02 -0.67725289141E+02  0.74347366221E+02  0.11437499866E+03  0.00000000000E+00 0.  1.
          5    1    4    4  501    0 -0.55811789963E+02  0.11614434396E+03  0.60151864128E+02  0.14226799953E+03  0.41800000000E+01 0. -1.
         -5    1    4    4    0  501  0.48812645035E+02  0.69538000253E+02 -0.14618109766E+02  0.86309729044E+02  0.41800000000E+01 0. -1.
</event>
<event>
11    1  0.8039394E-009  0.2563127E+03  0.7561462E-02  0.1020589E+00
         22   -1    0    0    0    0  0.00000000000E+00  0.00000000000E+00  0.77020843850E+03  0.77020843850E+03  0.00000000000E+00 0. -1.
         22   -1    0    0    0    0 -0.00000000000E+00 -0.00000000000E+00 -0.15663597107E+04  0.15663597107E+04  0.00000000000E+00 0. -1.
         24    2    1    2    0    0  0.20222755901E+03  0.98998659421E+02 -0.13394880461E+04  0.13606919059E+04  0.80978496719E+02 0.  0.
         25    2    1    2    0    0 -0.21689735797E+03 -0.40107824342E+02 -0.13698275387E+03  0.28821065817E+03  0.12509199477E+03 0.  0.
        -24    2    1    2    0    0  0.14669798964E+02 -0.58890835078E+02  0.68031952774E+03  0.68766558515E+03  0.79786989624E+02 0.  0.
        -13    1    3    3    0    0  0.60560338871E+02  0.73499370843E+02 -0.55269582143E+03  0.56084078239E+03  0.00000000000E+00 0.  1.
         14    1    3    3    0    0  0.14166722014E+03  0.25499288577E+02 -0.78679222466E+03  0.79985112350E+03  0.00000000000E+00 0. -1.
         11    1    5    5    0    0  0.22266765990E+02 -0.10621415514E+02  0.50672095036E+03  0.50732114569E+03  0.00000000000E+00 0. -1.
        -12    1    5    5    0    0 -0.75969670261E+01 -0.48269419565E+02  0.17359857739E+03  0.18034443946E+03  0.00000000000E+00 0.  1.
          5    1    4    4  501    0 -0.18585532466E+03 -0.67236557277E+02 -0.70521292202E+02  0.20988968863E+03  0.41800000000E+01 0. -1.
         -5    1    4    4    0  501 -0.31042033317E+02  0.27128732935E+02 -0.66461461671E+02  0.78320969545E+02  0.41800000000E+01 0. -1.
</event>
<event>
11    1  0.8039394E-009  0.1604152E+03  0.7561462E-02  0.1086687E+00
         22   -1    0    0    0    0  0.00000000000E+00  0.00000000000E+00  0.62284267022E+03  0.62284267022E+03  0.00000000000E+00 0.  1.
         22   -1    0    0    0    0 -0.00000000000E+00 -0.00000000000E+00 -0.26909706611E+03  0.26909706611E+03  0.00000000000E+00 0.  1.
        -24    2    1    2    0    0  0.43212251706E+02 -0.29318994635E+02 -0.17704287096E+03  0.20028204828E+03  0.77729135867E+02 0.  0.
         25    2    1    2    0    0 -0.62741473817E+01  0.12116441384E+03  0.35281502593E+02  0.17779844831E+03  0.12508926289E+03 0.  0.
         24    2    1    2    0    0 -0.36938104324E+02 -0.91845419206E+02  0.49550697248E+03  0.51385923973E+03  0.93403179289E+02 0.  0.
        -11    1    5    5    0    0 -0.47973350105E+02 -0.88788508176E+02  0.27297705314E+03  0.29103490005E+03  0.00000000000E+00 0.  1.
         12    1    5    5    0    0  0.11035245781E+02 -0.30569110299E+01  0.22252991934E+03  0.22282433969E+03  0.00000000000E+00 0. -1.
         13    1    3    3    0    0  0.54766154612E+02 -0.43143656545E+01 -0.65989421392E+02  0.85863549761E+02  0.00000000000E+00 0. -1.
        -14    1    3    3    0    0 -0.11553902906E+02 -0.25004628980E+02 -0.11105344957E+03  0.11441849852E+03  0.00000000000E+00 0.  1.
          5    1    4    4  501    0  0.11878778681E+02 -0.13417296806E+02 -0.23428897787E+02  0.29791188093E+02  0.41800000000E+01 0.  1.
         -5    1    4    4    0  501 -0.18152926063E+02  0.13458171065E+03  0.58710400380E+02  0.14800726022E+03  0.41800000000E+01 0.  1.
</event>
<event>
11    1  0.8039394E-009  0.1399017E+03  0.7561462E-02  0.1107668E+00
         22   -1    0    0    0    0  0.00000000000E+00  0.00000000000E+00  0.24017484435E+03  0.24017484435E+03  0.00000000000E+00 0. -1.
         22   -1    0    0    0    0 -0.00000000000E+00 -0.00000000000E+00 -0.39059298102E+03  0.39059298102E+03  0.00000000000E+00 0.  1.
         24    2    1    2    0    0  0.20000550544E+02  0.59655059351E+02 -0.32158017587E+03  0.33700823998E+03  0.78752753461E+02 0.  0.
         25    2    1    2    0    0 -0.14301158610E+02 -0.57642023192E+02  0.49037236290E+02  0.14689958789E+03  0.12509081662E+03 0.  0.
        -24    2    1    2    0    0 -0.56993919340E+01 -0.20130361588E+01  0.12212480291E+03  0.14685999750E+03  0.81344059379E+02 0.  0.
        -13    1    3    3    0    0  0.32642340410E+01  0.61346554617E+01 -0.22662279793E+03  0.22672931385E+03  0.00000000000E+00 0.  1.
         14    1    3    3    0    0  0.16736316503E+02  0.53520403889E+02 -0.94957377942E+02  0.11027892613E+03  0.00000000000E+00 0. -1.
         13    1    5    5    0    0 -0.28906433000E+02 -0.26843077221E+02  0.96635684244E+02  0.10437714373E+03  0.00000000000E+00 0. -1.
        -14    1    5    5    0    0  0.23207041066E+02  0.24830041062E+02  0.25489118670E+02  0.42482853773E+02  0.00000000000E+00 0.  1.
          5    1    4    4  501    0  0.17473260558E+02  0.17437965689E+02 -0.25944814886E+02  0.36055558537E+02  0.41800000000E+01 0. -1.
         -5    1    4    4    0  501 -0.31774419168E+02 -0.75079988881E+02  0.74982051176E+02  0.11084402935E+03  0.41800000000E+01 0. -1.
</event>
<event>
11    1  0.8039394E-009  0.2113506E+03  0.7561462E-02  0.1046775E+00
         22   -1    0    0    0    0  0.00000000000E+00  0.00000000000E+00  0.10411783611E+04  0.10411783611E+04  0.00000000000E+00 0. -1.
         22   -1    0    0    0    0 -0.00000000000E+00 -0.00000000000E+00 -0.20789390110E+03  0.20789390110E+03  0.00000000000E+00 0. -1.
        -24    2    1    2    0    0  0.56582210693E+02 -0.10786735782E+03  0.32846093379E+02  0.15034535380E+03  0.81779863728E+02 0.  0.
         25    2    1    2    0    0  0.61370474434E+02  0.22687905912E+03 -0.10743319818E+02  0.26646390836E+03  0.12508858038E+03 0.  0.
         24    2    1    2    0    0 -0.11795268513E+03 -0.11901170130E+03  0.81118168643E+03  0.83226300002E+03  0.81051538110E+02 0.  0.
        -13    1    5    5    0    0 -0.59953293973E+02 -0.20771298686E+02  0.42067546622E+03  0.42543353440E+03  0.00000000000E+00 0.  1.
         14    1    5    5    0    0 -0.57999391154E+02 -0.98240402614E+02  0.39050622021E+03  0.40682946562E+03  0.00000000000E+00 0. -1.
         13    1    3    3    0    0  0.77275045340E+02 -0.76126904455E+02  0.19762875902E+02  0.11026018991E+03  0.00000000000E+00 0. -1.
        -14    1    3    3    0    0 -0.20692834647E+02 -0.31740453360E+02  0.13083217477E+02  0.40085163899E+02  0.00000000000E+00 0.  1.
          5    1    4    4  501    0  0.28558942988E+02 -0.35091814613E+01  0.14241458238E+02  0.32376212130E+02  0.41800000000E+01 0.  1.
         -5    1    4    4    0  501  0.32811531446E+02  0.23038824058E+03 -0.24984778056E+02  0.23408769623E+03  0.41800000000E+01 0.  1.
</event>
<event>
11    1  0.8039394E-009  0.1316029E+03  0.7561462E-02  0.1117315E+00
         22   -1    0    0    0    0  0.00000000000E+00  0.00000000000E+00  0.46423905917E+03  0.46423905917E+03  0.00000000000E+00 0. -1.
         22   -1    0    0    0    0 -0.00000000000E+00 -0.00000000000E+00 -0.22368874345E+03  0.22368874345E+03  0.00000000000E+00 0. -1.
         24    2    1    2    0    0 -0.23034428103E+02  0.25140595880E+02 -0.15567203091E+03  0.17831832927E+03  0.80006317933E+02 0.  0.
         25    2    1    2    0    0  0.53295420979E+02 -0.47238195835E+02  0.50633923892E+02  0.15260016930E+03  0.12510462973E+03 0.  0.
        -24    2    1    2    0    0 -0.30260992877E+02  0.22097599955E+02  0.34558842274E+03  0.35700930404E+03  0.81364941038E+02 0.  0.
        -11    1    3    3    0    0 -0.19745229898E+02  0.54184527727E+02 -0.10663868821E+03  0.12123385242E+03  0.00000000000E+00 0.  1.
         12    1    3    3    0    0 -0.32891982046E+01 -0.29043931847E+02 -0.49033342692E+02  0.57084476853E+02  0.00000000000E+00 0. -1.
         11    1    5    5    0    0 -0.16180391955E+02 -0.21055661146E+02  0.24757416865E+03  0.24899420663E+03  0.00000000000E+00 0. -1.
        -12    1    5    5    0    0 -0.14080600921E+02  0.43153261102E+02  0.98014254084E+02  0.10801509742E+03  0.00000000000E+00 0.  1.
          5    1    4    4  501    0 -0.14547160660E+02 -0.38133073948E+02 -0.26922970293E+02  0.49072089230E+02  0.41800000000E+01 0.  1.
         -5    1    4    4    0  501  0.67842581639E+02 -0.91051218867E+01  0.77556894184E+02  0.10352808007E+03  0.41800000000E+01 0.  1.
</event>
<event>
11    1  0.8039394E-009  0.2202026E+03  0.7561462E-02  0.1041091E+00
         22   -1    0    0    0    0  0.00000000000E+00  0.00000000000E+00  0.37443740059E+03  0.37443740059E+03  0.00000000000E+00 0. -1.
         22   -1    0    0    0    0 -0.00000000000E+00 -0.00000000000E+00 -0.20641039065E+04  0.20641039065E+04  0.00000000000E+00 0.  1.
        -24    2    1    2    0    0  0.47696960964E+01  0.12407290473E+02 -0.15185839424E+04  0.15208358870E+04  0.81657297011E+02 0.  0.
         25    2    1    2    0    0  0.16060670387E+03 -0.86420655543E+02 -0.49255636254E+03  0.53992849566E+03  0.12509183474E+03 0.  0.
         24    2    1    2    0    0 -0.16537639997E+03  0.74013365071E+02  0.32147379906E+03  0.37777692441E+03  0.80886768128E+02 0.  0.
        -11    1    5    5    0    0 -0.19100084730E+02 -0.17149391395E+02  0.34158247880E+02  0.42728219717E+02  0.00000000000E+00 0.  1.
         12    1    5    5    0    0 -0.14627631524E+03  0.91162756466E+02  0.28731555118E+03  0.33504870469E+03  0.00000000000E+00 0. -1.
         11    1    3    3    0    0 -0.27028781817E+02  0.30207406139E+02 -0.51590295773E+03  0.51749290258E+03  0.00000000000E+00 0. -1.
        -12    1    3    3    0    0  0.31798477913E+02 -0.17800115666E+02 -0.10026809847E+04  0.10033429844E+04  0.00000000000E+00 0.  1.
          5    1    4    4  501    0  0.77285215558E+02 -0.19349663390E+02 -0.77260300331E+02  0.11105872512E+03  0.41800000000E+01 0.  1.
         -5    1    4    4    0  501  0.83321488315E+02 -0.67070992153E+02 -0.41529606221E+03  0.42886977055E+03  0.41800000000E+01 0.  1.
</event>
<event>
11    1  0.8039394E-009  0.1464970E+03  0.7561462E-02  0.1100513E+00
         22   -1    0    0    0    0  0.00000000000E+00  0.00000000000E+00  0.53213812441E+03  0.53213812441E+03  0.00000000000E+00 0. -1.
         22   -1    0    0    0    0 -0.00000000000E+00 -0.00000000000E+00 -0.77709603059E+03  0.77709603059E+03  0.00000000000E+00 0. -1.
        -24    2    1    2    0    0 -0.76024418537E+01  0.26752393164E+02 -0.71721779150E+03  0.72221412698E+03  0.80114899365E+02 0.  0.
         25    2    1    2    0    0  0.66378147096E+02  0.24027879372E+02  0.52987851119E+02  0.15309931141E+03  0.12509312287E+03 0.  0.
         24    2    1    2    0    0 -0.58775705242E+02 -0.50780272536E+02  0.41927203421E+03  0.43392071661E+03  0.80404788616E+02 0.  0.
        -13    1    5    5    0    0 -0.22044617205E+02 -0.47961398649E+02  0.10524534407E+03  0.11774057651E+03  0.00000000000E+00 0.  1.
         14    1    5    5    0    0 -0.36731088037E+02 -0.28188738874E+01  0.31402669014E+03  0.31618014010E+03  0.00000000000E+00 0. -1.
         11    1    3    3    0    0 -0.43144130621E+02  0.15760732642E+02 -0.46572382213E+03  0.46798343475E+03  0.00000000000E+00 0. -1.
        -12    1    3    3    0    0  0.35541688768E+02  0.10991660522E+02 -0.25149396937E+03  0.25423069223E+03  0.00000000000E+00 0.  1.
          5    1    4    4  501    0 -0.29910577165E+01  0.50836306580E+02  0.59381961127E+02  0.78338791159E+02  0.41800000000E+01 0. -1.
         -5    1    4    4    0  501  0.69369204813E+02 -0.26808427208E+02 -0.63941100079E+01  0.74760520253E+02  0.41800000000E+01 0. -1.
</event>
<event>
11    1  0.8039394E-009  0.1407527E+03  0.7561462E-02  0.1106721E+00
         22   -1    0    0    0    0  0.00000000000E+00  0.00000000000E+00  0.14993000585E+04  0.14993000585E+04  0.00000000000E+00 0. -1.
         22   -1    0    0    0    0 -0.00000000000E+00 -0.00000000000E+00 -0.55563742627E+03  0.55563742627E+03  0.00000000000E+00 0.  1.
         24    2    1    2    0    0 -0.27993303630E+02 -0.56472194551E+02 -0.45655339791E+03  0.46797342491E+03  0.81150400339E+02 0.  0.
         25    2    1    2    0    0  0.70973360170E+02  0.54780940293E+02 -0.27498699554E+02  0.15633396105E+03  0.12508381042E+03 0.  0.
        -24    2    1    2    0    0 -0.42980056539E+02  0.16912542579E+01  0.14277147297E+04  0.14306300988E+04  0.80516983409E+02 0.  0.
        -13    1    3    3    0    0  0.81703949596E+01  0.51687687557E+01 -0.23457820196E+03  0.23477735061E+03  0.00000000000E+00 0.  1.
         14    1    3    3    0    0 -0.36163698590E+02 -0.61640963307E+02 -0.22197519594E+03  0.23319607429E+03  0.00000000000E+00 0. -1.
         13    1    5    5    0    0 -0.60446615115E+02 -0.12850983009E+01  0.67378101753E+03  0.67648821449E+03  0.00000000000E+00 0. -1.
        -14    1    5    5    0    0  0.17466558576E+02  0.29763525589E+01  0.75393371217E+03  0.75414188432E+03  0.00000000000E+00 0.  1.
          5    1    4    4  501    0  0.22430471451E+02  0.55399376291E+02  0.40762651409E+02  0.72465737371E+02  0.41800000000E+01 0.  1.
         -5    1    4    4    0  501  0.48542888719E+02 -0.61843599774E+00 -0.68261350963E+02  0.83868223682E+02  0.41800000000E+01 0.  1.
</event>
<event>
11    1  0.8039394E-009  0.1391800E+03  0.7561462E-02  0.1108478E+00
         22   -1    0    0    0    0  0.00000000000E+00  0.00000000000E+00  0.16668346032E+04  0.16668346032E+04  0.00000000000E+00 0.  1.
         22   -1    0    0    0    0 -0.00000000000E+00 -0.00000000000E+00 -0.73191355737E+02  0.73191355737E+02  0.00000000000E+00 0.  1.
        -24    2    1    2    0    0  0.20792964306E+02  0.57073348360E+02  0.42983735224E+01  0.10223765572E+03  0.82123978078E+02 0.  0.
         25    2    1    2    0    0  0.14461912567E+02 -0.69143379289E+02  0.20299068657E+03  0.24868215541E+03  0.12509053430E+03 0.  0.
         24    2    1    2    0    0 -0.35254876874E+02  0.12070030929E+02  0.13863541874E+04  0.13891061478E+04  0.79052925465E+02 0.  0.
        -11    1    5    5    0    0 -0.55016331098E+02  0.28058162311E+02  0.10252834338E+04  0.10271417511E+04  0.00000000000E+00 0.  1.
         12    1    5    5    0    0  0.19761454224E+02 -0.15988131382E+02  0.36107075358E+03  0.36196439674E+03  0.00000000000E+00 0. -1.
         11    1    3    3    0    0  0.35979490183E+02  0.34396290459E+02  0.35233648048E+02  0.60983919733E+02  0.00000000000E+00 0. -1.
        -12    1    3    3    0    0 -0.15186525877E+02  0.22677057901E+02 -0.30935274526E+02  0.41253735991E+02  0.00000000000E+00 0.  1.
          5    1    4    4  501    0 -0.54386827547E+02 -0.22905796548E+02  0.10221559078E+03  0.11810208264E+03  0.41800000000E+01 0. -1.
         -5    1    4    4    0  501  0.68848740114E+02 -0.46237582742E+02  0.10077509579E+03  0.13058007277E+03  0.41800000000E+01 0. -1.
</event>
<event>
11    1  0.8039394E-009  0.1340652E+03  0.7561462E-02  0.1114373E+00
         22   -1    0    0    0    0  0.00000000000E+00  0.00000000000E+00  0.18178237206E+04  0.18178237206E+04  0.00000000000E+00 0.  1.
         22   -1    0    0    0    0 -0.00000000000E+00 -0.00000000000E+00 -0.39001506818E+02  0.39001506818E+02  0.00000000000E+00 0.  1.
         24    2    1    2    0    0 -0.44907336108E+02 -0.11598746742E+02  0.50977242792E+02  0.11095019257E+03  0.86948641079E+02 0.  0.
         25    2    1    2    0    0  0.56468945041E+02  0.34712370860E+02  0.67206188151E+03  0.68680995056E+03  0.12508814955E+03 0.  0.
        -24    2    1    2    0    0 -0.11561608932E+02 -0.23113624118E+02  0.10557830894E+04  0.10590650842E+04  0.79202337870E+02 0.  0.
        -11    1    3    3    0    0 -0.20263955481E+01  0.16341857176E+02 -0.18428892243E+02  0.24714098086E+02  0.00000000000E+00 0.  1.
         12    1    3    3    0    0 -0.42880940560E+02 -0.27940603919E+02  0.69406135035E+02  0.86236094480E+02  0.00000000000E+00 0. -1.
         13    1    5    5    0    0  0.13584273928E+02 -0.34225273743E+02  0.23904610767E+03  0.24186554829E+03  0.00000000000E+00 0. -1.
        -14    1    5    5    0    0 -0.25145882860E+02  0.11111649625E+02  0.81673698176E+03  0.81719953595E+03  0.00000000000E+00 0.  1.
          5    1    4    4  501    0  0.27263266469E+02  0.48632854896E+02  0.10628502985E+03  0.12009338135E+03  0.41800000000E+01 0. -1.
         -5    1    4    4    0  501  0.29205678571E+02 -0.13920484035E+02  0.56577685166E+03  0.56671656920E+03  0.41800000000E+01 0. -1.
</event>
<event>
11    1  0.8039394E-009  0.2299299E+03  0.7561462E-02  0.1035169E+00
         22   -1    0    0    0    0  0.00000000000E+00  0.00000000000E+00  0.20165023106E+04  0.20165023106E+04  0.00000000000E+00 0. -1.
         22   -1    0    0    0    0 -0.00000000000E+00 -0.00000000000E+00 -0.90867961119E+03  0.90867961119E+03  0.00000000000E+00 0.  1.
        -24    2    1    2    0    0 -0.30358925112E+01  0.37287907768E+02 -0.87754558570E+03  0.88210524848E+03  0.81386790766E+02 0.  0.
         25    2    1    2    0    0 -0.16587095925E+03 -0.12165763248E+03  0.67491612724E+03  0.71656965270E+03  0.12508610518E+03 0.  0.
         24    2    1    2    0    0  0.16890685176E+03  0.84369724708E+02  0.13104521579E+04  0.13265070206E+04  0.81781676756E+02 0.  0.
        -13    1    5    5    0    0  0.78150777002E+01 -0.14655773571E+02  0.97832419432E+02  0.99232300338E+02  0.00000000000E+00 0.  1.
         14    1    5    5    0    0  0.16109177406E+03  0.99025498279E+02  0.12126197384E+04  0.12272747203E+04  0.00000000000E+00 0. -1.
         11    1    3    3    0    0  0.18241860775E+01 -0.93080558947E+00  0.12934202046E+01  0.24221869697E+01  0.00000000000E+00 0. -1.
        -12    1    3    3    0    0 -0.48600785886E+01  0.38218713357E+02 -0.87883900590E+03  0.87968306151E+03  0.00000000000E+00 0.  1.
          5    1    4    4  501    0 -0.94325859543E+02  0.44577573809E+01  0.23248077571E+03  0.25096219407E+03  0.41800000000E+01 0. -1.
         -5    1    4    4    0  501 -0.71545099704E+02 -0.12611538986E+03  0.44243535153E+03  0.46560745863E+03  0.41800000000E+01 0. -1.
</event>
<event>
11    1  0.8039394E-009  0.1972059E+03  0.7561462E-02  0.1056517E+00
         22   -1    0    0    0    0  0.00000000000E+00  0.00000000000E+00  0.17607500862E+04  0.17607500862E+04  0.00000000000E+00 0.  1.
         22   -1    0    0    0    0 -0.00000000000E+00 -0.00000000000E+00 -0.28413644286E+04  0.28413644286E+04  0.00000000000E+00 0. -1.
         24    2    1    2    0    0 -0.22330116117E+02 -0.14809190177E+03 -0.24746314768E+04  0.24806404838E+04  0.85711251239E+02 0.  0.
         25    2    1    2    0    0  0.44078820694E+02  0.17831009361E+03 -0.32852889403E+03  0.39663007475E+03  0.12508697002E+03 0.  0.
        -24    2    1    2    0    0 -0.21748704577E+02 -0.30218191838E+02  0.17225460285E+04  0.17248439563E+04  0.80843726237E+02 0.  0.
        -13    1    3    3    0    0  0.18620531522E+02 -0.70856891571E+01 -0.57402845918E+03  0.57437409685E+03  0.00000000000E+00 0.  1.
         14    1    3    3    0    0 -0.40950647639E+02 -0.14100621261E+03 -0.19006030176E+04  0.19062663870E+04  0.00000000000E+00 0. -1.
         13    1    5    5    0    0 -0.34433376966E+02  0.87329190743E+01  0.12562054143E+04  0.12567075890E+04  0.00000000000E+00 0. -1.
        -14    1    5    5    0    0  0.12684672388E+02 -0.38951110913E+02  0.46634061411E+03  0.46813636723E+03  0.00000000000E+00 0.  1.
          5    1    4    4  501    0  0.74096808833E+02  0.50841404021E+02 -0.15467594763E+03  0.17893380512E+03  0.41800000000E+01 0.  1.
         -5    1    4    4    0  501 -0.30017988140E+02  0.12746868958E+03 -0.17385294641E+03  0.21769626963E+03  0.41800000000E+01 0.  1.
</event>
<event>
11    1  0.8039394E-009  0.1963328E+03  0.7561462E-02  0.1057148E+00
         22   -1    0    0    0    0  0.00000000000E+00  0.00000000000E+00  0.11599718168E+03  0.11599718168E+03  0.00000000000E+00 0.  1.
         22   -1    0    0    0    0 -0.00000000000E+00 -0.00000000000E+00 -0.22303656115E+04  0.22303656115E+04  0.00000000000E+00 0.  1.
        -24    2    1    2    0    0  0.91195171873E+02  0.11382405948E+03 -0.14831455726E+04  0.14924607071E+04  0.80285096987E+02 0.  0.
         25    2    1    2    0    0 -0.65242481684E+02 -0.16364927469E+03 -0.70068217083E+03  0.73323991732E+03  0.12509038858E+03 0.  0.
         24    2    1    2    0    0 -0.25952690189E+02  0.49825215211E+02  0.69459313641E+02  0.12066216874E+03  0.81108991578E+02 0.  0.
        -11    1    5    5    0    0 -0.49823553034E+02  0.51449237678E+02  0.64161329600E+02  0.96156573934E+02  0.00000000000E+00 0.  1.
         12    1    5    5    0    0  0.23870862845E+02 -0.16240224670E+01  0.52979840409E+01  0.24505594807E+02  0.00000000000E+00 0. -1.
         11    1    3    3    0    0  0.45074294028E+02  0.10528705336E+02 -0.65365722322E+03  0.65529406459E+03  0.00000000000E+00 0. -1.
        -12    1    3    3    0    0  0.46120877844E+02  0.10329535414E+03 -0.82948834941E+03  0.83716664253E+03  0.00000000000E+00 0.  1.
          5    1    4    4  501    0 -0.97980476097E+01  0.16022618919E+02 -0.15210553377E+03  0.15331761757E+03  0.41800000000E+01 0.  1.
         -5    1    4    4    0  501 -0.55444434074E+02 -0.17967189361E+03 -0.54857663705E+03  0.57992229975E+03  0.41800000000E+01 0.  1.
</event>
<event>
11    1  0.8039394E-009  0.1347574E+03  0.7561462E-02  0.1113558E+00
         22   -1    0    0    0    0  0.00000000000E+00  0.00000000000E+00  0.15930567599E+04  0.15930567599E+04  0.00000000000E+00 0. -1.
         22   -1    0    0    0    0 -0.00000000000E+00 -0.00000000000E+00 -0.54020727860E+03  0.54020727860E+03  0.00000000000E+00 0.  1.
         24    2    1    2    0    0  0.48909844626E+02 -0.10743753098E+02 -0.51707435218E+03  0.52544134301E+03  0.78836020499E+02 0.  0.
         25    2    1    2    0    0 -0.52135599706E+02  0.81791290651E+01  0.24250799237E+03  0.27792622325E+03  0.12509132784E+03 0.  0.
        -24    2    1    2    0    0  0.32257550798E+01  0.25646240329E+01  0.13274158411E+04  0.13298964722E+04  0.81085318554E+02 0.  0.
        -11    1    3    3    0    0  0.59273332541E+02  0.18305019190E+02 -0.31836421659E+03  0.32435193245E+03  0.00000000000E+00 0.  1.
         12    1    3    3    0    0 -0.10363487914E+02 -0.29048772288E+02 -0.19871013558E+03  0.20108941055E+03  0.00000000000E+00 0. -1.
         11    1    5    5    0    0 -0.38353248490E+02 -0.57522311905E+01  0.62664949626E+03  0.62784842995E+03  0.00000000000E+00 0. -1.
        -12    1    5    5    0    0  0.41579003570E+02  0.83168552235E+01  0.70076634484E+03  0.70204804228E+03  0.00000000000E+00 0.  1.
          5    1    4    4  501    0 -0.48883891881E+02  0.61755873936E+02  0.11428832621E+03  0.13886222222E+03  0.41800000000E+01 0.  1.
         -5    1    4    4    0  501 -0.32517078249E+01 -0.53576744871E+02  0.12821966615E+03  0.13906400103E+03  0.41800000000E+01 0.  1.
</event>
<event>
11    1  0.8039394E-009  0.1302999E+03  0.7561462E-02  0.1118901E+00
         22   -1    0    0    0    0  0.00000000000E+00  0.00000000000E+00  0.31751004703E+03  0.31751004703E+03  0.00000000000E+00 0.  1.
         22   -1    0    0    0    0 -0.00000000000E+00 -0.00000000000E+00 -0.14408020109E+04  0.14408020109E+04  0.00000000000E+00 0. -1.
        -24    2    1    2    0    0  0.25769180904E+02 -0.28617578632E+02 -0.11027155118E+04  0.11063811927E+04  0.81331586725E+02 0.  0.
         25    2    1    2    0    0  0.28151652180E+01  0.31327796735E+02 -0.31765602366E+03  0.34284675154E+03  0.12509672127E+03 0.  0.
         24    2    1    2    0    0 -0.28584346122E+02 -0.27102181029E+01  0.29707957167E+03  0.30908411366E+03  0.80326255286E+02 0.  0.
        -13    1    5    5    0    0 -0.35526486033E+02  0.28730796419E+02  0.23221952889E+03  0.23667171244E+03  0.00000000000E+00 0.  1.
         14    1    5    5    0    0  0.69421399107E+01 -0.31441014522E+02  0.64860042782E+02  0.72412401219E+02  0.00000000000E+00 0. -1.
         11    1    3    3    0    0  0.28566730639E+02  0.44590984031E+01 -0.13339088437E+03  0.13648835002E+03  0.00000000000E+00 0. -1.
        -12    1    3    3    0    0 -0.27975497350E+01 -0.33076677035E+02 -0.96932462747E+03  0.96989284268E+03  0.00000000000E+00 0.  1.
          5    1    4    4  501    0  0.15067083881E+02  0.75508575217E+02 -0.24485682228E+03  0.25671170165E+03  0.41800000000E+01 0.  1.
         -5    1    4    4    0  501 -0.12251918663E+02 -0.44180778482E+02 -0.72799201380E+02  0.86135049891E+02  0.41800000000E+01 0.  1.
</event>
<event>
11    1  0.8039394E-009  0.1534941E+03  0.7561462E-02  0.1093361E+00
         22   -1    0    0    0    0  0.00000000000E+00  0.00000000000E+00  0.45738715863E+03  0.45738715863E+03  0.00000000000E+00 0.  1.
         22   -1    0    0    0    0 -0.00000000000E+00 -0.00000000000E+00 -0.63289579428E+03  0.63289579428E+03  0.00000000000E+00 0. -1.
         24    2    1    2    0    0 -0.78076457974E+02 -0.39912380873E+02 -0.55878168334E+03  0.57593994016E+03  0.10853991705E+03 0.  0.
         25    2    1    2    0    0  0.62023855416E+02  0.12208823972E+03  0.10606560281E+03  0.21365694629E+03  0.12508749610E+03 0.  0.
        -24    2    1    2    0    0  0.16052602558E+02 -0.82175858843E+02  0.27720744489E+03  0.30068606646E+03  0.80978918474E+02 0.  0.
        -13    1    3    3    0    0 -0.13965532080E+02 -0.24053652467E+02 -0.22967827962E+02  0.36071254546E+02  0.00000000000E+00 0.  1.
         14    1    3    3    0    0 -0.64110925895E+02 -0.15858728406E+02 -0.53581385538E+03  0.53986868561E+03  0.00000000000E+00 0. -1.
         13    1    5    5    0    0  0.29966993237E+02 -0.39711492350E+02  0.55557586007E+02  0.74576596002E+02  0.00000000000E+00 0. -1.
        -14    1    5    5    0    0 -0.13914390679E+02 -0.42464366493E+02  0.22164985888E+03  0.22610947046E+03  0.00000000000E+00 0.  1.
          5    1    4    4  501    0 -0.20613723012E+02  0.94533088434E+02  0.42612813853E+02  0.10580526778E+03  0.41800000000E+01 0. -1.
         -5    1    4    4    0  501  0.82637578428E+02  0.27555151282E+02  0.63452788959E+02  0.10785167851E+03  0.41800000000E+01 0. -1.
</event>
<event>
11    1  0.8039394E-009  0.2329811E+03  0.7561462E-02  0.1033377E+00
         22   -1    0    0    0    0  0.00000000000E+00  0.00000000000E+00  0.45851789425E+03  0.45851789425E+03  0.00000000000E+00 0.  1.
         22   -1    0    0    0    0 -0.00000000000E+00 -0.00000000000E+00 -0.17401540025E+04  0.17401540025E+04  0.00000000000E+00 0. -1.
         24    2    1    2    0    0 -0.12780910856E+03 -0.36013827014E+02 -0.14343525055E+04  0.14430888657E+04  0.86638331398E+02 0.  0.
         25    2    1    2    0    0  0.26911817965E+03  0.15525652339E+03 -0.16966293504E+03  0.37545025521E+03  0.12509276531E+03 0.  0.
        -24    2    1    2    0    0 -0.14130907109E+03 -0.11924269638E+03  0.32237933227E+03  0.38013277581E+03  0.79908817751E+02 0.  0.
        -13    1    3    3    0    0 -0.18219634952E+02 -0.71502245528E+01 -0.67903130167E+03  0.67931332200E+03  0.00000000000E+00 0.  1.
         14    1    3    3    0    0 -0.10958947361E+03 -0.28863602462E+02 -0.75532120379E+03  0.76377554371E+03  0.00000000000E+00 0. -1.
         11    1    5    5    0    0 -0.77860893685E+01 -0.44617575292E+02  0.47987198201E+02  0.65985774253E+02  0.00000000000E+00 0. -1.
        -12    1    5    5    0    0 -0.13352298172E+03 -0.74625121086E+02  0.27439213407E+03  0.31414700155E+03  0.00000000000E+00 0.  1.
          5    1    4    4  501    0  0.12827806332E+03  0.28571684892E+02 -0.12358116701E+03  0.18044772082E+03  0.41800000000E+01 0.  1.
         -5    1    4    4    0  501  0.14084011633E+03  0.12668483850E+03 -0.46081768025E+02  0.19500253439E+03  0.41800000000E+01 0.  1.
</event>
<event>
11    1  0.8039394E-009  0.1427570E+03  0.7561462E-02  0.1104518E+00
         22   -1    0    0    0    0  0.00000000000E+00  0.00000000000E+00  0.44414494171E+03  0.44414494171E+03  0.00000000000E+00 0. -1.
         22   -1    0    0    0    0 -0.00000000000E+00 -0.00000000000E+00 -0.58591076617E+03  0.58591076617E+03  0.00000000000E+00 0. -1.
        -24    2    1    2    0    0  0.11007184781E+02  0.35558046088E+02 -0.37633602639E+03  0.38654389260E+03  0.80011520348E+02 0.  0.
         25    2    1    2    0    0 -0.61332285584E+02  0.12137335735E+02 -0.17282699345E+03  0.22231894171E+03  0.12509027942E+03 0.  0.
         24    2    1    2    0    0  0.50325100803E+02 -0.47695381823E+02  0.40739719539E+03  0.42119287357E+03  0.81384867863E+02 0.  0.
        -11    1    5    5    0    0 -0.16683537068E+02  0.47114669562E+01  0.33264919764E+02  0.37511241207E+02  0.00000000000E+00 0.  1.
         12    1    5    5    0    0  0.67008637871E+02 -0.52406848780E+02  0.37413227562E+03  0.38368163236E+03  0.00000000000E+00 0. -1.
         13    1    3    3    0    0 -0.53036551939E+01 -0.97999611851E+01 -0.26484514594E+03  0.26507945851E+03  0.00000000000E+00 0. -1.
        -14    1    3    3    0    0  0.16310839975E+02  0.45358007273E+02 -0.11149088046E+03  0.12146443410E+03  0.00000000000E+00 0.  1.
          5    1    4    4  501    0 -0.18157564341E+02 -0.47117033062E+01 -0.17469344781E+03  0.17574746199E+03  0.41800000000E+01 0.  1.
         -5    1    4    4    0  501 -0.43174721243E+02  0.16849039041E+02  0.18664543587E+01  0.46571479716E+02  0.41800000000E+01 0.  1.
</event>
<event>
11    1  0.8039394E-009  0.1377070E+03  0.7561462E-02  0.1110146E+00
         22   -1    0    0    0    0  0.00000000000E+00  0.00000000000E+00  0.61552999801E+03  0.61552999801E+03  0.00000000000E+00 0. -1.
         22   -1    0    0    0    0 -0.00000000000E+00 -0.00000000000E+00 -0.16974907805E+03  0.16974907805E+03  0.00000000000E+00 0.  1.
        -24    2    1    2    0    0 -0.76542417634E+01 -0.55132761421E+02 -0.12043597687E+03  0.16208972747E+03  0.93113084087E+02 0.  0.
         25    2    1    2    0    0  0.19726831337E+00  0.80071167925E+02  0.21107392917E+03  0.25808761851E+03  0.12508231054E+03 0.  0.
         24    2    1    2    0    0  0.74569734500E+01 -0.24938406504E+02  0.35514296767E+03  0.36510173008E+03  0.80592898270E+02 0.  0.
        -11    1    5    5    0    0  0.14211560798E+02 -0.10422842467E+02  0.11407681366E+02  0.20993791929E+02  0.00000000000E+00 0.  1.
         12    1    5    5    0    0 -0.67545873478E+01 -0.14515564037E+02  0.34373528630E+03  0.34410793815E+03  0.00000000000E+00 0. -1.
         13    1    3    3    0    0 -0.48186437783E+02 -0.21131079092E+02 -0.41258490842E+02  0.66863430636E+02  0.00000000000E+00 0. -1.
        -14    1    3    3    0    0  0.40532196020E+02 -0.34001682328E+02 -0.79177486025E+02  0.95226296833E+02  0.00000000000E+00 0.  1.
          5    1    4    4  501    0 -0.20333117326E+01  0.66286940904E+02  0.22698374246E+03  0.23651043239E+03  0.41800000000E+01 0. -1.
         -5    1    4    4    0  501  0.22305800460E+01  0.13784227021E+02 -0.15909813291E+02  0.21577186120E+02  0.41800000000E+01 0. -1.
</event>
<event>
11    1  0.8039394E-009  0.2481153E+03  0.7561462E-02  0.1024908E+00
         22   -1    0    0    0    0  0.00000000000E+00  0.00000000000E+00  0.14622929245E+04  0.14622929245E+04  0.00000000000E+00 0.  1.
         22   -1    0    0    0    0 -0.00000000000E+00 -0.00000000000E+00 -0.14690747426E+03  0.14690747426E+03  0.00000000000E+00 0.  1.
         24    2    1    2    0    0  0.19809660942E+03 -0.22141412000E+02  0.13308365174E+02  0.21514825057E+03  0.79869570872E+02 0.  0.
         25    2    1    2    0    0 -0.31526189678E+03  0.16269543274E+02  0.73384046839E+03  0.80859216971E+03  0.12507878423E+03 0.  0.
        -24    2    1    2    0    0  0.11716528737E+03  0.58718687263E+01  0.56823661663E+03  0.58545997843E+03  0.78155936814E+02 0.  0.
        -13    1    3    3    0    0  0.13011131573E+03  0.12773423115E+02  0.35673217051E+02  0.13551639471E+03  0.00000000000E+00 0.  1.
         14    1    3    3    0    0  0.67985293683E+02 -0.34914835115E+02 -0.22364851877E+02  0.79631855860E+02  0.00000000000E+00 0. -1.
         13    1    5    5    0    0 -0.80042463159E+01  0.99332846379E+01  0.98221263149E+02  0.99046224751E+02  0.00000000000E+00 0. -1.
        -14    1    5    5    0    0  0.12516953368E+03 -0.40614159116E+01  0.47001535348E+03  0.48641375368E+03  0.00000000000E+00 0.  1.
          5    1    4    4  501    0 -0.10969007710E+03 -0.33720120902E+02  0.15970205056E+03  0.19670072934E+03  0.41800000000E+01 0.  1.
         -5    1    4    4    0  501 -0.20557181968E+03  0.49989664175E+02  0.57413841783E+03  0.61189144037E+03  0.41800000000E+01 0.  1.
</event>
<event>
11    1  0.8039394E-009  0.1566262E+03  0.7561462E-02  0.1090294E+00
         22   -1    0    0    0    0  0.00000000000E+00  0.00000000000E+00  0.18820008570E+04  0.18820008570E+04  0.00000000000E+00 0.  1.
         22   -1    0    0    0    0 -0.00000000000E+00 -0.00000000000E+00 -0.55980746571E+03  0.55980746571E+03  0.00000000000E+00 0. -1.
         24    2    1    2    0    0  0.79347990494E+01 -0.56906888058E+02 -0.53215111237E+03  0.54126825251E+03  0.80530490132E+02 0.  0.
         25    2    1    2    0    0 -0.25268775188E+02 -0.41518968771E+02  0.19692488795E+03  0.23830400164E+03  0.12508816865E+03 0.  0.
        -24    2    1    2    0    0  0.17333976139E+02  0.98425856829E+02  0.16574196157E+04  0.16622360685E+04  0.77465147495E+02 0.  0.
        -13    1    3    3    0    0 -0.33590449376E+02 -0.31067609638E+02 -0.17940384846E+03  0.18514657842E+03  0.00000000000E+00 0.  1.
         14    1    3    3    0    0  0.41525248426E+02 -0.25839278420E+02 -0.35274726390E+03  0.35612167409E+03  0.00000000000E+00 0. -1.
         13    1    5    5    0    0 -0.27695149219E+02  0.43480902911E+02  0.90614577658E+03  0.90761102826E+03  0.00000000000E+00 0. -1.
        -14    1    5    5    0    0  0.45029125358E+02  0.54944953918E+02  0.75127383909E+03  0.75462504026E+03  0.00000000000E+00 0.  1.
          5    1    4    4  501    0 -0.64557347887E+02 -0.33051907287E+02  0.18070814907E+03  0.19476392705E+03  0.41800000000E+01 0. -1.
         -5    1    4    4    0  501  0.39288572698E+02 -0.84670614836E+01  0.16216738875E+02  0.43540074582E+02  0.41800000000E+01 0. -1.
</event>
<event>
11    1  0.8039394E-009  0.1388524E+03  0.7561462E-02  0.1108847E+00
         22   -1    0    0    0    0  0.00000000000E+00  0.00000000000E+00  0.79648522557E+03  0.79648522557E+03  0.00000000000E+00 0.  1.
         22   -1    0    0    0    0 -0.00000000000E+00 -0.00000000000E+00 -0.13662720930E+03  0.13662720930E+03  0.00000000000E+00 0.  1.
        -24    2    1    2    0    0  0.10238905654E+02 -0.41951339429E+01 -0.92688678392E+02  0.11874945679E+03  0.73401689680E+02 0.  0.
         25    2    1    2    0    0  0.48122947822E+02  0.23569335972E+02  0.14906490835E+03  0.20183817194E+03  0.12508784532E+03 0.  0.
         24    2    1    2    0    0 -0.58361853476E+02 -0.19374202029E+02  0.60348178631E+03  0.61252480613E+03  0.84940603186E+02 0.  0.
        -11    1    5    5    0    0 -0.41261404126E+02  0.29752825963E+02  0.35766420897E+03  0.36126364404E+03  0.00000000000E+00 0.  1.
         12    1    5    5    0    0 -0.17100449350E+02 -0.49127027992E+02  0.24581757734E+03  0.25126116209E+03  0.00000000000E+00 0. -1.
         13    1    3    3    0    0  0.33217158622E+02 -0.24275808804E+02 -0.37412692289E+02  0.55609388275E+02  0.00000000000E+00 0. -1.
        -14    1    3    3    0    0 -0.22978252968E+02  0.20080674861E+02 -0.55275986103E+02  0.63140068514E+02  0.00000000000E+00 0.  1.
          5    1    4    4  501    0 -0.84833781854E+01 -0.42241702817E+02  0.79489267777E+02  0.90511575249E+02  0.41800000000E+01 0. -1.
         -5    1    4    4    0  501  0.56606326008E+02  0.65811038788E+02  0.69575640568E+02  0.11132659669E+03  0.41800000000E+01 0. -1.
</event>
<event>
11    1  0.8039394E-009  0.1383834E+03  0.7561462E-02  0.1109377E+00
         22   -1    0    0    0    0  0.00000000000E+00  0.00000000000E+00  0.17502150367E+04  0.17502150367E+04  0.00000000000E+00 0.  1.
         22   -1    0    0    0    0 -0.00000000000E+00 -0.00000000000E+00 -0.13011501207E+04  0.13011501207E+04  0.00000000000E+00 0.  1.
        -24    2    1    2    0    0 -0.18552457742E+02 -0.58521236544E+02 -0.12168234212E+04  0.12213818274E+04  0.85705316332E+02 0.  0.
         25    2    1    2    0    0 -0.40757804910E+02  0.51931168992E+02 -0.18185949827E+02  0.14260410301E+03  0.12508859441E+03 0.  0.
         24    2    1    2    0    0  0.59310262652E+02  0.65900675518E+01  0.16840742870E+04  0.16873792270E+04  0.87070747551E+02 0.  0.
        -11    1    5    5    0    0  0.62193490440E+01  0.39570791721E+02  0.86324056449E+03  0.86416942785E+03  0.00000000000E+00 0.  1.
         12    1    5    5    0    0  0.53090913608E+02 -0.32980724170E+02  0.82083372256E+03  0.82320979912E+03  0.00000000000E+00 0. -1.
         11    1    3    3    0    0  0.17176311155E+02 -0.22213141081E+02 -0.11488704607E+03  0.11826868840E+03  0.00000000000E+00 0. -1.
        -12    1    3    3    0    0 -0.35728768897E+02 -0.36308095463E+02 -0.11019363751E+04  0.11031131390E+04  0.00000000000E+00 0.  1.
          5    1    4    4  501    0 -0.67544850440E+02  0.30820561457E+01 -0.44290766948E+02  0.80937941214E+02  0.41800000000E+01 0. -1.
         -5    1    4    4    0  501  0.26787045530E+02  0.48849112846E+02  0.26104817121E+02  0.61666161799E+02  0.41800000000E+01 0. -1.
</event>
<event>
11    1  0.8039394E-009  0.1474589E+03  0.7561462E-02  0.1099504E+00
         22   -1    0    0    0    0  0.00000000000E+00  0.00000000000E+00  0.19481929250E+03  0.19481929250E+03  0.00000000000E+00 0.  1.
         22   -1    0    0    0    0 -0.00000000000E+00 -0.00000000000E+00 -0.48079928318E+03  0.48079928318E+03  0.00000000000E+00 0. -1.
         24    2    1    2    0    0  0.45794418611E+01 -0.11886537939E+01 -0.29789029691E+03  0.30915826071E+03  0.82570073196E+02 0.  0.
         25    2    1    2    0    0  0.72582531112E+02  0.16002766765E+02 -0.12351905797E+03  0.19086057260E+03  0.12508592297E+03 0.  0.
        -24    2    1    2    0    0 -0.77161972973E+02 -0.14814112971E+02  0.13542936421E+03  0.17559974237E+03  0.79503011357E+02 0.  0.
        -13    1    3    3    0    0  0.23130790977E+01 -0.41632259377E+02 -0.13407063436E+03  0.14040488009E+03  0.00000000000E+00 0.  1.
         14    1    3    3    0    0  0.22663627634E+01  0.40443605584E+02 -0.16381966255E+03  0.16875338062E+03  0.00000000000E+00 0. -1.
         11    1    5    5    0    0 -0.89913627885E+01  0.93999439914E+01 -0.77787308983E+01  0.15156259638E+02  0.00000000000E+00 0. -1.
        -12    1    5    5    0    0 -0.68170610184E+02 -0.24214056962E+02  0.14320809511E+03  0.16044348273E+03  0.00000000000E+00 0.  1.
          5    1    4    4  501    0  0.40343895772E+02  0.18075888973E+02  0.16295880509E+02  0.47301118484E+02  0.41800000000E+01 0. -1.
         -5    1    4    4    0  501  0.32238635340E+02 -0.20731222086E+01 -0.13981493848E+03  0.14355945412E+03  0.41800000000E+01 0. -1.
</event>
<event>
11    1  0.8039394E-009  0.3540260E+03  0.7561462E-02  0.9796082E-01
         22   -1    0    0    0    0  0.00000000000E+00  0.00000000000E+00  0.21946778686E+03  0.21946778686E+03  0.00000000000E+00 0. -1.
         22   -1    0    0    0    0 -0.00000000000E+00 -0.00000000000E+00 -0.18152549116E+04  0.18152549116E+04  0.00000000000E+00 0. -1.
        -24    2    1    2    0    0  0.43821643622E+02  0.19957841646E+02 -0.12274992049E+04  0.12310439672E+04  0.79976866910E+02 0.  0.
         25    2    1    2    0    0  0.26343748953E+03  0.14656793857E+03 -0.28939081368E+03  0.43620617575E+03  0.12508922100E+03 0.  0.
         24    2    1    2    0    0 -0.30725913315E+03 -0.16652578022E+03 -0.78897106155E+02  0.36747255550E+03  0.81684241482E+02 0.  0.
        -11    1    5    5    0    0 -0.10638349528E+03 -0.34093021092E+02 -0.58246054893E+02  0.12598565420E+03  0.00000000000E+00 0.  1.
         12    1    5    5    0    0 -0.20087563788E+03 -0.13243275913E+03 -0.20651051262E+02  0.24148690130E+03  0.00000000000E+00 0. -1.
         11    1    3    3    0    0 -0.55557568788E+01  0.11576513458E+02 -0.86564199331E+03  0.86573722496E+03  0.00000000000E+00 0. -1.
        -12    1    3    3    0    0  0.49377400501E+02  0.83813281887E+01 -0.36185721163E+03  0.36530674227E+03  0.00000000000E+00 0.  1.
          5    1    4    4  501    0  0.26201274112E+03  0.15637525745E+03 -0.29468538159E+03  0.42421792062E+03  0.41800000000E+01 0.  1.
         -5    1    4    4    0  501  0.14247484119E+01 -0.98073188772E+01  0.52945679131E+01  0.11988255127E+02  0.41800000000E+01 0.  1.
</event>
<event>
11    1  0.8039394E-009  0.1765471E+03  0.7561462E-02  0.1072471E+00
         22   -1    0    0    0    0  0.00000000000E+00  0.00000000000E+00  0.21223316917E+04  0.21223316917E+04  0.00000000000E+00 0.  1.
         22   -1    0    0    0    0 -0.00000000000E+00 -0.00000000000E+00 -0.78785617866E+02  0.78785617866E+02  0.00000000000E+00 0. -1.
         24    2    1    2    0    0 -0.10014358708E+02  0.12402091636E+03  0.42349497722E+02  0.15485356139E+03  0.81882052011E+02 0.  0.
         25    2    1    2    0    0 -0.59011545428E+00 -0.12553521508E+03  0.34244505528E+03  0.38558454611E+03  0.12508951935E+03 0.  0.
        -24    2    1    2    0    0  0.10604474162E+02  0.15142987215E+01  0.16587515208E+04  0.16606792020E+04  0.79272040156E+02 0.  0.
        -11    1    3    3    0    0 -0.28433769187E+02  0.15033021880E+02 -0.83768081261E+01  0.33236153378E+02  0.00000000000E+00 0.  1.
         12    1    3    3    0    0  0.18419410479E+02  0.10898789448E+03  0.50726305848E+02  0.12161740801E+03  0.00000000000E+00 0. -1.
         13    1    5    5    0    0 -0.29344023999E+02 -0.18223953343E+02  0.60404883963E+03  0.60503568893E+03  0.00000000000E+00 0. -1.
        -14    1    5    5    0    0  0.39948498161E+02  0.19738252065E+02  0.10547026812E+04  0.10556435131E+04  0.00000000000E+00 0.  1.
          5    1    4    4  501    0 -0.11564638812E+02  0.24135973289E+02  0.52002424089E+02  0.58634551150E+02  0.41800000000E+01 0.  1.
         -5    1    4    4    0  501  0.10974523357E+02 -0.14967118837E+03  0.29044263119E+03  0.32694999496E+03  0.41800000000E+01 0.  1.
</event>
<event>
11    1  0.8039394E-009  0.1711286E+03  0.7561462E-02  0.1077054E+00
         22   -1    0    0    0    0  0.00000000000E+00  0.00000000000E+00  0.14066496517E+04  0.14066496517E+04  0.00000000000E+00 0. -1.
         22   -1    0    0    0    0 -0.00000000000E+00 -0.00000000000E+00 -0.68937800049E+03  0.68937800049E+03  0.00000000000E+00 0. -1.
        -24    2    1    2    0    0 -0.37021486807E+02 -0.59080290314E+02 -0.65995681982E+03  0.66981815061E+03  0.90842058968E+02 0.  0.
         25    2    1    2    0    0  0.61886533384E+02  0.15888844773E+03  0.55756644226E+03  0.59632511032E+03  0.12509123800E+03 0.  0.
         24    2    1    2    0    0 -0.24865046577E+02 -0.99808157412E+02  0.81966202876E+03  0.82988439126E+03  0.79261104206E+02 0.  0.
        -13    1    5    5    0    0 -0.40840460349E+02 -0.83114114136E+02  0.44621960863E+03  0.45572781164E+03  0.00000000000E+00 0.  1.
         14    1    5    5    0    0  0.15975413771E+02 -0.16694043276E+02  0.37344242013E+03  0.37415657963E+03  0.00000000000E+00 0. -1.
         11    1    3    3    0    0 -0.39495809170E+02 -0.74844171352E+02 -0.63189670522E+03  0.63753824591E+03  0.00000000000E+00 0. -1.
        -12    1    3    3    0    0  0.24743223637E+01  0.15763881038E+02 -0.28060114598E+02  0.32279904705E+02  0.00000000000E+00 0.  1.
          5    1    4    4  501    0 -0.15221520755E+02  0.93126318075E+02  0.38258314880E+03  0.39407048096E+03  0.41800000000E+01 0.  1.
         -5    1    4    4    0  501  0.77108054139E+02  0.65762129651E+02  0.17498329346E+03  0.20225462936E+03  0.41800000000E+01 0.  1.
</event>
<event>
11    1  0.8039394E-009  0.1498251E+03  0.7561462E-02  0.1097058E+00
         22   -1    0    0    0    0  0.00000000000E+00  0.00000000000E+00  0.17546332681E+04  0.17546332681E+04  0.00000000000E+00 0. -1.
         22   -1    0    0    0    0 -0.00000000000E+00 -0.00000000000E+00 -0.18337428069E+03  0.18337428069E+03  0.00000000000E+00 0. -1.
         24    2    1    2    0    0  0.27845829742E+02 -0.75051592724E+02 -0.14282567285E+03  0.18821387128E+03  0.92828641667E+02 0.  0.
         25    2    1    2    0    0 -0.85124442723E+02  0.13897536140E+03  0.71565679746E+03  0.74456181377E+03  0.12508925196E+03 0.  0.
        -24    2    1    2    0    0  0.57278612981E+02 -0.63923768672E+02  0.99842786280E+03  0.10052318637E+04  0.79156900830E+02 0.  0.
        -11    1    3    3    0    0  0.19887886177E+02 -0.30255985409E+02  0.21459672588E+01  0.36270619586E+02  0.00000000000E+00 0.  1.
         12    1    3    3    0    0  0.79579435649E+01 -0.44795607315E+02 -0.14497164011E+03  0.15194325170E+03  0.00000000000E+00 0. -1.
         13    1    5    5    0    0  0.70347692053E+02 -0.24664993230E+02  0.69760434624E+03  0.70157607111E+03  0.00000000000E+00 0. -1.
        -14    1    5    5    0    0 -0.13069079072E+02 -0.39258775441E+02  0.30082351656E+03  0.30365579262E+03  0.00000000000E+00 0.  1.
          5    1    4    4  501    0  0.22438363439E+02  0.78948532546E+02  0.28207712025E+03  0.29380490996E+03  0.41800000000E+01 0.  1.
         -5    1    4    4    0  501 -0.10756280616E+03  0.60026828850E+02  0.43357967720E+03  0.45075690381E+03  0.41800000000E+01 0.  1.
</event>
<event>
11    1  0.8039394E-009  0.1269032E+03  0.7561462E-02  0.1123134E+00
         22   -1    0    0    0    0  0.00000000000E+00  0.00000000000E+00  0.13355400187E+03  0.13355400187E+03  0.00000000000E+00 0.  1.
         22   -1    0    0    0    0 -0.00000000000E+00 -0.00000000000E+00 -0.89133110828E+03  0.89133110828E+03  0.00000000000E+00 0. -1.
        -24    2    1    2    0    0  0.16829921391E+02 -0.14870584761E+02 -0.65887589882E+03  0.66402337983E+03  0.79405405154E+02 0.  0.
         25    2    1    2    0    0 -0.35008514023E+02  0.47738003544E+01 -0.19488715958E+03  0.23426141208E+03  0.12509603910E+03 0.  0.
         24    2    1    2    0    0  0.18178592632E+02  0.10096784407E+02  0.95985951989E+02  0.12660031824E+03  0.79886990896E+02 0.  0.
        -13    1    5    5    0    0 -0.26963006154E+02  0.86397316832E+01  0.67512200552E+02  0.73208919455E+02  0.00000000000E+00 0.  1.
         14    1    5    5    0    0  0.45141598786E+02  0.14570527237E+01  0.28473751437E+02  0.53391398788E+02  0.00000000000E+00 0. -1.
         13    1    3    3    0    0  0.18174938512E+02 -0.13110139012E+02 -0.66074492581E+03  0.66112484534E+03  0.00000000000E+00 0. -1.
        -14    1    3    3    0    0 -0.13450171211E+01 -0.17604457498E+01  0.18690269931E+01  0.28985344909E+01  0.00000000000E+00 0.  1.
          5    1    4    4  501    0  0.38870617823E+01  0.61074063428E+02 -0.87618671445E+02  0.10695632033E+03  0.41800000000E+01 0.  1.
         -5    1    4    4    0  501 -0.38895575805E+02 -0.56300263074E+02 -0.10726848814E+03  0.12730509175E+03  0.41800000000E+01 0.  1.
</event>
<event>
11    1  0.8039394E-009  0.1415738E+03  0.7561462E-02  0.1105814E+00
         22   -1    0    0    0    0  0.00000000000E+00  0.00000000000E+00  0.23786564083E+04  0.23786564083E+04  0.00000000000E+00 0.  1.
         22   -1    0    0    0    0 -0.00000000000E+00 -0.00000000000E+00 -0.73052053546E+03  0.73052053546E+03  0.00000000000E+00 0. -1.
        -24    2    1    2    0    0 -0.18442002212E+02  0.63059216972E+02 -0.69829544591E+03  0.70787821609E+03  0.95699878555E+02 0.  0.
         25    2    1    2    0    0  0.36452943930E+01 -0.97373069406E+02  0.20948328712E+03  0.26273342833E+03  0.12510317328E+03 0.  0.
         24    2    1    2    0    0  0.14796707819E+02  0.34313852435E+02  0.21369480317E+04  0.21385652994E+04  0.74285036259E+02 0.  0.
        -11    1    5    5    0    0  0.13696495104E+02  0.23618815613E+02  0.20975191809E+04  0.20976968696E+04  0.00000000000E+00 0.  1.
         12    1    5    5    0    0  0.11002127154E+01  0.10695036822E+02  0.39428850805E+02  0.40868429826E+02  0.00000000000E+00 0. -1.
         11    1    3    3    0    0 -0.18537953137E+02  0.79433721860E+02 -0.67178117233E+03  0.67671509173E+03  0.00000000000E+00 0. -1.
        -12    1    3    3    0    0  0.95950924114E-01 -0.16374504889E+02 -0.26514273575E+02  0.31163124364E+02  0.00000000000E+00 0.  1.
          5    1    4    4  501    0  0.19230569454E+02 -0.35190238825E+02  0.19195363231E+03  0.19614238978E+03  0.41800000000E+01 0.  1.
         -5    1    4    4    0  501 -0.15585275061E+02 -0.62182830581E+02  0.17529654805E+02  0.66591038552E+02  0.41800000000E+01 0.  1.
</event>
<event>
11    1  0.8039394E-009  0.1486206E+03  0.7561462E-02  0.1098297E+00
         22   -1    0    0    0    0  0.00000000000E+00  0.00000000000E+00  0.16407571314E+04  0.16407571314E+04  0.00000000000E+00 0.  1.
         22   -1    0    0    0    0 -0.00000000000E+00 -0.00000000000E+00 -0.11587769138E+04  0.11587769138E+04  0.00000000000E+00 0. -1.
        -24    2    1    2    0    0  0.10168965013E+02 -0.80087067360E+02 -0.10959949647E+04  0.11018874224E+04  0.80209617797E+02 0.  0.
         25    2    1    2    0    0 -0.13182694011E+02  0.65637782612E+02  0.26927487310E+02  0.14440430302E+03  0.12508161827E+03 0.  0.
         24    2    1    2    0    0  0.30137289984E+01  0.14449284748E+02  0.15510476951E+04  0.15532423198E+04  0.81208909769E+02 0.  0.
        -11    1    5    5    0    0  0.34046917473E+02 -0.16415200472E+02  0.60147175901E+03  0.60265821846E+03  0.00000000000E+00 0.  1.
         12    1    5    5    0    0 -0.31033188474E+02  0.30864485221E+02  0.94957593609E+03  0.95058410130E+03  0.00000000000E+00 0. -1.
         11    1    3    3    0    0 -0.46877965973E+00 -0.91075231523E+02 -0.10351835535E+04  0.10391823261E+04  0.00000000000E+00 0. -1.
        -12    1    3    3    0    0  0.10637744672E+02  0.10988164163E+02 -0.60811411255E+02  0.62705096302E+02  0.00000000000E+00 0.  1.
          5    1    4    4  501    0 -0.28090046998E+02  0.26941417695E+02 -0.46003330046E+02  0.60404217593E+02  0.41800000000E+01 0.  1.
         -5    1    4    4    0  501  0.14907352987E+02  0.38696364917E+02  0.72930817356E+02  0.84000085423E+02  0.41800000000E+01 0.  1.
</event>
<event>
11    1  0.8039394E-009  0.2467500E+03  0.7561462E-02  0.1025645E+00
         22   -1    0    0    0    0  0.00000000000E+00  0.00000000000E+00  0.16013814952E+04  0.16013814952E+04  0.00000000000E+00 0. -1.
         22   -1    0    0    0    0 -0.00000000000E+00 -0.00000000000E+00 -0.10303358287E+03  0.10303358287E+03  0.00000000000E+00 0.  1.
         24    2    1    2    0    0 -0.18669874146E+03  0.10612266509E+03  0.26388198439E+03  0.34957989189E+03  0.80336536021E+02 0.  0.
         25    2    1    2    0    0  0.46750909565E+02 -0.26160017975E+03  0.43868516718E+03  0.52793226810E+03  0.12508997645E+03 0.  0.
        -24    2    1    2    0    0  0.13994783189E+03  0.15547751466E+03  0.79578076081E+03  0.82690291813E+03  0.82114331974E+02 0.  0.
        -13    1    3    3    0    0 -0.68176893356E+01  0.20752825748E+02  0.40273596759E+01  0.22212165369E+02  0.00000000000E+00 0.  1.
         14    1    3    3    0    0 -0.17988105212E+03  0.85369839344E+02  0.25985462471E+03  0.32736772652E+03  0.00000000000E+00 0. -1.
         13    1    5    5    0    0  0.71799959568E+02  0.49264781349E+02  0.46047870412E+03  0.46863940276E+03  0.00000000000E+00 0. -1.
        -14    1    5    5    0    0  0.68147872323E+02  0.10621273331E+03  0.33530205669E+03  0.35826351536E+03  0.00000000000E+00 0.  1.
          5    1    4    4  501    0  0.40181984593E+02 -0.14939428327E+03  0.13968588513E+03  0.20847748719E+03  0.41800000000E+01 0.  1.
         -5    1    4    4    0  501  0.65689249726E+01 -0.11220589648E+03  0.29899928206E+03  0.31945478091E+03  0.41800000000E+01 0.  1.
</event>
<event>
11    1  0.1108448E-008  0.1494537E+04  0.7561462E-02  0.8313208E-01
         22   -1    0    0    0    0  0.00000000000E+00  0.00000000000E+00  0.14057186858E+04  0.14057186858E+04  0.00000000000E+00 0.  1.
         22   -1    0    0    0    0 -0.00000000000E+00 -0.00000000000E+00 -0.23263061579E+04  0.23263061579E+04  0.00000000000E+00 0.  1.
        -24    2    1    2    0    0  0.68138441985E+02  0.56691019952E+02 -0.24136686141E+01  0.12192806004E+03  0.83689348245E+02 0.  0.
         25    2    1    2    0    0  0.51114778345E+03 -0.14063966678E+04 -0.14090982953E+04  0.20592302345E+04  0.12509000329E+03 0.  0.
         24    2    1    2    0    0 -0.57928622544E+03  0.13497056479E+04  0.49092449180E+03  0.15508665492E+04  0.83080262591E+02 0.  0.
        -13    1    5    5    0    0 -0.28302507543E+03  0.58156032462E+03  0.18701677119E+03  0.67326880011E+03  0.00000000000E+00 0.  1.
         14    1    5    5    0    0 -0.29626115001E+03  0.76814532324E+03  0.30390772061E+03  0.87759774913E+03  0.00000000000E+00 0. -1.
         11    1    3    3    0    0  0.44814818922E+01 -0.94491306536E+00  0.29846370950E+02  0.30195734791E+02  0.00000000000E+00 0. -1.
        -12    1    3    3    0    0  0.63656960093E+02  0.57635933017E+02 -0.32260039564E+02  0.91732325250E+02  0.00000000000E+00 0.  1.
          5    1    4    4  501    0  0.51787045212E+03 -0.13871170376E+04 -0.13861265206E+04  0.20282129289E+04  0.41800000000E+01 0. -1.
         -5    1    4    4    0  501 -0.67226686691E+01 -0.19279630204E+02 -0.22971774705E+02  0.31017305620E+02  0.41800000000E+01 0. -1.
</event>
<event>
11    1  0.8039394E-009  0.1510716E+03  0.7561462E-02  0.1095789E+00
         22   -1    0    0    0    0  0.00000000000E+00  0.00000000000E+00  0.13641720395E+04  0.13641720395E+04  0.00000000000E+00 0. -1.
         22   -1    0    0    0    0 -0.00000000000E+00 -0.00000000000E+00 -0.24657817224E+03  0.24657817224E+03  0.00000000000E+00 0. -1.
        -24    2    1    2    0    0 -0.30318189737E+02  0.81776393666E+02 -0.21730633400E+03  0.25189572557E+03  0.92859262172E+02 0.  0.
         25    2    1    2    0    0 -0.16615945776E+02 -0.20833251396E+02  0.47916782918E+03  0.49594353769E+03  0.12509224612E+03 0.  0.
         24    2    1    2    0    0  0.46934135514E+02 -0.60943142270E+02  0.85573237203E+03  0.86291094843E+03  0.80128226760E+02 0.  0.
        -11    1    5    5    0    0  0.53453550055E+02 -0.57566609982E+02  0.43010168392E+03  0.43721694284E+03  0.00000000000E+00 0.  1.
         12    1    5    5    0    0 -0.65194145411E+01 -0.33765322877E+01  0.42563068811E+03  0.42569400559E+03  0.00000000000E+00 0. -1.
         13    1    3    3    0    0 -0.59304182728E+02  0.76369800859E+02 -0.18017802666E+03  0.20448338285E+03  0.00000000000E+00 0. -1.
        -14    1    3    3    0    0  0.28985992990E+02  0.54065928069E+01 -0.37128307345E+02  0.47412342715E+02  0.00000000000E+00 0.  1.
          5    1    4    4  501    0 -0.55260471552E+02 -0.11414404898E+02  0.10184532736E+03  0.11650730218E+03  0.41800000000E+01 0. -1.
         -5    1    4    4    0  501  0.38644525775E+02 -0.94188464980E+01  0.37732250182E+03  0.37943623552E+03  0.41800000000E+01 0. -1.
</event>
<event>
11    1  0.8039394E-009  0.1622598E+03  0.7561462E-02  0.1084971E+00
         22   -1    0    0    0    0  0.00000000000E+00  0.00000000000E+00  0.50015710700E+03  0.50015710700E+03  0.00000000000E+00 0. -1.
         22   -1    0    0    0    0 -0.00000000000E+00 -0.00000000000E+00 -0.26558246107E+03  0.26558246107E+03  0.00000000000E+00 0.  1.
         24    2    1    2    0    0 -0.10308947310E+03 -0.18978353660E+02 -0.20995559579E+03  0.24850987534E+03  0.81781346071E+02 0.  0.
         25    2    1    2    0    0  0.88289006489E+02  0.72270726208E+01  0.16417313899E+03  0.22461802888E+03  0.12511298928E+03 0.  0.
        -24    2    1    2    0    0  0.14800466615E+02  0.11751281039E+02  0.28035710273E+03  0.29261166384E+03  0.81635374377E+02 0.  0.
        -11    1    3    3    0    0 -0.85800524058E+02 -0.33089775667E+02 -0.98152451912E+02  0.13450117843E+03  0.00000000000E+00 0.  1.
         12    1    3    3    0    0 -0.17288949045E+02  0.14111422008E+02 -0.11180314388E+03  0.11400869691E+03  0.00000000000E+00 0. -1.
         13    1    5    5    0    0 -0.21332480675E+02 -0.24174043285E+02  0.92055922745E+02  0.97538464274E+02  0.00000000000E+00 0. -1.
        -14    1    5    5    0    0  0.36132947290E+02  0.35925324324E+02  0.18830117998E+03  0.19507319957E+03  0.00000000000E+00 0.  1.
          5    1    4    4  501    0  0.83640842909E+02  0.34803825453E+02  0.17271720748E+03  0.19507896614E+03  0.41800000000E+01 0. -1.
         -5    1    4    4    0  501  0.46481635797E+01 -0.27576752832E+02 -0.85440684913E+01  0.29539062744E+02  0.41800000000E+01 0. -1.
</event>
<event>
11    1  0.8039394E-009  0.3619967E+03  0.7561462E-02  0.9769062E-01
         22   -1    0    0    0    0  0.00000000000E+00  0.00000000000E+00  0.12863690663E+04  0.12863690663E+04  0.00000000000E+00 0. -1.
         22   -1    0    0    0    0 -0.00000000000E+00 -0.00000000000E+00 -0.96407265414E+03  0.96407265414E+03  0.00000000000E+00 0.  1.
        -24    2    1    2    0    0 -0.45224039323E+02  0.77231501295E+02 -0.56482891977E+03  0.57757192232E+03  0.80917849240E+02 0.  0.
         25    2    1    2    0    0  0.22998485861E+02 -0.41134389712E+03 -0.24104929599E+03  0.49344171921E+03  0.12508890881E+03 0.  0.
         24    2    1    2    0    0  0.22225553463E+02  0.33411239582E+03  0.11281746279E+04  0.11794280789E+04  0.78406211419E+02 0.  0.
        -13    1    5    5    0    0  0.37825009728E+02  0.71995924434E+02  0.26733074483E+03  0.27942775744E+03  0.00000000000E+00 0.  1.
         14    1    5    5    0    0 -0.15599456266E+02  0.26211647139E+03  0.86084388307E+03  0.90000032146E+03  0.00000000000E+00 0. -1.
         11    1    3    3    0    0  0.11999385562E+02 -0.50589968090E+01 -0.21985591426E+02  0.25552787185E+02  0.00000000000E+00 0. -1.
        -12    1    3    3    0    0 -0.57223424885E+02  0.82290498105E+02 -0.54284332834E+03  0.55201913514E+03  0.00000000000E+00 0.  1.
          5    1    4    4  501    0 -0.64259887925E+01 -0.29365470475E+03 -0.22701067353E+03  0.37124883467E+03  0.41800000000E+01 0. -1.
         -5    1    4    4    0  501  0.29424474653E+02 -0.11768919237E+03 -0.14038622466E+02  0.12219288454E+03  0.41800000000E+01 0. -1.
</event>
<event>
11    1  0.8039394E-009  0.1481194E+03  0.7561462E-02  0.1098816E+00
         22   -1    0    0    0    0  0.00000000000E+00  0.00000000000E+00  0.80365878774E+02  0.80365878774E+02  0.00000000000E+00 0. -1.
         22   -1    0    0    0    0 -0.00000000000E+00 -0.00000000000E+00 -0.12437475976E+04  0.12437475976E+04  0.00000000000E+00 0.  1.
         24    2    1    2    0    0 -0.75850657129E+02 -0.32201167000E+02 -0.66795743678E+03  0.67765689647E+03  0.79129606627E+02 0.  0.
         25    2    1    2    0    0  0.59407845813E+02  0.45353255049E+02 -0.53531386246E+03  0.55479266769E+03  0.12509101842E+03 0.  0.
        -24    2    1    2    0    0  0.16442811316E+02 -0.13152088049E+02  0.39889580408E+02  0.91663912218E+02  0.79798187410E+02 0.  0.
        -11    1    3    3    0    0 -0.59375173260E+02 -0.57690914716E+02 -0.52758199195E+03  0.53403783674E+03  0.00000000000E+00 0.  1.
         12    1    3    3    0    0 -0.16475483869E+02  0.25489747716E+02 -0.14037544483E+03  0.14361905973E+03  0.00000000000E+00 0. -1.
         13    1    5    5    0    0  0.51590827963E+01 -0.46750563416E+02  0.21128226579E+02  0.51561936284E+02  0.00000000000E+00 0. -1.
        -14    1    5    5    0    0  0.11283728520E+02  0.33598475367E+02  0.18761353829E+02  0.40101975934E+02  0.00000000000E+00 0.  1.
          5    1    4    4  501    0  0.86436628847E+02  0.58933319315E+02 -0.30514662124E+03  0.32260867903E+03  0.41800000000E+01 0. -1.
         -5    1    4    4    0  501 -0.27028783034E+02 -0.13580064265E+02 -0.23016724122E+03  0.23218398866E+03  0.41800000000E+01 0. -1.
</event>
<event>
11    1  0.8039394E-009  0.1449056E+03  0.7561462E-02  0.1102201E+00
         22   -1    0    0    0    0  0.00000000000E+00  0.00000000000E+00  0.57460025316E+03  0.57460025316E+03  0.00000000000E+00 0. -1.
         22   -1    0    0    0    0 -0.00000000000E+00 -0.00000000000E+00 -0.63046941036E+03  0.63046941036E+03  0.00000000000E+00 0. -1.
        -24    2    1    2    0    0 -0.44499736003E+01 -0.29815280549E+02 -0.57173635614E+03  0.57812023182E+03  0.80198430659E+02 0.  0.
         25    2    1    2    0    0 -0.68879855240E+02  0.20135834706E+02  0.57115607841E+02  0.15514731941E+03  0.12513437483E+03 0.  0.
         24    2    1    2    0    0  0.73329828841E+02  0.96794458430E+01  0.45875159109E+03  0.47180211230E+03  0.81689995517E+02 0.  0.
        -13    1    5    5    0    0  0.36086850549E+02  0.16201215071E+02  0.63958311668E+02  0.75202432033E+02  0.00000000000E+00 0.  1.
         14    1    5    5    0    0  0.37242978292E+02 -0.65217692277E+01  0.39479327942E+03  0.39659968026E+03  0.00000000000E+00 0. -1.
         11    1    3    3    0    0 -0.28932112402E+02 -0.12635341551E+02 -0.49113562421E+03  0.49214928665E+03  0.00000000000E+00 0. -1.
        -12    1    3    3    0    0  0.24482138801E+02 -0.17179938997E+02 -0.80600731933E+02  0.85970945164E+02  0.00000000000E+00 0.  1.
          5    1    4    4  501    0 -0.13877398547E+02  0.60769778202E+02  0.59938565678E+02  0.86577434639E+02  0.41800000000E+01 0.  1.
         -5    1    4    4    0  501 -0.55002456694E+02 -0.40633943496E+02 -0.28229578374E+01  0.68569884770E+02  0.41800000000E+01 0.  1.
</event>
<event>
11    1  0.8039394E-009  0.1317085E+03  0.7561462E-02  0.1117187E+00
         22   -1    0    0    0    0  0.00000000000E+00  0.00000000000E+00  0.13569014529E+03  0.13569014529E+03  0.00000000000E+00 0. -1.
         22   -1    0    0    0    0 -0.00000000000E+00 -0.00000000000E+00 -0.45811659806E+03  0.45811659806E+03  0.00000000000E+00 0. -1.
         24    2    1    2    0    0  0.10494109913E+02 -0.20804386319E+02 -0.33128239911E+03  0.34164678397E+03  0.80196933881E+02 0.  0.
         25    2    1    2    0    0  0.25401699171E+02  0.40293840295E+02 -0.52363432434E+02  0.14372872645E+03  0.12508868000E+03 0.  0.
        -24    2    1    2    0    0 -0.35895809084E+02 -0.19489453976E+02  0.61219378764E+02  0.10843123293E+03  0.79631476271E+02 0.  0.
        -13    1    3    3    0    0  0.22269252808E+02 -0.24119701451E+01 -0.21345260561E+02  0.30941192107E+02  0.00000000000E+00 0.  1.
         14    1    3    3    0    0 -0.11775142894E+02 -0.18392416174E+02 -0.30993713854E+03  0.31070559186E+03  0.00000000000E+00 0. -1.
         13    1    5    5    0    0 -0.23132079952E+02 -0.31011250285E+02  0.76307708544E+02  0.85554994888E+02  0.00000000000E+00 0. -1.
        -14    1    5    5    0    0 -0.12763729132E+02  0.11521796310E+02 -0.15088329779E+02  0.22876238045E+02  0.00000000000E+00 0.  1.
          5    1    4    4  501    0  0.68965145208E+02  0.37672701648E+02 -0.60341881309E+02  0.99166721953E+02  0.41800000000E+01 0. -1.
         -5    1    4    4    0  501 -0.43563446037E+02  0.26211386472E+01  0.79784488746E+01  0.44562004498E+02  0.41800000000E+01 0. -1.
</event>
<event>
11    1  0.8039394E-009  0.1843845E+03  0.7561462E-02  0.1066150E+00
         22   -1    0    0    0    0  0.00000000000E+00  0.00000000000E+00  0.10357135955E+03  0.10357135955E+03  0.00000000000E+00 0.  1.
         22   -1    0    0    0    0 -0.00000000000E+00 -0.00000000000E+00 -0.98102609887E+03  0.98102609887E+03  0.00000000000E+00 0. -1.
        -24    2    1    2    0    0 -0.41575388469E+02  0.12839691286E+03 -0.76639166873E+03  0.78238956924E+03  0.81012147236E+02 0.  0.
         25    2    1    2    0    0  0.43420192785E+02 -0.13345520759E+03 -0.36429935560E+02  0.19149420621E+03  0.12508910917E+03 0.  0.
         24    2    1    2    0    0 -0.18448043158E+01  0.50582947212E+01 -0.74633135026E+02  0.11071368298E+03  0.81599173439E+02 0.  0.
        -13    1    5    5    0    0  0.30256639480E+02  0.21227855203E+02 -0.12655101435E+02  0.39067091797E+02  0.00000000000E+00 0.  1.
         14    1    5    5    0    0 -0.32101443795E+02 -0.16169560482E+02 -0.61978033591E+02  0.71646591180E+02  0.00000000000E+00 0. -1.
         11    1    3    3    0    0 -0.23394446714E+02  0.13567781473E+03 -0.68146090802E+03  0.69522998980E+03  0.00000000000E+00 0. -1.
        -12    1    3    3    0    0 -0.18180941755E+02 -0.72809018645E+01 -0.84930760705E+02  0.87159579445E+02  0.00000000000E+00 0.  1.
          5    1    4    4  501    0 -0.32594159635E+01 -0.13900421310E+03 -0.38240510006E+02  0.14426574111E+03  0.41800000000E+01 0.  1.
         -5    1    4    4    0  501  0.46679608749E+02  0.55490055189E+01  0.18105744466E+01  0.47228465093E+02  0.41800000000E+01 0.  1.
</event>
<event>
11    1  0.8039394E-009  0.1375485E+03  0.7561462E-02  0.1110327E+00
         22   -1    0    0    0    0  0.00000000000E+00  0.00000000000E+00  0.20648393891E+03  0.20648393891E+03  0.00000000000E+00 0. -1.
         22   -1    0    0    0    0 -0.00000000000E+00 -0.00000000000E+00 -0.11195991482E+04  0.11195991482E+04  0.00000000000E+00 0.  1.
        -24    2    1    2    0    0  0.39799377712E+02  0.44706764402E+02 -0.97871040115E+03  0.98406128874E+03  0.83185848698E+02 0.  0.
         25    2    1    2    0    0  0.14071942306E+02 -0.41153907857E+02 -0.89234401163E+02  0.15969321582E+03  0.12508989222E+03 0.  0.
         24    2    1    2    0    0 -0.53871320018E+02 -0.35528565443E+01  0.15482959304E+03  0.18232858254E+03  0.79729337256E+02 0.  0.
        -11    1    5    5    0    0  0.72585426192E+01  0.20892218405E+02  0.12250524712E+02  0.25283326256E+02  0.00000000000E+00 0.  1.
         12    1    5    5    0    0 -0.61129862637E+02 -0.24445074950E+02  0.14257906833E+03  0.15704525628E+03  0.00000000000E+00 0. -1.
         13    1    3    3    0    0  0.63690221442E+02  0.24645198727E+02 -0.77135365625E+03  0.77437090153E+03  0.00000000000E+00 0. -1.
        -14    1    3    3    0    0 -0.23890843730E+02  0.20061565675E+02 -0.20735674491E+03  0.20969038721E+03  0.00000000000E+00 0.  1.
          5    1    4    4  501    0  0.67596213516E+02 -0.26528015496E+02 -0.30753265459E+02  0.78969737395E+02  0.41800000000E+01 0. -1.
         -5    1    4    4    0  501 -0.53524271211E+02 -0.14625892362E+02 -0.58481135704E+02  0.80723478427E+02  0.41800000000E+01 0. -1.
</event>
<event>
11    1  0.8039394E-009  0.1352769E+03  0.7561462E-02  0.1112950E+00
         22   -1    0    0    0    0  0.00000000000E+00  0.00000000000E+00  0.53339867935E+03  0.53339867935E+03  0.00000000000E+00 0.  1.
         22   -1    0    0    0    0 -0.00000000000E+00 -0.00000000000E+00 -0.10083026721E+03  0.10083026721E+03  0.00000000000E+00 0.  1.
        -24    2    1    2    0    0  0.32693176698E+02  0.40543150956E+02 -0.22936635757E+02  0.97424906867E+02  0.79075484989E+02 0.  0.
         25    2    1    2    0    0 -0.56320083164E+02 -0.75508020456E+02  0.15034573684E+03  0.21708229858E+03  0.12508985111E+03 0.  0.
         24    2    1    2    0    0  0.23626906466E+02  0.34964869500E+02  0.30515931106E+03  0.31972174111E+03  0.85551234984E+02 0.  0.
        -11    1    5    5    0    0  0.16017439931E+02  0.11343984890E+02  0.28995406044E+03  0.29061762084E+03  0.00000000000E+00 0.  1.
         12    1    5    5    0    0  0.76094665356E+01  0.23620884610E+02  0.15205250616E+02  0.29104120275E+02  0.00000000000E+00 0. -1.
         11    1    3    3    0    0  0.18098523659E+02 -0.23952716823E+00  0.26249398023E+02  0.31884868331E+02  0.00000000000E+00 0. -1.
        -12    1    3    3    0    0  0.14594653038E+02  0.40782678124E+02 -0.49186033780E+02  0.65540038536E+02  0.00000000000E+00 0.  1.
          5    1    4    4  501    0 -0.54567955925E+01 -0.33203598516E+02 -0.16383754831E+02  0.37658404041E+02  0.41800000000E+01 0.  1.
         -5    1    4    4    0  501 -0.50863287571E+02 -0.42304421939E+02  0.16672949167E+03  0.17942389454E+03  0.41800000000E+01 0.  1.
</event>
<event>
11    1  0.8039394E-009  0.1380335E+03  0.7561462E-02  0.1109774E+00
         22   -1    0    0    0    0  0.00000000000E+00  0.00000000000E+00  0.75033347253E+03  0.75033347253E+03  0.00000000000E+00 0.  1.
         22   -1    0    0    0    0 -0.00000000000E+00 -0.00000000000E+00 -0.11538536764E+04  0.11538536764E+04  0.00000000000E+00 0.  1.
         24    2    1    2    0    0 -0.92613098550E+01 -0.52949984993E+02 -0.11289780347E+04  0.11335628656E+04  0.86509506726E+02 0.  0.
         25    2    1    2    0    0 -0.29919619058E+02 -0.54814107850E+01  0.22741139268E+03  0.26132095861E+03  0.12508985739E+03 0.  0.
        -24    2    1    2    0    0  0.39180928913E+02  0.58431395778E+02  0.49804643809E+03  0.50930332475E+03  0.79939032409E+02 0.  0.
        -11    1    3    3    0    0  0.96686829696E+01 -0.63557721652E+02 -0.10396942458E+04  0.10416799854E+04  0.00000000000E+00 0.  1.
         12    1    3    3    0    0 -0.18929992825E+02  0.10607736660E+02 -0.89283788920E+02  0.91882880175E+02  0.00000000000E+00 0. -1.
         13    1    5    5    0    0 -0.56328338248E+01  0.26203759169E+02  0.41307515133E+02  0.49241005452E+02  0.00000000000E+00 0. -1.
        -14    1    5    5    0    0  0.44813762738E+02  0.32227636609E+02  0.45673892296E+03  0.46006231930E+03  0.00000000000E+00 0.  1.
          5    1    4    4  501    0 -0.58945394909E+02  0.40414881565E+02  0.10224118649E+03  0.12481448172E+03  0.41800000000E+01 0. -1.
         -5    1    4    4    0  501  0.29025775851E+02 -0.45896292350E+02  0.12517020619E+03  0.13650647689E+03  0.41800000000E+01 0. -1.
</event>
<event>
11    1  0.8039394E-009  0.1331657E+03  0.7561462E-02  0.1115439E+00
         22   -1    0    0    0    0  0.00000000000E+00  0.00000000000E+00  0.75850117588E+03  0.75850117588E+03  0.00000000000E+00 0.  1.
         22   -1    0    0    0    0 -0.00000000000E+00 -0.00000000000E+00 -0.44794054887E+03  0.44794054887E+03  0.00000000000E+00 0. -1.
        -24    2    1    2    0    0 -0.98611189022E+01  0.43983945251E+02 -0.37914461982E+03  0.39197260630E+03  0.88656935675E+02 0.  0.
         25    2    1    2    0    0  0.44639728645E+02 -0.43718832280E+02  0.22740753925E+02  0.14166212140E+03  0.12508786144E+03 0.  0.
         24    2    1    2    0    0 -0.34778609743E+02 -0.26511297048E+00  0.66696449291E+03  0.67280699705E+03  0.81351081727E+02 0.  0.
        -13    1    5    5    0    0 -0.98498718806E+01  0.10258713772E+02  0.60529695935E+03  0.60546401229E+03  0.00000000000E+00 0.  1.
         14    1    5    5    0    0 -0.24928737862E+02 -0.10523826743E+02  0.61667533560E+02  0.67342984758E+02  0.00000000000E+00 0. -1.
         11    1    3    3    0    0  0.27074153809E+02  0.28028544802E+02 -0.30618193280E+03  0.30865188336E+03  0.00000000000E+00 0. -1.
        -12    1    3    3    0    0 -0.36935272711E+02  0.15955400449E+02 -0.72962687019E+02  0.83320722937E+02  0.00000000000E+00 0.  1.
          5    1    4    4  501    0  0.78382250747E+02 -0.36929171789E+02  0.47647933711E+02  0.98971404699E+02  0.41800000000E+01 0.  1.
         -5    1    4    4    0  501 -0.33742522101E+02 -0.67896604908E+01 -0.24907179786E+02  0.42690716699E+02  0.41800000000E+01 0.  1.
</event>
<event>
11    1  0.8039394E-009  0.1423288E+03  0.7561462E-02  0.1104985E+00
         22   -1    0    0    0    0  0.00000000000E+00  0.00000000000E+00  0.38943630682E+03  0.38943630682E+03  0.00000000000E+00 0. -1.
         22   -1    0    0    0    0 -0.00000000000E+00 -0.00000000000E+00 -0.56459914771E+03  0.56459914771E+03  0.00000000000E+00 0.  1.
         24    2    1    2    0    0 -0.17889374820E+02  0.68294485021E+02 -0.49488850931E+03  0.50651064789E+03  0.81573484462E+02 0.  0.
         25    2    1    2    0    0  0.30409450696E+02 -0.25018577092E+02  0.20475536121E+02  0.13273406330E+03  0.12509364528E+03 0.  0.
        -24    2    1    2    0    0 -0.12520075876E+02 -0.43275907930E+02  0.29925013229E+03  0.31479074333E+03  0.86677643623E+02 0.  0.
        -13    1    3    3    0    0 -0.41094430224E+02  0.56317108820E+02 -0.22989068351E+03  0.24022925572E+03  0.00000000000E+00 0.  1.
         14    1    3    3    0    0  0.23205055404E+02  0.11977376201E+02 -0.26499782580E+03  0.26628139217E+03  0.00000000000E+00 0. -1.
         13    1    5    5    0    0 -0.35247965990E+02 -0.58762972027E+02  0.18517118771E+03  0.19744334566E+03  0.00000000000E+00 0. -1.
        -14    1    5    5    0    0  0.22727890113E+02  0.15487064097E+02  0.11407894458E+03  0.11734739767E+03  0.00000000000E+00 0.  1.
          5    1    4    4  501    0  0.72767782582E+02 -0.35742511327E+02 -0.61220259287E+01  0.81410250579E+02  0.41800000000E+01 0.  1.
         -5    1    4    4    0  501 -0.42358331885E+02  0.10723934235E+02  0.26597562050E+02  0.51323812725E+02  0.41800000000E+01 0.  1.
</event>
<event>
11    1  0.8039394E-009  0.1301868E+03  0.7561462E-02  0.1119040E+00
         22   -1    0    0    0    0  0.00000000000E+00  0.00000000000E+00  0.77215886931E+03  0.77215886931E+03  0.00000000000E+00 0. -1.
         22   -1    0    0    0    0 -0.00000000000E+00 -0.00000000000E+00 -0.97017868843E+02  0.97017868843E+02  0.00000000000E+00 0. -1.
        -24    2    1    2    0    0  0.30219369201E+02 -0.16665374179E+02 -0.54169119216E+02  0.99859622978E+02  0.76463755161E+02 0.  0.
         25    2    1    2    0    0 -0.43192618583E+02  0.37225023787E+02  0.27594657999E+03  0.30829498228E+03  0.12509187183E+03 0.  0.
         24    2    1    2    0    0  0.12973249382E+02 -0.20559649608E+02  0.45336353970E+03  0.46102213289E+03  0.80074362312E+02 0.  0.
        -11    1    5    5    0    0 -0.29490135313E+02 -0.14776928612E+02  0.10569942880E+03  0.11072666773E+03  0.00000000000E+00 0.  1.
         12    1    5    5    0    0  0.42463384695E+02 -0.57827209959E+01  0.34766411090E+03  0.35029546516E+03  0.00000000000E+00 0. -1.
         11    1    3    3    0    0  0.13590834724E+01  0.10145172334E+02 -0.59262354287E+02  0.60139822624E+02  0.00000000000E+00 0. -1.
        -12    1    3    3    0    0  0.28860285729E+02 -0.26810546513E+02  0.50932350714E+01  0.39719800354E+02  0.00000000000E+00 0.  1.
          5    1    4    4  501    0 -0.35213707319E+02  0.71740847103E+02  0.25424109370E+03  0.26653847837E+03  0.41800000000E+01 0. -1.
         -5    1    4    4    0  501 -0.79789112634E+01 -0.34515823316E+02  0.21705486290E+02  0.41756503915E+02  0.41800000000E+01 0. -1.
</event>
<event>
11    1  0.8039394E-009  0.1279030E+03  0.7561462E-02  0.1121873E+00
         22   -1    0    0    0    0  0.00000000000E+00  0.00000000000E+00  0.91057013944E+03  0.91057013944E+03  0.00000000000E+00 0. -1.
         22   -1    0    0    0    0 -0.00000000000E+00 -0.00000000000E+00 -0.96597127120E+03  0.96597127120E+03  0.00000000000E+00 0. -1.
         24    2    1    2    0    0  0.17970109653E+02 -0.20875590245E+02 -0.75055442893E+03  0.75512077859E+03  0.78209490282E+02 0.  0.
         25    2    1    2    0    0 -0.35413241666E+02 -0.79281432565E+01 -0.19128066015E+03  0.23141452277E+03  0.12508971685E+03 0.  0.
        -24    2    1    2    0    0  0.17443132014E+02  0.28803733501E+02  0.88643395732E+03  0.89000610928E+03  0.72192769350E+02 0.  0.
        -13    1    3    3    0    0  0.84851886156E+01  0.27955108649E+02 -0.39850654689E+03  0.39957596830E+03  0.00000000000E+00 0.  1.
         14    1    3    3    0    0  0.94849210370E+01 -0.48830698894E+02 -0.35204788203E+03  0.35554481029E+03  0.00000000000E+00 0. -1.
         13    1    5    5    0    0 -0.12916925537E+02  0.43858069676E+02  0.49314525586E+03  0.49526015448E+03  0.00000000000E+00 0. -1.
        -14    1    5    5    0    0  0.30360057550E+02 -0.15054336175E+02  0.39328870146E+03  0.39474595480E+03  0.00000000000E+00 0.  1.
          5    1    4    4  501    0  0.13429825316E+02  0.32609939018E+02 -0.15322837358E+03  0.15729009887E+03  0.41800000000E+01 0.  1.
         -5    1    4    4    0  501 -0.48843066982E+02 -0.40538082274E+02 -0.38052286569E+02  0.74124423909E+02  0.41800000000E+01 0.  1.
</event>
<event>
11    1  0.8039394E-009  0.1386118E+03  0.7561462E-02  0.1109119E+00
         22   -1    0    0    0    0  0.00000000000E+00  0.00000000000E+00  0.12940770859E+04  0.12940770859E+04  0.00000000000E+00 0.  1.
         22   -1    0    0    0    0 -0.00000000000E+00 -0.00000000000E+00 -0.77241768126E+02  0.77241768126E+02  0.00000000000E+00 0. -1.
         24    2    1    2    0    0 -0.51159131198E+02  0.29215179692E+02 -0.26100867012E+02  0.10299862843E+03  0.80353461471E+02 0.  0.
         25    2    1    2    0    0  0.45374980685E+02 -0.62782311858E+02  0.53842220749E+03  0.55816368286E+03  0.12509083014E+03 0.  0.
        -24    2    1    2    0    0  0.57841505132E+01  0.33567132166E+02  0.70451397727E+03  0.71015654272E+03  0.82596381470E+02 0.  0.
        -11    1    3    3    0    0 -0.62080916418E+02  0.39448750165E+02 -0.74876460525E+00  0.73558172363E+02  0.00000000000E+00 0.  1.
         12    1    3    3    0    0  0.10921785220E+02 -0.10233570472E+02 -0.25352102407E+02  0.29440456068E+02  0.00000000000E+00 0. -1.
         13    1    5    5    0    0  0.29854799188E+02  0.45283192169E+02  0.59295348329E+03  0.59542901330E+03  0.00000000000E+00 0. -1.
        -14    1    5    5    0    0 -0.24070648675E+02 -0.11716060003E+02  0.11156049398E+03  0.11472752942E+03  0.00000000000E+00 0.  1.
          5    1    4    4  501    0  0.78369717455E+02 -0.21737630364E+02  0.42894455403E+03  0.43660650479E+03  0.41800000000E+01 0. -1.
         -5    1    4    4    0  501 -0.32994736770E+02 -0.41044681494E+02  0.10947765346E+03  0.12155717807E+03  0.41800000000E+01 0. -1.
</event>
<event>
11    1  0.8701933E-009  0.3301866E+03  0.7561462E-02  0.9881675E-01
         22   -1    0    0    0    0  0.00000000000E+00  0.00000000000E+00  0.86862144968E+03  0.86862144968E+03  0.00000000000E+00 0. -1.
         22   -1    0    0    0    0 -0.00000000000E+00 -0.00000000000E+00 -0.36681093495E+03  0.36681093495E+03  0.00000000000E+00 0. -1.
         24    2    1    2    0    0  0.45104472280E+02  0.62876791975E+01 -0.25392062096E+02  0.96124722206E+02  0.80754300643E+02 0.  0.
         25    2    1    2    0    0  0.12041232487E+03  0.25445278687E+03 -0.18465665105E+03  0.35915343636E+03  0.12509102023E+03 0.  0.
        -24    2    1    2    0    0 -0.16551679715E+03 -0.26074046607E+03  0.71185922788E+03  0.78015422607E+03  0.80719609432E+02 0.  0.
        -11    1    3    3    0    0  0.34711694775E+02 -0.26766878128E+02  0.11698085393E+02  0.45367529366E+02  0.00000000000E+00 0.  1.
         12    1    3    3    0    0  0.10392777505E+02  0.33054557326E+02 -0.37090147489E+02  0.50757192840E+02  0.00000000000E+00 0. -1.
         13    1    5    5    0    0  0.74146824513E+01 -0.90681265209E+01  0.48387803358E+02  0.49785419032E+02  0.00000000000E+00 0. -1.
        -14    1    5    5    0    0 -0.17293147960E+03 -0.25167233954E+03  0.66347142452E+03  0.73036880703E+03  0.00000000000E+00 0.  1.
          5    1    4    4  501    0  0.72569589294E+01  0.14451194283E+03 -0.12213580877E+03  0.18939639188E+03  0.41800000000E+01 0.  1.
         -5    1    4    4    0  501  0.11315536594E+03  0.10994084404E+03 -0.62520842279E+02  0.16975704447E+03  0.41800000000E+01 0.  1.
</event>
<event>
11    1  0.8039394E-009  0.1441715E+03  0.7561462E-02  0.1102988E+00
         22   -1    0    0    0    0  0.00000000000E+00  0.00000000000E+00  0.49938446266E+03  0.49938446266E+03  0.00000000000E+00 0.  1.
         22   -1    0    0    0    0 -0.00000000000E+00 -0.00000000000E+00 -0.92429725752E+02  0.92429725752E+02  0.00000000000E+00 0.  1.
        -24    2    1    2    0    0  0.10184555367E+02  0.57334808558E+02  0.35209585271E+02  0.10586681879E+03  0.81099093617E+02 0.  0.
         25    2    1    2    0    0  0.19205307834E+02 -0.11386384022E+03  0.10474658110E+03  0.19988841623E+03  0.12509881987E+03 0.  0.
         24    2    1    2    0    0 -0.29389863202E+02  0.56529031661E+02  0.26699857054E+03  0.28605895340E+03  0.80512065349E+02 0.  0.
        -13    1    5    5    0    0  0.17791778607E+02  0.52266248243E+02  0.13783069223E+03  0.14847763404E+03  0.00000000000E+00 0.  1.
         14    1    5    5    0    0 -0.47181641809E+02  0.42627834182E+01  0.12916787832E+03  0.13758131935E+03  0.00000000000E+00 0. -1.
         13    1    3    3    0    0  0.36107903278E+02  0.33472591072E+01 -0.25769152328E+00  0.36263635057E+02  0.00000000000E+00 0. -1.
        -14    1    3    3    0    0 -0.25923347911E+02  0.53987549451E+02  0.35467276794E+02  0.69603183733E+02  0.00000000000E+00 0.  1.
          5    1    4    4  501    0  0.68498720656E+02 -0.45652047504E+02  0.72148457739E+02  0.10954020507E+03  0.41800000000E+01 0.  1.
         -5    1    4    4    0  501 -0.49293412822E+02 -0.68211792715E+02  0.32598123359E+02  0.90348211158E+02  0.41800000000E+01 0.  1.
</event>
<event>
11    1  0.8039394E-009  0.1307155E+03  0.7561462E-02  0.1118393E+00
         22   -1    0    0    0    0  0.00000000000E+00  0.00000000000E+00  0.10877931888E+04  0.10877931888E+04  0.00000000000E+00 0.  1.
         22   -1    0    0    0    0 -0.00000000000E+00 -0.00000000000E+00 -0.23694318764E+04  0.23694318764E+04  0.00000000000E+00 0. -1.
         24    2    1    2    0    0  0.30942387810E+02  0.39531382246E+02 -0.22913921689E+04  0.22933483884E+04  0.80303158946E+02 0.  0.
         25    2    1    2    0    0 -0.67226018514E+02 -0.44588263565E+02  0.18204781069E+00  0.14884584529E+03  0.12509037415E+03 0.  0.
        -24    2    1    2    0    0  0.36283630704E+02  0.50568813192E+01  0.10095714335E+04  0.10150308316E+04  0.98544588200E+02 0.  0.
        -13    1    3    3    0    0  0.23689191838E+02 -0.68900928972E+01 -0.21281003085E+03  0.21423529219E+03  0.00000000000E+00 0.  1.
         14    1    3    3    0    0  0.72531959722E+01  0.46421475143E+02 -0.20785821380E+04  0.20791130962E+04  0.00000000000E+00 0. -1.
         13    1    5    5    0    0  0.17988412941E+02 -0.43044826475E+02  0.30110156186E+03  0.30469425764E+03  0.00000000000E+00 0. -1.
        -14    1    5    5    0    0  0.18295217763E+02  0.48101707794E+02  0.70846987162E+03  0.71033657394E+03  0.00000000000E+00 0.  1.
          5    1    4    4  501    0 -0.66748084920E+01  0.38101792639E+02  0.20951167643E+02  0.44189631095E+02  0.41800000000E+01 0.  1.
         -5    1    4    4    0  501 -0.60551210022E+02 -0.82690056205E+02 -0.20769119832E+02  0.10465621419E+03  0.41800000000E+01 0.  1.
</event>
<event>
11    1  0.8039394E-009  0.1501156E+03  0.7561462E-02  0.1096761E+00
         22   -1    0    0    0    0  0.00000000000E+00  0.00000000000E+00  0.36099342973E+03  0.36099342973E+03  0.00000000000E+00 0.  1.
         22   -1    0    0    0    0 -0.00000000000E+00 -0.00000000000E+00 -0.11227868960E+04  0.11227868960E+04  0.00000000000E+00 0. -1.
         24    2    1    2    0    0  0.29454397169E+02  0.78103551726E+02 -0.10718997475E+04  0.10778137100E+04  0.75799726050E+02 0.  0.
         25    2    1    2    0    0  0.17449761082E+02 -0.72164909046E+02  0.90078668142E+02  0.17109654726E+03  0.12509034243E+03 0.  0.
        -24    2    1    2    0    0 -0.46904158252E+02 -0.59386426803E+01  0.22002761305E+03  0.23487006852E+03  0.67205141490E+02 0.  0.
        -11    1    3    3    0    0  0.16386786576E+02  0.18920425021E+02 -0.74863891674E+02  0.78937389960E+02  0.00000000000E+00 0.  1.
         12    1    3    3    0    0  0.13067610594E+02  0.59183126705E+02 -0.99703585580E+03  0.99887632001E+03  0.00000000000E+00 0. -1.
         13    1    5    5    0    0 -0.50283139549E+02 -0.28499847452E+02  0.13537060783E+03  0.14719319580E+03  0.00000000000E+00 0. -1.
        -14    1    5    5    0    0  0.33789812972E+01  0.22561204772E+02  0.84657005226E+02  0.87676872715E+02  0.00000000000E+00 0.  1.
          5    1    4    4  501    0 -0.33633089220E+02  0.16185002132E+02  0.44677678711E+01  0.37822907533E+02  0.41800000000E+01 0. -1.
         -5    1    4    4    0  501  0.51082850302E+02 -0.88349911178E+02  0.85610900271E+02  0.13327363972E+03  0.41800000000E+01 0. -1.
</event>
<event>
11    1  0.8039394E-009  0.2238247E+03  0.7561462E-02  0.1038848E+00
         22   -1    0    0    0    0  0.00000000000E+00  0.00000000000E+00  0.70710004084E+03  0.70710004084E+03  0.00000000000E+00 0.  1.
         22   -1    0    0    0    0 -0.00000000000E+00 -0.00000000000E+00 -0.16147502930E+04  0.16147502930E+04  0.00000000000E+00 0. -1.
        -24    2    1    2    0    0  0.10162064732E+02 -0.18379056888E+03 -0.12670519419E+04  0.12832654951E+04  0.86414503779E+02 0.  0.
         25    2    1    2    0    0 -0.32866253966E+02  0.19136017250E+03 -0.29741154840E+03  0.37656303406E+03  0.12508870145E+03 0.  0.
         24    2    1    2    0    0  0.22704189233E+02 -0.75696036261E+01  0.65681323815E+03  0.66202180475E+03  0.79350242845E+02 0.  0.
        -11    1    5    5    0    0 -0.22333308958E+02 -0.17041733268E+02  0.40952170165E+03  0.41048413061E+03  0.00000000000E+00 0.  1.
         12    1    5    5    0    0  0.45037498191E+02  0.94721296418E+01  0.24729153650E+03  0.25153767413E+03  0.00000000000E+00 0. -1.
         13    1    3    3    0    0  0.21910842961E+02 -0.18345567844E+03 -0.10677401776E+04  0.10836074741E+04  0.00000000000E+00 0. -1.
        -14    1    3    3    0    0 -0.11748778228E+02 -0.33489043364E+00 -0.19931176435E+03  0.19965802101E+03  0.00000000000E+00 0.  1.
          5    1    4    4  501    0 -0.49097003023E+01 -0.83267506256E+01  0.60883876802E+01  0.12164735820E+02  0.41800000000E+01 0.  1.
         -5    1    4    4    0  501 -0.27956553663E+02  0.19968692313E+03 -0.30349993608E+03  0.36439829824E+03  0.41800000000E+01 0.  1.
</event>
<event>
11    1  0.8039394E-009  0.1372299E+03  0.7561462E-02  0.1110692E+00
         22   -1    0    0    0    0  0.00000000000E+00  0.00000000000E+00  0.18713565573E+04  0.18713565573E+04  0.00000000000E+00 0.  1.
         22   -1    0    0    0    0 -0.00000000000E+00 -0.00000000000E+00 -0.82880773767E+03  0.82880773767E+03  0.00000000000E+00 0. -1.
        -24    2    1    2    0    0  0.76571030514E+01 -0.58928858228E+01 -0.75484669448E+03  0.75945470120E+03  0.82973210645E+02 0.  0.
         25    2    1    2    0    0  0.48197765434E+02 -0.31762987997E+01 -0.64018838362E+01  0.13424603523E+03  0.12509156803E+03 0.  0.
         24    2    1    2    0    0 -0.55854868485E+02  0.90691846224E+01  0.18037973980E+04  0.18064635586E+04  0.80146859077E+02 0.  0.
        -11    1    5    5    0    0 -0.28942112645E+02  0.78465000233E+01  0.16534253932E+04  0.16536972953E+04  0.00000000000E+00 0.  1.
         12    1    5    5    0    0 -0.26912755840E+02  0.12226845991E+01  0.15037200472E+03  0.15276626325E+03  0.00000000000E+00 0. -1.
         13    1    3    3    0    0 -0.14382846312E+02 -0.80650172896E+01 -0.70149735047E+03  0.70169113111E+03  0.00000000000E+00 0. -1.
        -14    1    3    3    0    0  0.22039949363E+02  0.21721314668E+01 -0.53349344011E+02  0.57763570089E+02  0.00000000000E+00 0.  1.
          5    1    4    4  501    0  0.12699181690E+02  0.60018768174E+02 -0.28145994116E+01  0.61554172227E+02  0.41800000000E+01 0.  1.
         -5    1    4    4    0  501  0.35498583744E+02 -0.63195066974E+02 -0.35872844246E+01  0.72691863005E+02  0.41800000000E+01 0.  1.
</event>
<event>
11    1  0.8039394E-009  0.1736130E+03  0.7561462E-02  0.1074930E+00
         22   -1    0    0    0    0  0.00000000000E+00  0.00000000000E+00  0.37704192081E+04  0.37704192081E+04  0.00000000000E+00 0.  1.
         22   -1    0    0    0    0 -0.00000000000E+00 -0.00000000000E+00 -0.41362532542E+03  0.41362532542E+03  0.00000000000E+00 0.  1.
        -24    2    1    2    0    0 -0.98926164061E+02 -0.70702787484E+02 -0.38324781638E+03  0.40988183686E+03  0.79617594400E+02 0.  0.
         25    2    1    2    0    0  0.83077195511E+02  0.34643433576E+02  0.34410404106E+03  0.37703729032E+03  0.12509012476E+03 0.  0.
         24    2    1    2    0    0  0.15848968550E+02  0.36059353908E+02  0.33959376580E+04  0.33971254063E+04  0.80727830050E+02 0.  0.
        -13    1    5    5    0    0 -0.19895812784E+01  0.59946239233E+02  0.22249049108E+04  0.22257132277E+04  0.00000000000E+00 0.  1.
         14    1    5    5    0    0  0.17838549829E+02 -0.23886885325E+02  0.11710327472E+04  0.11714121786E+04  0.00000000000E+00 0. -1.
         13    1    3    3    0    0 -0.17837620348E+02 -0.36424041728E+02 -0.45969528691E+02  0.61303255081E+02  0.00000000000E+00 0. -1.
        -14    1    3    3    0    0 -0.81088543713E+02 -0.34278745756E+02 -0.33727828769E+03  0.34857858178E+03  0.00000000000E+00 0.  1.
          5    1    4    4  501    0  0.11826874587E+02 -0.45096944355E+02  0.11546874923E+03  0.12459580170E+03  0.41800000000E+01 0.  1.
         -5    1    4    4    0  501  0.71250320924E+02  0.79740377931E+02  0.22863529183E+03  0.25244148862E+03  0.41800000000E+01 0.  1.
</event>
<event>
11    1  0.8039394E-009  0.4285686E+03  0.7561462E-02  0.9569033E-01
         22   -1    0    0    0    0  0.00000000000E+00  0.00000000000E+00  0.15935876113E+04  0.15935876113E+04  0.00000000000E+00 0. -1.
         22   -1    0    0    0    0 -0.00000000000E+00 -0.00000000000E+00 -0.33529881679E+03  0.33529881679E+03  0.00000000000E+00 0. -1.
         24    2    1    2    0    0 -0.31068918576E+02  0.72477856796E+02 -0.13285357058E+03  0.17390553313E+03  0.79842005300E+02 0.  0.
         25    2    1    2    0    0  0.32669342655E+03 -0.33623729722E+03  0.25299434095E+03  0.54721065809E+03  0.12509697353E+03 0.  0.
        -24    2    1    2    0    0 -0.29562450797E+03  0.26375944042E+03  0.11381480241E+04  0.12077702368E+04  0.79781752674E+02 0.  0.
        -11    1    3    3    0    0 -0.27121011251E+02  0.48833679607E+01 -0.33377859689E+01  0.27758554521E+02  0.00000000000E+00 0.  1.
         12    1    3    3    0    0 -0.39479073254E+01  0.67594488835E+02 -0.12951578462E+03  0.14614697861E+03  0.00000000000E+00 0. -1.
         11    1    5    5    0    0 -0.28960605578E+03  0.23322167711E+03  0.10226982091E+04  0.10881983483E+04  0.00000000000E+00 0. -1.
        -12    1    5    5    0    0 -0.60184521901E+01  0.30537763309E+02  0.11544981496E+03  0.11957188854E+03  0.00000000000E+00 0.  1.
          5    1    4    4  501    0  0.66776577675E+02 -0.14035618835E+03  0.48771636954E+02  0.16295740519E+03  0.41800000000E+01 0. -1.
         -5    1    4    4    0  501  0.25991684887E+03 -0.19588110887E+03  0.20422270400E+03  0.38425325290E+03  0.41800000000E+01 0. -1.
</event>
<event>
11    1  0.8039394E-009  0.1347737E+03  0.7561462E-02  0.1113539E+00
         22   -1    0    0    0    0  0.00000000000E+00  0.00000000000E+00  0.67219199800E+03  0.67219199800E+03  0.00000000000E+00 0.  1.
         22   -1    0    0    0    0 -0.00000000000E+00 -0.00000000000E+00 -0.84979781492E+03  0.84979781492E+03  0.00000000000E+00 0. -1.
        -24    2    1    2    0    0 -0.37175460608E+02  0.34913624572E+02 -0.77387463574E+03  0.78002933054E+03  0.83443565429E+02 0.  0.
         25    2    1    2    0    0  0.20973604762E+01 -0.45359489297E+02 -0.56517430219E+01  0.13319330737E+03  0.12508650102E+03 0.  0.
         24    2    1    2    0    0  0.35078100132E+02  0.10445864725E+02  0.60192056184E+03  0.60876717501E+03  0.83363789543E+02 0.  0.
        -11    1    5    5    0    0  0.61937331958E+02  0.12361317754E+02  0.37905866214E+03  0.38428440589E+03  0.00000000000E+00 0.  1.
         12    1    5    5    0    0 -0.26859231827E+02 -0.19154530288E+01  0.22286189970E+03  0.22448276912E+03  0.00000000000E+00 0. -1.
         11    1    3    3    0    0 -0.63142424630E+02  0.34185128051E+02 -0.56216891458E+03  0.56673580908E+03  0.00000000000E+00 0. -1.
        -12    1    3    3    0    0  0.25966964023E+02  0.72849652156E+00 -0.21170572116E+03  0.21329352147E+03  0.00000000000E+00 0.  1.
          5    1    4    4  501    0  0.35644346465E+02 -0.50882258675E+02 -0.48076428527E+02  0.78665996865E+02  0.41800000000E+01 0.  1.
         -5    1    4    4    0  501 -0.33546985989E+02  0.55227693777E+01  0.42424685505E+02  0.54527310503E+02  0.41800000000E+01 0.  1.
</event>
<event>
11    1  0.8039394E-009  0.1932915E+03  0.7561462E-02  0.1059372E+00
         22   -1    0    0    0    0  0.00000000000E+00  0.00000000000E+00  0.35250714600E+03  0.35250714600E+03  0.00000000000E+00 0.  1.
         22   -1    0    0    0    0 -0.00000000000E+00 -0.00000000000E+00 -0.74054070029E+03  0.74054070029E+03  0.00000000000E+00 0.  1.
         24    2    1    2    0    0 -0.61677545195E+02  0.26580061776E+02 -0.57120950644E+03  0.58075694818E+03  0.80546342849E+02 0.  0.
         25    2    1    2    0    0  0.19624301235E+03  0.81648825405E+01 -0.41497108333E+02  0.23653336412E+03  0.12509211462E+03 0.  0.
        -24    2    1    2    0    0 -0.13456546716E+03 -0.34744944317E+02  0.22467306048E+03  0.27575753399E+03  0.79051611872E+02 0.  0.
        -13    1    3    3    0    0 -0.76540266134E+02  0.25166377578E+01 -0.42029911249E+03  0.42721901850E+03  0.00000000000E+00 0.  1.
         14    1    3    3    0    0  0.14862720939E+02  0.24063424019E+02 -0.15091039395E+03  0.15353792968E+03  0.00000000000E+00 0. -1.
         13    1    5    5    0    0 -0.30280946467E+02 -0.45904721046E+02  0.79125838897E+02  0.96359107065E+02  0.00000000000E+00 0. -1.
        -14    1    5    5    0    0 -0.10428452069E+03  0.11159776730E+02  0.14554722159E+03  0.17939842693E+03  0.00000000000E+00 0.  1.
          5    1    4    4  501    0  0.11249132110E+03 -0.47327304364E+02  0.11880379697E+02  0.12268979942E+03  0.41800000000E+01 0.  1.
         -5    1    4    4    0  501  0.83751691256E+02  0.55492186905E+02 -0.53377488030E+02  0.11384356470E+03  0.41800000000E+01 0.  1.
</event>
<event>
11    1  0.8039394E-009  0.1420521E+03  0.7561462E-02  0.1105288E+00
         22   -1    0    0    0    0  0.00000000000E+00  0.00000000000E+00  0.34631322785E+03  0.34631322785E+03  0.00000000000E+00 0. -1.
         22   -1    0    0    0    0 -0.00000000000E+00 -0.00000000000E+00 -0.54652540947E+03  0.54652540947E+03  0.00000000000E+00 0. -1.
         24    2    1    2    0    0  0.18401814427E+02  0.97094187984E+01 -0.25527056722E+03  0.26839312020E+03  0.80242787182E+02 0.  0.
         25    2    1    2    0    0  0.42034812394E+02  0.21409728791E+02 -0.25910009936E+03  0.29156224127E+03  0.12510146723E+03 0.  0.
        -24    2    1    2    0    0 -0.60436626821E+02 -0.31119147590E+02  0.31415848497E+03  0.33288327585E+03  0.86572134403E+02 0.  0.
        -13    1    3    3    0    0  0.24917952876E+02  0.28000858880E+02 -0.51482246596E+02  0.63681819918E+02  0.00000000000E+00 0.  1.
         14    1    3    3    0    0 -0.65161384492E+01 -0.18291440081E+02 -0.20378832063E+03  0.20471130029E+03  0.00000000000E+00 0. -1.
         13    1    5    5    0    0 -0.68245474254E+02 -0.52026826323E+02  0.27149756090E+03  0.28473700320E+03  0.00000000000E+00 0. -1.
        -14    1    5    5    0    0  0.78088474335E+01  0.20907678733E+02  0.42660924063E+02  0.48146272651E+02  0.00000000000E+00 0.  1.
          5    1    4    4  501    0  0.47446747764E+02  0.26811871351E+02 -0.30103782355E+02  0.62400163708E+02  0.41800000000E+01 0. -1.
         -5    1    4    4    0  501 -0.54119353699E+01 -0.54021425594E+01 -0.22899631701E+03  0.22916207756E+03  0.41800000000E+01 0. -1.
</event>
<event>
11    1  0.8039394E-009  0.1547695E+03  0.7561462E-02  0.1092103E+00
         22   -1    0    0    0    0  0.00000000000E+00  0.00000000000E+00  0.29600828713E+03  0.29600828713E+03  0.00000000000E+00 0.  1.
         22   -1    0    0    0    0 -0.00000000000E+00 -0.00000000000E+00 -0.19711068423E+04  0.19711068423E+04  0.00000000000E+00 0. -1.
        -24    2    1    2    0    0 -0.51649756199E+02 -0.98222263200E+01 -0.17297305079E+04  0.17323664665E+04  0.79760709159E+02 0.  0.
         25    2    1    2    0    0  0.10595756113E+03 -0.61591858298E+02 -0.19200246279E+03  0.25987064031E+03  0.12508893720E+03 0.  0.
         24    2    1    2    0    0 -0.54307804934E+02  0.71414084618E+02  0.24663441556E+03  0.27487802261E+03  0.81731776052E+02 0.  0.
        -11    1    5    5    0    0 -0.64866239707E+02  0.64684990768E+02  0.24581644186E+03  0.26233089824E+03  0.00000000000E+00 0.  1.
         12    1    5    5    0    0  0.10558434774E+02  0.67290938501E+01  0.81797370091E+00  0.12547124367E+02  0.00000000000E+00 0. -1.
         11    1    3    3    0    0 -0.62387171013E+02 -0.11763921765E+02 -0.78190622612E+03  0.78447937858E+03  0.00000000000E+00 0. -1.
        -12    1    3    3    0    0  0.10737414815E+02  0.19416954451E+01 -0.94782428181E+03  0.94788708792E+03  0.00000000000E+00 0.  1.
          5    1    4    4  501    0 -0.77288129523E+00 -0.50070077249E+02 -0.12120491405E+03  0.13120866424E+03  0.41800000000E+01 0.  1.
         -5    1    4    4    0  501  0.10673044243E+03 -0.11521781049E+02 -0.70797548737E+02  0.12866197607E+03  0.41800000000E+01 0.  1.
</event>
<event>
11    1  0.8039394E-009  0.1335649E+03  0.7561462E-02  0.1114965E+00
         22   -1    0    0    0    0  0.00000000000E+00  0.00000000000E+00  0.69622470025E+02  0.69622470025E+02  0.00000000000E+00 0. -1.
         22   -1    0    0    0    0 -0.00000000000E+00 -0.00000000000E+00 -0.15397777962E+04  0.15397777962E+04  0.00000000000E+00 0.  1.
        -24    2    1    2    0    0  0.47798880642E+01 -0.78669717951E+01 -0.10962010476E+04  0.10997342499E+04  0.87601068370E+02 0.  0.
         25    2    1    2    0    0 -0.41965398720E+02 -0.20731650500E+02 -0.39237480237E+03  0.41448205847E+03  0.12508595138E+03 0.  0.
         24    2    1    2    0    0  0.37185510656E+02  0.28598622296E+02  0.18420523783E+02  0.95183957819E+02  0.80746682469E+02 0.  0.
        -13    1    5    5    0    0 -0.19665430700E+02  0.96143076794E+01  0.26866316868E+02  0.34654913920E+02  0.00000000000E+00 0.  1.
         14    1    5    5    0    0  0.56850941356E+02  0.18984314616E+02 -0.84457930847E+01  0.60529043899E+02  0.00000000000E+00 0. -1.
         11    1    3    3    0    0 -0.25480283733E+02 -0.35390121759E+02 -0.40935667208E+03  0.41167291695E+03  0.00000000000E+00 0. -1.
        -12    1    3    3    0    0  0.30260171797E+02  0.27523149964E+02 -0.68684437551E+03  0.68806133299E+03  0.00000000000E+00 0.  1.
          5    1    4    4  501    0 -0.95539644725E+01  0.49768849376E+02 -0.10318323819E+03  0.11503247215E+03  0.41800000000E+01 0.  1.
         -5    1    4    4    0  501 -0.32411434248E+02 -0.70500499876E+02 -0.28919156418E+03  0.29944958632E+03  0.41800000000E+01 0.  1.
</event>
<event>
11    1  0.8039394E-009  0.2977273E+03  0.7561462E-02  0.1001158E+00
         22   -1    0    0    0    0  0.00000000000E+00  0.00000000000E+00  0.27273371758E+03  0.27273371758E+03  0.00000000000E+00 0. -1.
         22   -1    0    0    0    0 -0.00000000000E+00 -0.00000000000E+00 -0.16630682065E+04  0.16630682065E+04  0.00000000000E+00 0. -1.
        -24    2    1    2    0    0  0.84567316191E+02  0.24869153545E+02 -0.12728408688E+04  0.12784049655E+04  0.80157800460E+02 0.  0.
         25    2    1    2    0    0  0.10670978728E+03 -0.22960314002E+03 -0.20991233135E+03  0.35187399428E+03  0.12509012907E+03 0.  0.
         24    2    1    2    0    0 -0.19127710347E+03  0.20473398648E+03  0.92418711202E+02  0.30552296423E+03  0.79373345421E+02 0.  0.
        -13    1    5    5    0    0 -0.59210867993E+02  0.21219863542E+02  0.36089904742E+02  0.72516830609E+02  0.00000000000E+00 0.  1.
         14    1    5    5    0    0 -0.13206623548E+03  0.18351412294E+03  0.56328806459E+02  0.23300613362E+03  0.00000000000E+00 0. -1.
         13    1    3    3    0    0  0.59282838009E+02  0.49273883954E+02 -0.10483470920E+04  0.10511774331E+04  0.00000000000E+00 0. -1.
        -14    1    3    3    0    0  0.25284478182E+02 -0.24404730409E+02 -0.22449377679E+03  0.22722753249E+03  0.00000000000E+00 0.  1.
          5    1    4    4  501    0 -0.32787881275E+01 -0.56400216612E+02  0.22585956954E+01  0.56694872255E+02  0.41800000000E+01 0. -1.
         -5    1    4    4    0  501  0.10998857540E+03 -0.17320292341E+03 -0.21217092704E+03  0.29517912202E+03  0.41800000000E+01 0. -1.
</event>
<event>
11    1  0.8039394E-009  0.1575774E+03  0.7561462E-02  0.1089378E+00
         22   -1    0    0    0    0  0.00000000000E+00  0.00000000000E+00  0.43980428626E+02  0.43980428626E+02  0.00000000000E+00 0. -1.
         22   -1    0    0    0    0 -0.00000000000E+00 -0.00000000000E+00 -0.14812792442E+04  0.14812792442E+04  0.00000000000E+00 0. -1.
         24    2    1    2    0    0  0.46376091040E+02  0.92020991844E+02 -0.62739579080E+03  0.64444662985E+03  0.10520159527E+03 0.  0.
         25    2    1    2    0    0 -0.98272493270E+02 -0.33738433475E+02 -0.71377408762E+03  0.73206313827E+03  0.12508887010E+03 0.  0.
        -24    2    1    2    0    0  0.51896402230E+02 -0.58282558369E+02 -0.96128937192E+02  0.14874990475E+03  0.82435844291E+02 0.  0.
        -13    1    3    3    0    0  0.35112985620E+02  0.29169738565E+02 -0.71062816065E+02  0.84461347575E+02  0.00000000000E+00 0.  1.
         14    1    3    3    0    0  0.11263105420E+02  0.62851253279E+02 -0.55633297474E+03  0.55998528227E+03  0.00000000000E+00 0. -1.
         11    1    5    5    0    0 -0.15804109067E+02 -0.39142379366E+02 -0.26951830070E+02  0.50082899975E+02  0.00000000000E+00 0. -1.
        -12    1    5    5    0    0  0.67700511297E+02 -0.19140179003E+02 -0.69177107122E+02  0.98667004778E+02  0.00000000000E+00 0.  1.
          5    1    4    4  501    0 -0.69514489966E+02 -0.75659386154E+02 -0.57690971036E+03  0.58600246871E+03  0.41800000000E+01 0. -1.
         -5    1    4    4    0  501 -0.28758003304E+02  0.41920952679E+02 -0.13686437726E+03  0.14606066955E+03  0.41800000000E+01 0. -1.
</event>
<event>
11    1  0.8039394E-009  0.1429405E+03  0.7561462E-02  0.1104319E+00
         22   -1    0    0    0    0  0.00000000000E+00  0.00000000000E+00  0.16044013707E+04  0.16044013707E+04  0.00000000000E+00 0. -1.
         22   -1    0    0    0    0 -0.00000000000E+00 -0.00000000000E+00 -0.19641091868E+04  0.19641091868E+04  0.00000000000E+00 0.  1.
        -24    2    1    2    0    0  0.57173405410E+01  0.65483733652E+02 -0.16672958275E+04  0.16705475894E+04  0.80827375410E+02 0.  0.
         25    2    1    2    0    0  0.22364393701E+01 -0.12705159377E+03 -0.26643873726E+03  0.32059942316E+03  0.12508908937E+03 0.  0.
         24    2    1    2    0    0 -0.79537799111E+01  0.61567860117E+02  0.15740267487E+04  0.15773635449E+04  0.81619134909E+02 0.  0.
        -11    1    5    5    0    0  0.27182393867E+02  0.54395019899E+01  0.80946373177E+03  0.80993827158E+03  0.00000000000E+00 0.  1.
         12    1    5    5    0    0 -0.35136173778E+02  0.56128358127E+02  0.76456301688E+03  0.76742527329E+03  0.00000000000E+00 0. -1.
         13    1    3    3    0    0 -0.20191248475E+02 -0.45941872863E+01 -0.15113404408E+03  0.15254603355E+03  0.00000000000E+00 0. -1.
        -14    1    3    3    0    0  0.25908589016E+02  0.70077920938E+02 -0.15161617834E+04  0.15180015558E+04  0.00000000000E+00 0.  1.
          5    1    4    4  501    0  0.28896828615E+01 -0.30649093290E+02 -0.20244006852E+03  0.20481008503E+03  0.41800000000E+01 0. -1.
         -5    1    4    4    0  501 -0.65324349144E+00 -0.96402500479E+02 -0.63998668740E+02  0.11578933814E+03  0.41800000000E+01 0. -1.
</event>
<event>
11    1  0.8039394E-009  0.1533665E+03  0.7561462E-02  0.1093488E+00
         22   -1    0    0    0    0  0.00000000000E+00  0.00000000000E+00  0.17302233574E+04  0.17302233574E+04  0.00000000000E+00 0.  1.
         22   -1    0    0    0    0 -0.00000000000E+00 -0.00000000000E+00 -0.29002505276E+02  0.29002505276E+02  0.00000000000E+00 0.  1.
        -24    2    1    2    0    0  0.14293444954E+02 -0.81615758547E+02  0.22433608057E+03  0.25187022125E+03  0.79034781560E+02 0.  0.
         25    2    1    2    0    0 -0.17435563403E+02  0.99147351711E+02  0.46258219476E+03  0.48964590448E+03  0.12504650592E+03 0.  0.
         24    2    1    2    0    0  0.31421184490E+01 -0.17531593164E+02  0.10143025768E+04  0.10177097369E+04  0.81278297909E+02 0.  0.
        -11    1    5    5    0    0  0.18098694226E+02 -0.17404741761E+02  0.97959144508E+03  0.97991320383E+03  0.00000000000E+00 0.  1.
         12    1    5    5    0    0 -0.14956575777E+02 -0.12685140318E+00  0.34711131684E+02  0.37796533082E+02  0.00000000000E+00 0. -1.
         11    1    3    3    0    0 -0.69671145638E+01 -0.33571054511E+02  0.17966670211E+03  0.18290893973E+03  0.00000000000E+00 0. -1.
        -12    1    3    3    0    0  0.21260559518E+02 -0.48044704036E+02  0.44669378457E+02  0.68961281519E+02  0.00000000000E+00 0.  1.
          5    1    4    4  501    0  0.24774347290E+02  0.14167937275E+02  0.15815544820E+02  0.32895327756E+02  0.41800000000E+01 0.  1.
         -5    1    4    4    0  501 -0.42209910693E+02  0.84979414436E+02  0.44676664994E+03  0.45675057673E+03  0.41800000000E+01 0.  1.
</event>
<event>
11    1  0.8039394E-009  0.1584636E+03  0.7561462E-02  0.1088531E+00
         22   -1    0    0    0    0  0.00000000000E+00  0.00000000000E+00  0.77212468009E+03  0.77212468009E+03  0.00000000000E+00 0. -1.
         22   -1    0    0    0    0 -0.00000000000E+00 -0.00000000000E+00 -0.14466593366E+04  0.14466593366E+04  0.00000000000E+00 0. -1.
         24    2    1    2    0    0  0.14090349002E+02  0.66852734098E+02 -0.13721399099E+04  0.13760764997E+04  0.78426874363E+02 0.  0.
         25    2    1    2    0    0 -0.10425949752E+03 -0.27853443466E+02  0.36006833011E+02  0.16908895927E+03  0.12509487195E+03 0.  0.
        -24    2    1    2    0    0  0.90169148516E+02 -0.38999290632E+02  0.66159842042E+03  0.67361855770E+03  0.79987945114E+02 0.  0.
        -11    1    3    3    0    0  0.18529898803E+02 -0.48082246869E+01 -0.94431581618E+02  0.96352476777E+02  0.00000000000E+00 0.  1.
         12    1    3    3    0    0 -0.44395498003E+01  0.71660958785E+02 -0.12777083283E+04  0.12797240229E+04  0.00000000000E+00 0. -1.
         11    1    5    5    0    0  0.86312556830E+02 -0.13321417937E+02  0.60593769299E+03  0.61219915504E+03  0.00000000000E+00 0. -1.
        -12    1    5    5    0    0  0.38565916858E+01 -0.25677872695E+02  0.55660727430E+02  0.61419402664E+02  0.00000000000E+00 0.  1.
          5    1    4    4  501    0 -0.27111436275E+02 -0.11299184144E+02 -0.46302504588E+02  0.54991780025E+02  0.41800000000E+01 0. -1.
         -5    1    4    4    0  501 -0.77148061243E+02 -0.16554259322E+02  0.82309337599E+02  0.11409717924E+03  0.41800000000E+01 0. -1.
</event>
<event>
11    1  0.8039394E-009  0.1548094E+03  0.7561462E-02  0.1092063E+00
         22   -1    0    0    0    0  0.00000000000E+00  0.00000000000E+00  0.20366018194E+03  0.20366018194E+03  0.00000000000E+00 0.  1.
         22   -1    0    0    0    0 -0.00000000000E+00 -0.00000000000E+00 -0.17965648208E+04  0.17965648208E+04  0.00000000000E+00 0.  1.
         24    2    1    2    0    0 -0.64258549056E+02 -0.75060452160E+02 -0.12145508492E+04  0.12211453067E+04  0.79365371166E+02 0.  0.
         25    2    1    2    0    0  0.56943581709E+02  0.43101187107E+02 -0.55780155866E+03  0.57609915483E+03  0.12508946209E+03 0.  0.
        -24    2    1    2    0    0  0.73149673472E+01  0.31959265054E+02  0.17944776895E+03  0.20298054126E+03  0.89020755884E+02 0.  0.
        -11    1    3    3    0    0 -0.43883207954E+02  0.46566441592E+01 -0.46673799633E+03  0.46881955750E+03  0.00000000000E+00 0.  1.
         12    1    3    3    0    0 -0.20375341102E+02 -0.79717096320E+02 -0.74781285287E+03  0.75232574919E+03  0.00000000000E+00 0. -1.
         13    1    5    5    0    0  0.38780050460E+02  0.70119202274E+01  0.33862061675E+02  0.51958623537E+02  0.00000000000E+00 0. -1.
        -14    1    5    5    0    0 -0.31465083113E+02  0.24947344826E+02  0.14558570728E+03  0.15102191772E+03  0.00000000000E+00 0.  1.
          5    1    4    4  501    0  0.73980927366E+02  0.61392777179E+02 -0.52922824870E+03  0.53790543995E+03  0.41800000000E+01 0. -1.
         -5    1    4    4    0  501 -0.17037345657E+02 -0.18291590072E+02 -0.28573309956E+02  0.38193714879E+02  0.41800000000E+01 0. -1.
</event>
<event>
11    1  0.8039394E-009  0.1404102E+03  0.7561462E-02  0.1107101E+00
         22   -1    0    0    0    0  0.00000000000E+00  0.00000000000E+00  0.13132499399E+04  0.13132499399E+04  0.00000000000E+00 0. -1.
         22   -1    0    0    0    0 -0.00000000000E+00 -0.00000000000E+00 -0.61141542943E+03  0.61141542943E+03  0.00000000000E+00 0. -1.
        -24    2    1    2    0    0 -0.63477255943E+02  0.48803508115E+01 -0.55335391817E+03  0.56355923022E+03  0.85704535293E+02 0.  0.
         25    2    1    2    0    0  0.64687955123E+02 -0.19172272096E+02  0.47981930286E+02  0.15000450057E+03  0.12508787711E+03 0.  0.
         24    2    1    2    0    0 -0.12106991803E+01  0.14291921285E+02  0.12072064984E+04  0.12111016385E+04  0.95989188964E+02 0.  0.
        -11    1    5    5    0    0  0.28742796552E+02  0.36301290718E+02  0.34487224233E+03  0.34796665874E+03  0.00000000000E+00 0.  1.
         12    1    5    5    0    0 -0.29953495732E+02 -0.22009369433E+02  0.86233425603E+03  0.86313497981E+03  0.00000000000E+00 0. -1.
         11    1    3    3    0    0 -0.71104743478E+02  0.22222703980E+02 -0.51907176861E+03  0.52439034515E+03  0.00000000000E+00 0. -1.
        -12    1    3    3    0    0  0.76274875352E+01 -0.17342353168E+02 -0.34282149557E+02  0.39168885072E+02  0.00000000000E+00 0.  1.
          5    1    4    4  501    0  0.53855354830E+02 -0.54783467248E+02 -0.13402819744E+02  0.78094401238E+02  0.41800000000E+01 0. -1.
         -5    1    4    4    0  501  0.10832600293E+02  0.35611195152E+02  0.61384750030E+02  0.71910099329E+02  0.41800000000E+01 0. -1.
</event>
<event>
11    1  0.8039394E-009  0.1371502E+03  0.7561462E-02  0.1110783E+00
         22   -1    0    0    0    0  0.00000000000E+00  0.00000000000E+00  0.16548964728E+03  0.16548964728E+03  0.00000000000E+00 0.  1.
         22   -1    0    0    0    0 -0.00000000000E+00 -0.00000000000E+00 -0.14360919683E+04  0.14360919683E+04  0.00000000000E+00 0.  1.
         24    2    1    2    0    0  0.23364535974E+02 -0.27880453056E+02 -0.95793907998E+03  0.96205255125E+03  0.81083964005E+02 0.  0.
         25    2    1    2    0    0 -0.40062762546E+02  0.80422240026E+02 -0.44751669946E+03  0.47327674989E+03  0.12508766550E+03 0.  0.
        -24    2    1    2    0    0  0.16698226573E+02 -0.52541786970E+02  0.13485345842E+03  0.16625231443E+03  0.80093112427E+02 0.  0.
        -11    1    3    3    0    0  0.49318519192E+02 -0.36673809406E+02 -0.66807152665E+03  0.67089257661E+03  0.00000000000E+00 0.  1.
         12    1    3    3    0    0 -0.25953983219E+02  0.87933563493E+01 -0.28986755333E+03  0.29115997464E+03  0.00000000000E+00 0. -1.
         13    1    5    5    0    0  0.55761073009E+01  0.13860034986E+02 -0.63996883519E+00  0.14953364255E+02  0.00000000000E+00 0. -1.
        -14    1    5    5    0    0  0.11122119272E+02 -0.66401821955E+02  0.13549342725E+03  0.15129895018E+03  0.00000000000E+00 0.  1.
          5    1    4    4  501    0 -0.39854260813E+02  0.72296997519E+01 -0.33242841176E+02  0.52566049432E+02  0.41800000000E+01 0.  1.
         -5    1    4    4    0  501 -0.20850173358E+00  0.73192540274E+02 -0.41427385828E+03  0.42071070046E+03  0.41800000000E+01 0.  1.
</event>
<event>
11    1  0.8039394E-009  0.1532302E+03  0.7561462E-02  0.1093623E+00
         22   -1    0    0    0    0  0.00000000000E+00  0.00000000000E+00  0.20383976192E+04  0.20383976192E+04  0.00000000000E+00 0. -1.
         22   -1    0    0    0    0 -0.00000000000E+00 -0.00000000000E+00 -0.62796744638E+02  0.62796744638E+02  0.00000000000E+00 0. -1.
        -24    2    1    2    0    0 -0.17365510509E+02 -0.46534317509E+01 -0.11865155415E+02  0.83555795254E+02  0.80731490914E+02 0.  0.
         25    2    1    2    0    0  0.93738592964E+02 -0.35868712781E+02  0.49085231744E+03  0.51638822165E+03  0.12508920641E+03 0.  0.
         24    2    1    2    0    0 -0.76373082455E+02  0.40522144532E+02  0.14966137126E+04  0.15012503470E+04  0.80156769401E+02 0.  0.
        -11    1    5    5    0    0 -0.65735677987E+02  0.18314504751E+02  0.53669039131E+03  0.54101125364E+03  0.00000000000E+00 0.  1.
         12    1    5    5    0    0 -0.10637404468E+02  0.22207639781E+02  0.95992332126E+03  0.96023909332E+03  0.00000000000E+00 0. -1.
         11    1    3    3    0    0 -0.17159193249E+02  0.17612891166E+02 -0.40440156816E+02  0.47329252387E+02  0.00000000000E+00 0. -1.
        -12    1    3    3    0    0 -0.20631726071E+00 -0.22266322917E+02  0.28575001401E+02  0.36226542867E+02  0.00000000000E+00 0.  1.
          5    1    4    4  501    0  0.62759873610E+02  0.55785457861E+01  0.78333866454E+02  0.10061604714E+03  0.41800000000E+01 0.  1.
         -5    1    4    4    0  501  0.30978719354E+02 -0.41447258567E+02  0.41251845098E+03  0.41577217451E+03  0.41800000000E+01 0.  1.
</event>
<event>
11    1  0.8039394E-009  0.1356680E+03  0.7561462E-02  0.1112495E+00
         22   -1    0    0    0    0  0.00000000000E+00  0.00000000000E+00  0.74836345239E+03  0.74836345239E+03  0.00000000000E+00 0. -1.
         22   -1    0    0    0    0 -0.00000000000E+00 -0.00000000000E+00 -0.23873744213E+03  0.23873744213E+03  0.00000000000E+00 0. -1.
         24    2    1    2    0    0  0.79866287854E+01 -0.14889315100E+02 -0.20456526193E+03  0.21966985720E+03  0.78245906136E+02 0.  0.
         25    2    1    2    0    0 -0.38453107295E+02 -0.29348251456E+02  0.17925767480E+03  0.22387703064E+03  0.12509056540E+03 0.  0.
        -24    2    1    2    0    0  0.30466478510E+02  0.44237566556E+02  0.53493359740E+03  0.54355400667E+03  0.80073940433E+02 0.  0.
        -13    1    3    3    0    0  0.12958588841E+02  0.75676706344E+01 -0.12508258014E+01  0.15058526779E+02  0.00000000000E+00 0.  1.
         14    1    3    3    0    0 -0.49719600555E+01 -0.22456985734E+02 -0.20331443613E+03  0.20461133042E+03  0.00000000000E+00 0. -1.
         13    1    5    5    0    0 -0.33082659868E+01  0.58521078412E+02  0.36811752677E+03  0.37275484538E+03  0.00000000000E+00 0. -1.
        -14    1    5    5    0    0  0.33774744497E+02 -0.14283511856E+02  0.16681607063E+03  0.17079916129E+03  0.00000000000E+00 0.  1.
          5    1    4    4  501    0 -0.63857857701E+02  0.22677535766E+02  0.57425206766E+02  0.88922569637E+02  0.41800000000E+01 0.  1.
         -5    1    4    4    0  501  0.25404750406E+02 -0.52025787222E+02  0.12183246803E+03  0.13495446101E+03  0.41800000000E+01 0.  1.
</event>
<event>
11    1  0.8039394E-009  0.1364949E+03  0.7561462E-02  0.1111537E+00
         22   -1    0    0    0    0  0.00000000000E+00  0.00000000000E+00  0.11079284780E+04  0.11079284780E+04  0.00000000000E+00 0. -1.
         22   -1    0    0    0    0 -0.00000000000E+00 -0.00000000000E+00 -0.15792893335E+03  0.15792893335E+03  0.00000000000E+00 0. -1.
         24    2    1    2    0    0 -0.42418716685E+02 -0.31090018624E+02 -0.68391203742E+02  0.11758014118E+03  0.79886144397E+02 0.  0.
         25    2    1    2    0    0  0.95382580444E+02  0.27048425638E+02  0.39340884502E+02  0.16439205614E+03  0.12509032315E+03 0.  0.
        -24    2    1    2    0    0 -0.52963863759E+02  0.40415929869E+01  0.97904986394E+03  0.98388521409E+03  0.81669903102E+02 0.  0.
        -11    1    3    3    0    0 -0.11601247248E+02  0.22496931006E+02  0.10753622760E+00  0.25312297533E+02  0.00000000000E+00 0.  1.
         12    1    3    3    0    0 -0.30817469437E+02 -0.53586949630E+02 -0.68498739970E+02  0.92267843643E+02  0.00000000000E+00 0. -1.
         11    1    5    5    0    0 -0.29468103173E+02 -0.38670709563E+02  0.47203205042E+03  0.47452929257E+03  0.00000000000E+00 0. -1.
        -12    1    5    5    0    0 -0.23495760586E+02  0.42712302550E+02  0.50701781352E+03  0.50935592152E+03  0.00000000000E+00 0.  1.
          5    1    4    4  501    0  0.12522226121E+02  0.66436595793E+02  0.14905594004E+02  0.69356157190E+02  0.41800000000E+01 0. -1.
         -5    1    4    4    0  501  0.82860354322E+02 -0.39388170155E+02  0.24435290498E+02  0.95035898945E+02  0.41800000000E+01 0. -1.
</event>
<event>
11    1  0.8039394E-009  0.1493692E+03  0.7561462E-02  0.1097525E+00
         22   -1    0    0    0    0  0.00000000000E+00  0.00000000000E+00  0.75156890975E+03  0.75156890975E+03  0.00000000000E+00 0.  1.
         22   -1    0    0    0    0 -0.00000000000E+00 -0.00000000000E+00 -0.73921266709E+02  0.73921266709E+02  0.00000000000E+00 0.  1.
         24    2    1    2    0    0  0.63105250660E+02  0.45037575358E+02  0.15345515801E+02  0.11254649895E+03  0.80128482551E+02 0.  0.
         25    2    1    2    0    0 -0.71305971939E+02 -0.75079457645E+02  0.29726599139E+03  0.33872632004E+03  0.12508790372E+03 0.  0.
        -24    2    1    2    0    0  0.82007212790E+01  0.30041882287E+02  0.36503613585E+03  0.37421735747E+03  0.76272430361E+02 0.  0.
        -13    1    3    3    0    0  0.62945797234E+02  0.25793088649E+02 -0.21192387816E+02  0.71250081493E+02  0.00000000000E+00 0.  1.
         14    1    3    3    0    0  0.15945342563E+00  0.19244486710E+02  0.36537903617E+02  0.41296417458E+02  0.00000000000E+00 0. -1.
         11    1    5    5    0    0 -0.14854083968E+02 -0.15871699091E+02  0.20469748387E+03  0.20584852330E+03  0.00000000000E+00 0. -1.
        -12    1    5    5    0    0  0.23054805247E+02  0.45913581378E+02  0.16033865198E+03  0.16836883417E+03  0.00000000000E+00 0.  1.
          5    1    4    4  501    0 -0.36682191786E+02 -0.42390381975E+02  0.28344877009E+03  0.28896921176E+03  0.41800000000E+01 0.  1.
         -5    1    4    4    0  501 -0.34623780153E+02 -0.32689075670E+02  0.13817221300E+02  0.49757108283E+02  0.41800000000E+01 0.  1.
</event>
<event>
11    1  0.8039394E-009  0.1436020E+03  0.7561462E-02  0.1103602E+00
         22   -1    0    0    0    0  0.00000000000E+00  0.00000000000E+00  0.80627802480E+03  0.80627802480E+03  0.00000000000E+00 0. -1.
         22   -1    0    0    0    0 -0.00000000000E+00 -0.00000000000E+00 -0.26458057117E+03  0.26458057117E+03  0.00000000000E+00 0.  1.
         24    2    1    2    0    0  0.61357588075E+02  0.32178014242E+02 -0.22789329070E+03  0.25203662119E+03  0.82382815315E+02 0.  0.
         25    2    1    2    0    0 -0.87637101046E+02 -0.57055633970E+02  0.30560800098E+03  0.34638015457E+03  0.12508938551E+03 0.  0.
        -24    2    1    2    0    0  0.26279512971E+02  0.24877619728E+02  0.46398274334E+03  0.47244182022E+03  0.81312844017E+02 0.  0.
        -13    1    3    3    0    0 -0.86067554770E+01  0.34183807552E+02 -0.10303402566E+03  0.10889728823E+03  0.00000000000E+00 0.  1.
         14    1    3    3    0    0  0.69964343552E+02 -0.20057933096E+01 -0.12485926504E+03  0.14313933296E+03  0.00000000000E+00 0. -1.
         11    1    5    5    0    0  0.29689438140E+02 -0.21454647976E+02  0.12392384397E+03  0.12922416091E+03  0.00000000000E+00 0. -1.
        -12    1    5    5    0    0 -0.34099251695E+01  0.46332267704E+02  0.34005889937E+03  0.34321765931E+03  0.00000000000E+00 0.  1.
          5    1    4    4  501    0  0.19707304881E+02 -0.20563242073E+02  0.11237426833E+02  0.30902701371E+02  0.41800000000E+01 0.  1.
         -5    1    4    4    0  501 -0.10734440593E+03 -0.36492391897E+02  0.29437057415E+03  0.31547745320E+03  0.41800000000E+01 0.  1.
</event>
<event>
11    1  0.8039394E-009  0.1304871E+03  0.7561462E-02  0.1118672E+00
         22   -1    0    0    0    0  0.00000000000E+00  0.00000000000E+00  0.18738809512E+03  0.18738809512E+03  0.00000000000E+00 0. -1.
         22   -1    0    0    0    0 -0.00000000000E+00 -0.00000000000E+00 -0.55124589200E+03  0.55124589200E+03  0.00000000000E+00 0. -1.
        -24    2    1    2    0    0 -0.19794918625E+02  0.29728898229E+02 -0.46215290980E+03  0.47065259453E+03  0.81565351127E+02 0.  0.
         25    2    1    2    0    0  0.21111793438E+02 -0.59238207426E+02  0.38133307821E+01  0.14006126562E+03  0.12509094130E+03 0.  0.
         24    2    1    2    0    0 -0.13168748135E+01  0.29509309197E+02  0.94481782144E+02  0.12792012697E+03  0.81019863231E+02 0.  0.
        -11    1    5    5    0    0  0.11400858565E+02  0.18284251839E+02 -0.87849391118E+01  0.23269477788E+02  0.00000000000E+00 0.  1.
         12    1    5    5    0    0 -0.12717733378E+02  0.11225057357E+02  0.10326672126E+03  0.10465064918E+03  0.00000000000E+00 0. -1.
         13    1    3    3    0    0 -0.19596761574E+02  0.22917653554E+02 -0.46282423253E+03  0.46380547875E+03  0.00000000000E+00 0. -1.
        -14    1    3    3    0    0 -0.19815705045E+00  0.68112446749E+01  0.67132272359E+00  0.68471157751E+01  0.00000000000E+00 0.  1.
          5    1    4    4  501    0 -0.33999654846E+00 -0.88842568399E+02 -0.26041839064E+02  0.92675602719E+02  0.41800000000E+01 0. -1.
         -5    1    4    4    0  501  0.21451789987E+02  0.29604360973E+02  0.29855169846E+02  0.47385662904E+02  0.41800000000E+01 0. -1.
</event>
<event>
11    1  0.8039394E-009  0.2855522E+03  0.7561462E-02  0.1006498E+00
         22   -1    0    0    0    0  0.00000000000E+00  0.00000000000E+00  0.18806727330E+04  0.18806727330E+04  0.00000000000E+00 0. -1.
         22   -1    0    0    0    0 -0.00000000000E+00 -0.00000000000E+00 -0.27100305555E+03  0.27100305555E+03  0.00000000000E+00 0. -1.
         24    2    1    2    0    0 -0.10502178992E+03  0.24149210048E+03 -0.18000468681E+03  0.32903404333E+03  0.80707517909E+02 0.  0.
         25    2    1    2    0    0  0.25179000642E+02 -0.16308770466E+03  0.10765813302E+04  0.10963148738E+04  0.12508940986E+03 0.  0.
        -24    2    1    2    0    0  0.79842789276E+02 -0.78404395818E+02  0.71309303406E+03  0.72632687143E+03  0.80789409293E+02 0.  0.
        -11    1    3    3    0    0  0.25305234643E+01  0.25539999263E+01  0.64866171679E+01  0.74163782880E+01  0.00000000000E+00 0.  1.
         12    1    3    3    0    0 -0.10755231338E+03  0.23893810055E+03 -0.18649130397E+03  0.32161766504E+03  0.00000000000E+00 0. -1.
         11    1    5    5    0    0 -0.10168511521E+02 -0.24058567427E+02  0.25438567183E+03  0.25572305982E+03  0.00000000000E+00 0. -1.
        -12    1    5    5    0    0  0.90011300798E+02 -0.54345828391E+02  0.45870736223E+03  0.47060381161E+03  0.00000000000E+00 0.  1.
          5    1    4    4  501    0  0.56164165755E+02 -0.16403086151E+03  0.84356525239E+03  0.86120865328E+03  0.41800000000E+01 0. -1.
         -5    1    4    4    0  501 -0.30985165112E+02  0.94315685168E+00  0.23301607779E+03  0.23510622048E+03  0.41800000000E+01 0. -1.
</event>
<event>
11    1  0.8039394E-009  0.1299242E+03  0.7561462E-02  0.1119362E+00
         22   -1    0    0    0    0  0.00000000000E+00  0.00000000000E+00  0.59343490829E+03  0.59343490829E+03  0.00000000000E+00 0. -1.
         22   -1    0    0    0    0 -0.00000000000E+00 -0.00000000000E+00 -0.26240935058E+03  0.26240935058E+03  0.00000000000E+00 0. -1.
         24    2    1    2    0    0  0.89052889437E+01 -0.33210851381E+02 -0.22086161882E+03  0.23746210908E+03  0.80163169585E+02 0.  0.
         25    2    1    2    0    0  0.18164751618E+02  0.55397270920E+02  0.13572775745E+03  0.19356772521E+03  0.12509046436E+03 0.  0.
        -24    2    1    2    0    0 -0.27070040562E+02 -0.22186419539E+02  0.41615941908E+03  0.42481442458E+03  0.77804941554E+02 0.  0.
        -13    1    3    3    0    0  0.20197981608E+01 -0.50984492045E+02 -0.77179448625E+02  0.92521161383E+02  0.00000000000E+00 0.  1.
         14    1    3    3    0    0  0.68854907829E+01  0.17773640664E+02 -0.14368217020E+03  0.14494094769E+03  0.00000000000E+00 0. -1.
         11    1    5    5    0    0 -0.32436077839E+02 -0.75287057113E+01  0.40307109752E+03  0.40444417441E+03  0.00000000000E+00 0. -1.
        -12    1    5    5    0    0  0.53660372770E+01 -0.14657713828E+02  0.13088321563E+02  0.20370250172E+02  0.00000000000E+00 0.  1.
          5    1    4    4  501    0 -0.27198870459E+02 -0.14070411138E+02 -0.38434192867E+01  0.31144811697E+02  0.41800000000E+01 0. -1.
         -5    1    4    4    0  501  0.45363622077E+02  0.69467682058E+02  0.13957117674E+03  0.16242291351E+03  0.41800000000E+01 0. -1.
</event>
<event>
11    1  0.8039394E-009  0.1551504E+03  0.7561462E-02  0.1091729E+00
         22   -1    0    0    0    0  0.00000000000E+00  0.00000000000E+00  0.14356952675E+03  0.14356952675E+03  0.00000000000E+00 0. -1.
         22   -1    0    0    0    0 -0.00000000000E+00 -0.00000000000E+00 -0.11368812122E+04  0.11368812122E+04  0.00000000000E+00 0.  1.
         24    2    1    2    0    0  0.84641922494E+02 -0.47984827487E+02 -0.91893276915E+03  0.92762083405E+03  0.81093642453E+02 0.  0.
         25    2    1    2    0    0 -0.63203817024E+02  0.88369049739E+01 -0.17050838258E+03  0.22089357441E+03  0.12509216325E+03 0.  0.
        -24    2    1    2    0    0 -0.21438105470E+02  0.39147922514E+02  0.96129466248E+02  0.13193633052E+03  0.78575879422E+02 0.  0.
        -11    1    3    3    0    0  0.35235968715E+02 -0.42924476878E+02 -0.73518693945E+03  0.73728143890E+03  0.00000000000E+00 0.  1.
         12    1    3    3    0    0  0.49405953779E+02 -0.50603506093E+01 -0.18374582970E+03  0.19033939516E+03  0.00000000000E+00 0. -1.
         11    1    5    5    0    0 -0.14754142257E+02  0.15960730415E+02  0.10423732230E+03  0.10647933597E+03  0.00000000000E+00 0. -1.
        -12    1    5    5    0    0 -0.66839632127E+01  0.23187192099E+02 -0.81078560511E+01  0.25456994548E+02  0.00000000000E+00 0.  1.
          5    1    4    4  501    0 -0.35789040435E+02 -0.25481864818E+02  0.65250450458E+00  0.44137048066E+02  0.41800000000E+01 0. -1.
         -5    1    4    4    0  501 -0.27414776589E+02  0.34318769792E+02 -0.17116088709E+03  0.17675652634E+03  0.41800000000E+01 0. -1.
</event>
<event>
11    1  0.8039394E-009  0.2720279E+03  0.7561462E-02  0.1012778E+00
         22   -1    0    0    0    0  0.00000000000E+00  0.00000000000E+00  0.16418842093E+03  0.16418842093E+03  0.00000000000E+00 0. -1.
         22   -1    0    0    0    0 -0.00000000000E+00 -0.00000000000E+00 -0.35390570290E+04  0.35390570290E+04  0.00000000000E+00 0. -1.
         24    2    1    2    0    0 -0.54473301771E+02  0.23583231746E+02 -0.29723469472E+04  0.29740317699E+04  0.80592088242E+02 0.  0.
         25    2    1    2    0    0 -0.19931621712E+03  0.19284300003E+01 -0.39816227800E+03  0.46250583584E+03  0.12509106809E+03 0.  0.
        -24    2    1    2    0    0  0.25378951889E+03 -0.25511661746E+02 -0.43593828554E+01  0.26670784412E+03  0.77808130110E+02 0.  0.
        -11    1    3    3    0    0 -0.10087409724E+02  0.39256344716E+02 -0.68341695000E+03  0.68461780870E+03  0.00000000000E+00 0.  1.
         12    1    3    3    0    0 -0.44385892047E+02 -0.15673112970E+02 -0.22889299972E+04  0.22894139612E+04  0.00000000000E+00 0. -1.
         13    1    5    5    0    0  0.15955705929E+03  0.48284359120E+01  0.28997996212E+02  0.16224257378E+03  0.00000000000E+00 0. -1.
        -14    1    5    5    0    0  0.94232459601E+02 -0.30340097658E+02 -0.33357379068E+02  0.10446527034E+03  0.00000000000E+00 0.  1.
          5    1    4    4  501    0 -0.38958922810E+02  0.53914494207E+02 -0.10843533797E+03  0.12728026270E+03  0.41800000000E+01 0.  1.
         -5    1    4    4    0  501 -0.16035729431E+03 -0.51986064207E+02 -0.28972694002E+03  0.33522557314E+03  0.41800000000E+01 0.  1.
</event>
<event>
11    1  0.8039394E-009  0.2952534E+03  0.7561462E-02  0.1002220E+00
         22   -1    0    0    0    0  0.00000000000E+00  0.00000000000E+00  0.12847522372E+04  0.12847522372E+04  0.00000000000E+00 0. -1.
         22   -1    0    0    0    0 -0.00000000000E+00 -0.00000000000E+00 -0.69059576648E+03  0.69059576648E+03  0.00000000000E+00 0.  1.
        -24    2    1    2    0    0  0.20890278562E+03  0.17225973404E+03 -0.59947008117E+03  0.66264760105E+03  0.80147833102E+02 0.  0.
         25    2    1    2    0    0 -0.17631260565E+03 -0.15516783898E+03  0.25411431232E+03  0.36794682409E+03  0.12509032125E+03 0.  0.
         24    2    1    2    0    0 -0.32590179974E+02 -0.17091895060E+02  0.93951223961E+03  0.94475357856E+03  0.92313721212E+02 0.  0.
        -11    1    5    5    0    0 -0.57337960827E+02 -0.35547609654E+02  0.57742546336E+03  0.58135311132E+03  0.00000000000E+00 0.  1.
         12    1    5    5    0    0  0.24747780853E+02  0.18455714594E+02  0.36208677625E+03  0.36340046725E+03  0.00000000000E+00 0. -1.
         13    1    3    3    0    0  0.67237018104E+02  0.10639588026E+03 -0.25262349803E+03  0.28224020213E+03  0.00000000000E+00 0. -1.
        -14    1    3    3    0    0  0.14166576752E+03  0.65863853779E+02 -0.34684658314E+03  0.38040739893E+03  0.00000000000E+00 0.  1.
          5    1    4    4  501    0 -0.12102819375E+03 -0.36090756145E+02  0.17056915590E+03  0.21227735561E+03  0.41800000000E+01 0. -1.
         -5    1    4    4    0  501 -0.55284411901E+02 -0.11907708284E+03  0.83545156412E+02  0.15566946848E+03  0.41800000000E+01 0. -1.
</event>
<event>
11    1  0.8039394E-009  0.3379675E+03  0.7561462E-02  0.9852908E-01
         22   -1    0    0    0    0  0.00000000000E+00  0.00000000000E+00  0.13672916569E+03  0.13672916569E+03  0.00000000000E+00 0.  1.
         22   -1    0    0    0    0 -0.00000000000E+00 -0.00000000000E+00 -0.11499710821E+04  0.11499710821E+04  0.00000000000E+00 0.  1.
         24    2    1    2    0    0 -0.30048707040E+03 -0.88547817253E+02 -0.60582455214E+03  0.68453813954E+03  0.58616389259E+02 0.  0.
         25    2    1    2    0    0  0.28539399435E+03  0.14051160484E+03 -0.36092912130E+03  0.49710226737E+03  0.12509032945E+03 0.  0.
        -24    2    1    2    0    0  0.15093076049E+02 -0.51963787584E+02 -0.46488243000E+02  0.10505984091E+03  0.77125723787E+02 0.  0.
        -13    1    3    3    0    0 -0.19850982394E+03 -0.86189069777E+02 -0.39814019655E+03  0.45315595776E+03  0.00000000000E+00 0.  1.
         14    1    3    3    0    0 -0.10197724646E+03 -0.23587474763E+01 -0.20768435559E+03  0.23138218177E+03  0.00000000000E+00 0. -1.
         11    1    5    5    0    0 -0.95202686112E+01  0.13752633393E+02  0.56298593999E+01  0.17648392463E+02  0.00000000000E+00 0. -1.
        -12    1    5    5    0    0  0.24613344660E+02 -0.65716420977E+02 -0.52118102400E+02  0.87411448444E+02  0.00000000000E+00 0.  1.
          5    1    4    4  501    0  0.18429508448E+03  0.23329043365E+02 -0.17618519636E+03  0.25606174694E+03  0.41800000000E+01 0.  1.
         -5    1    4    4    0  501  0.10109890987E+03  0.11718256147E+03 -0.18474392494E+03  0.24104052044E+03  0.41800000000E+01 0.  1.
</event>
<event>
11    1  0.8039394E-009  0.1262657E+03  0.7561462E-02  0.1123944E+00
         22   -1    0    0    0    0  0.00000000000E+00  0.00000000000E+00  0.11906929184E+04  0.11906929184E+04  0.00000000000E+00 0. -1.
         22   -1    0    0    0    0 -0.00000000000E+00 -0.00000000000E+00 -0.72099767972E+03  0.72099767972E+03  0.00000000000E+00 0.  1.
        -24    2    1    2    0    0 -0.12981008037E+01  0.18064868382E+02 -0.60263170763E+03  0.60923257445E+03  0.87586130146E+02 0.  0.
         25    2    1    2    0    0  0.31236945521E+02 -0.22715903621E+01 -0.76895590107E+02  0.15013913644E+03  0.12509165289E+03 0.  0.
         24    2    1    2    0    0 -0.29938844717E+02 -0.15793278020E+02  0.11492225364E+04  0.11523188873E+04  0.77334452904E+02 0.  0.
        -13    1    5    5    0    0  0.19954605579E+02  0.12344186513E+02  0.20041814139E+03  0.20178700806E+03  0.00000000000E+00 0.  1.
         14    1    5    5    0    0 -0.49893450296E+02 -0.28137464533E+02  0.94880439505E+03  0.95053187920E+03  0.00000000000E+00 0. -1.
         11    1    3    3    0    0 -0.99531477787E+01 -0.21319307642E+02 -0.51413120974E+02  0.56541020838E+02  0.00000000000E+00 0. -1.
        -12    1    3    3    0    0  0.86550469750E+01  0.39384176024E+02 -0.55121858666E+03  0.55269155361E+03  0.00000000000E+00 0.  1.
          5    1    4    4  501    0 -0.32642147914E+02 -0.44390077846E+01  0.16349753176E+02  0.37013530492E+02  0.41800000000E+01 0. -1.
         -5    1    4    4    0  501  0.63879093435E+02  0.21674174224E+01 -0.93245343284E+02  0.11312560595E+03  0.41800000000E+01 0. -1.
</event>
<event>
11    1  0.8039394E-009  0.7830390E+03  0.7561462E-02  0.8918153E-01
         22   -1    0    0    0    0  0.00000000000E+00  0.00000000000E+00  0.10983899250E+04  0.10983899250E+04  0.00000000000E+00 0. -1.
         22   -1    0    0    0    0 -0.00000000000E+00 -0.00000000000E+00 -0.33051092104E+04  0.33051092104E+04  0.00000000000E+00 0.  1.
         24    2    1    2    0    0 -0.14903977336E+02  0.36724691206E+03 -0.22311969143E+04  0.22626835871E+04  0.80030754242E+02 0.  0.
         25    2    1    2    0    0  0.52959654620E+03 -0.88206046246E+03 -0.58302046834E+03  0.11891438542E+04  0.12508828227E+03 0.  0.
        -24    2    1    2    0    0 -0.51469256886E+03  0.51481355040E+03  0.60749809733E+03  0.95167169407E+03  0.81753549881E+02 0.  0.
        -11    1    3    3    0    0 -0.13967493227E+02  0.15837886840E+03 -0.12051679766E+04  0.12156104675E+04  0.00000000000E+00 0.  1.
         12    1    3    3    0    0 -0.93648410981E+00  0.20886804366E+03 -0.10260289377E+04  0.10470731196E+04  0.00000000000E+00 0. -1.
         11    1    5    5    0    0 -0.40659033136E+03  0.35621943857E+03  0.45326254194E+03  0.70544660882E+03  0.00000000000E+00 0. -1.
        -12    1    5    5    0    0 -0.10810223750E+03  0.15859411183E+03  0.15423555539E+03  0.24622508525E+03  0.00000000000E+00 0.  1.
          5    1    4    4  501    0  0.15707763871E+03 -0.37943910140E+03 -0.22333520027E+03  0.46748636379E+03  0.41800000000E+01 0. -1.
         -5    1    4    4    0  501  0.37251890749E+03 -0.50262136106E+03 -0.35968526806E+03  0.72165749043E+03  0.41800000000E+01 0. -1.
</event>
<event>
11    1  0.1162758E-008  0.1525483E+03  0.7561462E-02  0.1094303E+00
         22   -1    0    0    0    0  0.00000000000E+00  0.00000000000E+00  0.19528000434E+04  0.19528000434E+04  0.00000000000E+00 0. -1.
         22   -1    0    0    0    0 -0.00000000000E+00 -0.00000000000E+00 -0.95084537690E+03  0.95084537690E+03  0.00000000000E+00 0. -1.
        -24    2    1    2    0    0 -0.60841921072E+02 -0.74954911208E+02 -0.62889410726E+03  0.64115563384E+03  0.79074462267E+02 0.  0.
         25    2    1    2    0    0  0.83916879407E+02  0.15655961656E+01 -0.29593229430E+03  0.33206559110E+03  0.12508852961E+03 0.  0.
         24    2    1    2    0    0 -0.23074958336E+02  0.73389315043E+02  0.19267810681E+04  0.19304241954E+04  0.90187829438E+02 0.  0.
        -11    1    5    5    0    0 -0.25737912707E+02 -0.11911260424E+02  0.75858391413E+03  0.75911387357E+03  0.00000000000E+00 0.  1.
         12    1    5    5    0    0  0.26629543715E+01  0.85300575467E+02  0.11681971539E+04  0.11713103218E+04  0.00000000000E+00 0. -1.
         11    1    3    3    0    0 -0.32809649805E+02 -0.29390651340E+02 -0.49520471002E+03  0.49715992229E+03  0.00000000000E+00 0. -1.
        -12    1    3    3    0    0 -0.28032271267E+02 -0.45564259869E+02 -0.13368939724E+03  0.14399571155E+03  0.00000000000E+00 0.  1.
          5    1    4    4  501    0  0.18320510549E+02  0.37853503864E+02 -0.22446511825E+03  0.22840882332E+03  0.41800000000E+01 0.  1.
         -5    1    4    4    0  501  0.65596368858E+02 -0.36287907698E+02 -0.71467176047E+02  0.10365676777E+03  0.41800000000E+01 0.  1.
</event>
<event>
11    1  0.8039394E-009  0.3559700E+03  0.7561462E-02  0.9789422E-01
         22   -1    0    0    0    0  0.00000000000E+00  0.00000000000E+00  0.20087192659E+04  0.20087192659E+04  0.00000000000E+00 0.  1.
         22   -1    0    0    0    0 -0.00000000000E+00 -0.00000000000E+00 -0.35487634935E+03  0.35487634935E+03  0.00000000000E+00 0.  1.
        -24    2    1    2    0    0 -0.29383499760E+03 -0.25707303717E+02 -0.89023790465E+02  0.31838749234E+03  0.80283801155E+02 0.  0.
         25    2    1    2    0    0  0.50474427840E+03 -0.91694530059E+02  0.35934782496E+03  0.63871161998E+03  0.12508797212E+03 0.  0.
         24    2    1    2    0    0 -0.21090928080E+03  0.11740183378E+03  0.13835188821E+04  0.14064965030E+04  0.76432980436E+02 0.  0.
        -13    1    5    5    0    0 -0.20747652157E+03  0.12370965840E+03  0.13705277759E+04  0.13916526043E+04  0.00000000000E+00 0.  1.
         14    1    5    5    0    0 -0.34327592216E+01 -0.63078246267E+01  0.12991106148E+02  0.14843898623E+02  0.00000000000E+00 0. -1.
         13    1    3    3    0    0 -0.13780002588E+03 -0.34414294832E+02 -0.77214891136E+02  0.16166425157E+03  0.00000000000E+00 0. -1.
        -14    1    3    3    0    0 -0.15603497172E+03  0.87069911147E+01 -0.11808899329E+02  0.15672324077E+03  0.00000000000E+00 0.  1.
          5    1    4    4  501    0  0.58060724244E+02 -0.50947172497E+02  0.33537396424E+02  0.84314242237E+02  0.41800000000E+01 0. -1.
         -5    1    4    4    0  501  0.44668355415E+03 -0.40747357561E+02  0.32581042854E+03  0.55439737774E+03  0.41800000000E+01 0. -1.
</event>
<event>
11    1  0.8039394E-009  0.1591958E+03  0.7561462E-02  0.1087836E+00
         22   -1    0    0    0    0  0.00000000000E+00  0.00000000000E+00  0.41757526887E+03  0.41757526887E+03  0.00000000000E+00 0. -1.
         22   -1    0    0    0    0 -0.00000000000E+00 -0.00000000000E+00 -0.24441809398E+03  0.24441809398E+03  0.00000000000E+00 0.  1.
         24    2    1    2    0    0  0.44839531611E+02 -0.76691969408E+01 -0.10592769450E+03  0.14025458554E+03  0.79882865040E+02 0.  0.
         25    2    1    2    0    0 -0.75658833582E+02 -0.85029889319E+02 -0.43976305627E+02  0.17474588373E+03  0.12509143555E+03 0.  0.
        -24    2    1    2    0    0  0.30819301971E+02  0.92699086260E+02  0.32306117501E+03  0.34699289358E+03  0.80576643207E+02 0.  0.
        -11    1    3    3    0    0  0.40437228263E+02  0.31855116530E+02 -0.68113325941E+02  0.85377649590E+02  0.00000000000E+00 0.  1.
         12    1    3    3    0    0  0.44023033481E+01 -0.39524313471E+02 -0.37814368556E+02  0.54876935951E+02  0.00000000000E+00 0. -1.
         13    1    5    5    0    0  0.48983180263E+02  0.44050108662E+02  0.11483383295E+03  0.13238796475E+03  0.00000000000E+00 0. -1.
        -14    1    5    5    0    0 -0.18163878292E+02  0.48648977598E+02  0.20822734206E+03  0.21460492883E+03  0.00000000000E+00 0.  1.
          5    1    4    4  501    0 -0.23466231084E+02 -0.10341630300E+03 -0.37284876212E+01  0.10619307768E+03  0.41800000000E+01 0.  1.
         -5    1    4    4    0  501 -0.52192602497E+02  0.18386413678E+02 -0.40247818005E+02  0.68552806052E+02  0.41800000000E+01 0.  1.
</event>
<event>
11    1  0.8039394E-009  0.1325827E+03  0.7561462E-02  0.1116136E+00
         22   -1    0    0    0    0  0.00000000000E+00  0.00000000000E+00  0.26216409267E+03  0.26216409267E+03  0.00000000000E+00 0. -1.
         22   -1    0    0    0    0 -0.00000000000E+00 -0.00000000000E+00 -0.10765982238E+04  0.10765982238E+04  0.00000000000E+00 0. -1.
         24    2    1    2    0    0  0.19436484879E+02  0.37677059179E+02 -0.79523855018E+03  0.80226122755E+03  0.97063833645E+02 0.  0.
         25    2    1    2    0    0 -0.78771053696E+02 -0.11030746486E+02 -0.24607407540E+03  0.28727451246E+03  0.12509052184E+03 0.  0.
        -24    2    1    2    0    0  0.59334568817E+02 -0.26646312694E+02  0.22687849444E+03  0.24922657647E+03  0.80058841754E+02 0.  0.
        -13    1    3    3    0    0 -0.31244437138E+02 -0.11929761520E+02 -0.32307810455E+03  0.32480455001E+03  0.00000000000E+00 0.  1.
         14    1    3    3    0    0  0.50680922018E+02  0.49606820699E+02 -0.47216044563E+03  0.47745667754E+03  0.00000000000E+00 0. -1.
         11    1    5    5    0    0  0.43335981611E+02 -0.54297092442E+02  0.17520874058E+03  0.18847886970E+03  0.00000000000E+00 0. -1.
        -12    1    5    5    0    0  0.15998587206E+02  0.27650779749E+02  0.51669753867E+02  0.60747706771E+02  0.00000000000E+00 0.  1.
          5    1    4    4  501    0 -0.10445358266E+03 -0.19672590397E+02 -0.23452984410E+03  0.25752530345E+03  0.41800000000E+01 0. -1.
         -5    1    4    4    0  501  0.25682528967E+02  0.86418439113E+01 -0.11544231306E+02  0.29749209011E+02  0.41800000000E+01 0. -1.
</event>
<event>
11    1  0.8039394E-009  0.2193127E+03  0.7561462E-02  0.1041649E+00
         22   -1    0    0    0    0  0.00000000000E+00  0.00000000000E+00  0.26763159210E+03  0.26763159210E+03  0.00000000000E+00 0.  1.
         22   -1    0    0    0    0 -0.00000000000E+00 -0.00000000000E+00 -0.57786765421E+03  0.57786765421E+03  0.00000000000E+00 0. -1.
        -24    2    1    2    0    0  0.14079431421E+03 -0.10522417232E+03 -0.35802631275E+03  0.40692232923E+03  0.80670788102E+02 0.  0.
         25    2    1    2    0    0 -0.20115078228E+03  0.50094645967E+02 -0.90601096110E+02  0.25850766203E+03  0.12508613812E+03 0.  0.
         24    2    1    2    0    0  0.60356468068E+02  0.55129526349E+02  0.13839134675E+03  0.18006925504E+03  0.81182534098E+02 0.  0.
        -11    1    5    5    0    0  0.72271133917E+02  0.24544411014E+02  0.12062864987E+03  0.14274738554E+03  0.00000000000E+00 0.  1.
         12    1    5    5    0    0 -0.11914665849E+02  0.30585115335E+02  0.17762696878E+02  0.37321869497E+02  0.00000000000E+00 0. -1.
         13    1    3    3    0    0  0.20983132915E+02 -0.29293591270E+02 -0.15577582687E+03  0.15988906965E+03  0.00000000000E+00 0. -1.
        -14    1    3    3    0    0  0.11981118129E+03 -0.75930581047E+02 -0.20225048588E+03  0.24703325958E+03  0.00000000000E+00 0.  1.
          5    1    4    4  501    0 -0.71447481059E+02  0.12319965719E+02 -0.99356178159E+02  0.12306765068E+03  0.41800000000E+01 0. -1.
         -5    1    4    4    0  501 -0.12970330122E+03  0.37774680248E+02  0.87550820492E+01  0.13544001136E+03  0.41800000000E+01 0. -1.
</event>
<event>
11    1  0.8039394E-009  0.1672279E+03  0.7561462E-02  0.1080470E+00
         22   -1    0    0    0    0  0.00000000000E+00  0.00000000000E+00  0.14969126982E+04  0.14969126982E+04  0.00000000000E+00 0.  1.
         22   -1    0    0    0    0 -0.00000000000E+00 -0.00000000000E+00 -0.21540216391E+03  0.21540216391E+03  0.00000000000E+00 0.  1.
        -24    2    1    2    0    0  0.54303539804E+02  0.32838492760E+02 -0.14231583731E+03  0.17968502590E+03  0.89474409426E+02 0.  0.
         25    2    1    2    0    0 -0.13864859459E+03  0.36839067607E+02  0.12880045751E+03  0.22982102433E+03  0.12509035008E+03 0.  0.
         24    2    1    2    0    0  0.84345054785E+02 -0.69677560368E+02  0.12950259141E+04  0.13028088119E+04  0.90827481668E+02 0.  0.
        -11    1    5    5    0    0  0.87832098973E+02 -0.48096343064E+02  0.12326893404E+04  0.12367500741E+04  0.00000000000E+00 0.  1.
         12    1    5    5    0    0 -0.34870441882E+01 -0.21581217304E+02  0.62336573737E+02  0.66058737823E+02  0.00000000000E+00 0. -1.
         13    1    3    3    0    0  0.54359043346E+02  0.35732370511E+00 -0.28606952397E+02  0.61427933379E+02  0.00000000000E+00 0. -1.
        -14    1    3    3    0    0 -0.55503541605E-01  0.32481169055E+02 -0.11370888491E+03  0.11825709252E+03  0.00000000000E+00 0.  1.
          5    1    4    4  501    0 -0.15756124125E+02 -0.28283048473E+02 -0.91311500940E+01  0.33897442092E+02  0.41800000000E+01 0.  1.
         -5    1    4    4    0  501 -0.12289247046E+03  0.65122116080E+02  0.13793160760E+03  0.19592358223E+03  0.41800000000E+01 0.  1.
</event>
<event>
11    1  0.8039394E-009  0.1669331E+03  0.7561462E-02  0.1080732E+00
         22   -1    0    0    0    0  0.00000000000E+00  0.00000000000E+00  0.10653730762E+03  0.10653730762E+03  0.00000000000E+00 0.  1.
         22   -1    0    0    0    0 -0.00000000000E+00 -0.00000000000E+00 -0.11228359069E+04  0.11228359069E+04  0.00000000000E+00 0. -1.
         24    2    1    2    0    0 -0.41667679872E+02 -0.11608422721E+03 -0.81599629950E+03  0.82920140809E+03  0.80704838873E+02 0.  0.
         25    2    1    2    0    0 -0.55873233438E+02  0.78165315657E+02 -0.21484408839E+03  0.26652720221E+03  0.12508849833E+03 0.  0.
        -24    2    1    2    0    0  0.97540913310E+02  0.37918911550E+02  0.14541788606E+02  0.13364460424E+03  0.81837295918E+02 0.  0.
        -13    1    3    3    0    0 -0.23497887861E+02 -0.12110593246E+03 -0.61032222208E+03  0.62266524905E+03  0.00000000000E+00 0.  1.
         14    1    3    3    0    0 -0.18169792011E+02  0.50217052521E+01 -0.20567407742E+03  0.20653615903E+03  0.00000000000E+00 0. -1.
         11    1    5    5    0    0  0.27818558192E+02  0.53174685976E+02  0.16524087822E+02  0.62245199710E+02  0.00000000000E+00 0. -1.
        -12    1    5    5    0    0  0.69722355118E+02 -0.15255774426E+02 -0.19822992160E+01  0.71399404526E+02  0.00000000000E+00 0.  1.
          5    1    4    4  501    0 -0.74691960735E+02  0.82355247077E+02 -0.21965142306E+03  0.24622245180E+03  0.41800000000E+01 0.  1.
         -5    1    4    4    0  501  0.18818727298E+02 -0.41899314199E+01  0.48073346677E+01  0.20304750405E+02  0.41800000000E+01 0.  1.
</event>
<event>
11    1  0.8039394E-009  0.1625063E+03  0.7561462E-02  0.1084743E+00
         22   -1    0    0    0    0  0.00000000000E+00  0.00000000000E+00  0.92993235095E+03  0.92993235095E+03  0.00000000000E+00 0.  1.
         22   -1    0    0    0    0 -0.00000000000E+00 -0.00000000000E+00 -0.16239427395E+04  0.16239427395E+04  0.00000000000E+00 0. -1.
         24    2    1    2    0    0  0.98359608884E+02 -0.33421542701E+02 -0.16054994416E+04  0.16108412908E+04  0.79934942044E+02 0.  0.
         25    2    1    2    0    0 -0.59229476448E+02  0.56589336004E+02  0.52127409030E+03  0.54229561177E+03  0.12508944599E+03 0.  0.
        -24    2    1    2    0    0 -0.39130132436E+02 -0.23167793303E+02  0.39021496273E+03  0.40073818791E+03  0.79091492588E+02 0.  0.
        -13    1    3    3    0    0  0.47469379358E+02 -0.46080801408E+02 -0.53765665665E+03  0.54171160471E+03  0.00000000000E+00 0.  1.
         14    1    3    3    0    0  0.50890229526E+02  0.12659258708E+02 -0.10678427850E+04  0.10691296861E+04  0.00000000000E+00 0. -1.
         13    1    5    5    0    0 -0.24041208052E+02  0.27875262975E+02  0.12865713757E+03  0.13381953900E+03  0.00000000000E+00 0. -1.
        -14    1    5    5    0    0 -0.15088924383E+02 -0.51043056278E+02  0.26155782515E+03  0.26691864890E+03  0.00000000000E+00 0.  1.
          5    1    4    4  501    0 -0.62924382214E+02  0.89661325875E+02  0.45499888862E+03  0.46801719229E+03  0.41800000000E+01 0. -1.
         -5    1    4    4    0  501  0.36949057663E+01 -0.33071989872E+02  0.66275201678E+02  0.74278419478E+02  0.41800000000E+01 0. -1.
</event>
<event>
11    1  0.8039394E-009  0.5502397E+03  0.7561462E-02  0.9287774E-01
         22   -1    0    0    0    0  0.00000000000E+00  0.00000000000E+00  0.84751650480E+03  0.84751650480E+03  0.00000000000E+00 0. -1.
         22   -1    0    0    0    0 -0.00000000000E+00 -0.00000000000E+00 -0.70776152085E+03  0.70776152085E+03  0.00000000000E+00 0. -1.
        -24    2    1    2    0    0  0.35510692255E+03  0.30115537774E+03 -0.39910384676E+03  0.61831927074E+03  0.78989569482E+02 0.  0.
         25    2    1    2    0    0 -0.47348453710E+03 -0.28657882642E+03  0.55517212000E+03  0.79383783672E+03  0.12508955811E+03 0.  0.
         24    2    1    2    0    0  0.11837761455E+03 -0.14576551322E+02 -0.16313289298E+02  0.14312091819E+03  0.77406319764E+02 0.  0.
        -13    1    5    5    0    0  0.29824807080E+02  0.28631120123E+02  0.68405581923E+01  0.41905290754E+02  0.00000000000E+00 0.  1.
         14    1    5    5    0    0  0.88552807474E+02 -0.43207671445E+02 -0.23153847490E+02  0.10121562743E+03  0.00000000000E+00 0. -1.
         11    1    3    3    0    0  0.32462331220E+03  0.24308464654E+03 -0.32801716410E+03  0.52159917576E+03  0.00000000000E+00 0. -1.
        -12    1    3    3    0    0  0.30483610349E+02  0.58070731200E+02 -0.71086682654E+02  0.96720094979E+02  0.00000000000E+00 0.  1.
          5    1    4    4  501    0 -0.11598893093E+03 -0.25638899633E+02  0.16789208221E+03  0.20570855340E+03  0.41800000000E+01 0. -1.
         -5    1    4    4    0  501 -0.35749560617E+03 -0.26093992678E+03  0.38728003780E+03  0.58812928332E+03  0.41800000000E+01 0. -1.
</event>
<event>
11    1  0.8039394E-009  0.8591860E+03  0.7561462E-02  0.8825850E-01
         22   -1    0    0    0    0  0.00000000000E+00  0.00000000000E+00  0.11479186344E+04  0.11479186344E+04  0.00000000000E+00 0. -1.
         22   -1    0    0    0    0 -0.00000000000E+00 -0.00000000000E+00 -0.10703683316E+04  0.10703683316E+04  0.00000000000E+00 0. -1.
         24    2    1    2    0    0  0.68281091272E+03 -0.51744063859E+03 -0.37691162906E+03  0.93940633296E+03  0.80289010967E+02 0.  0.
         25    2    1    2    0    0 -0.47377025354E+03  0.73039270457E+03  0.39534232592E+03  0.96430005361E+03  0.12508909902E+03 0.  0.
        -24    2    1    2    0    0 -0.20904065918E+03 -0.21295206598E+03  0.59119605951E+02  0.31458057940E+03  0.80120119410E+02 0.  0.
        -13    1    3    3    0    0  0.16192952817E+03 -0.83919908565E+02 -0.91867065822E+02  0.20421381180E+03  0.00000000000E+00 0.  1.
         14    1    3    3    0    0  0.52088138456E+03 -0.43352073003E+03 -0.28504456323E+03  0.73519252116E+03  0.00000000000E+00 0. -1.
         13    1    5    5    0    0 -0.14910833824E+03 -0.10965415761E+03  0.97218511278E+01  0.18534250781E+03  0.00000000000E+00 0. -1.
        -14    1    5    5    0    0 -0.59932320945E+02 -0.10329790837E+03  0.49397754824E+02  0.12923807159E+03  0.00000000000E+00 0.  1.
          5    1    4    4  501    0 -0.42405951565E+03  0.70350086092E+03  0.38281792536E+03  0.90625988022E+03  0.41800000000E+01 0. -1.
         -5    1    4    4    0  501 -0.49710737896E+02  0.26891843646E+02  0.12524400566E+02  0.58040173384E+02  0.41800000000E+01 0. -1.
</event>
<event>
11    1  0.8039394E-009  0.2475276E+03  0.7561462E-02  0.1025225E+00
         22   -1    0    0    0    0  0.00000000000E+00  0.00000000000E+00  0.20781664087E+03  0.20781664087E+03  0.00000000000E+00 0. -1.
         22   -1    0    0    0    0 -0.00000000000E+00 -0.00000000000E+00 -0.72911298950E+03  0.72911298950E+03  0.00000000000E+00 0.  1.
         24    2    1    2    0    0  0.51075784636E+02 -0.82001253087E+02 -0.36680223445E+03  0.38779982587E+03  0.80696248128E+02 0.  0.
         25    2    1    2    0    0  0.65221332999E+01  0.26677982661E+03 -0.15804478722E+03  0.33441290853E+03  0.12505928400E+03 0.  0.
        -24    2    1    2    0    0 -0.57597917936E+02 -0.18477857352E+03  0.35506730445E+01  0.21471689597E+03  0.92898314059E+02 0.  0.
        -13    1    3    3    0    0  0.30696912336E+02 -0.87747667983E+02 -0.34540938263E+03  0.35770042672E+03  0.00000000000E+00 0.  1.
         14    1    3    3    0    0  0.20378872300E+02  0.57464148960E+01 -0.21392851821E+02  0.30099399154E+02  0.00000000000E+00 0. -1.
         13    1    5    5    0    0 -0.47527217652E+02 -0.17819600359E+03  0.28882552329E+02  0.18667312056E+03  0.00000000000E+00 0. -1.
        -14    1    5    5    0    0 -0.10070700284E+02 -0.65825699325E+01 -0.25331879285E+02  0.28043775410E+02  0.00000000000E+00 0.  1.
          5    1    4    4  501    0  0.17240050486E+02  0.17405214285E+03 -0.32554908717E+02  0.17795691123E+03  0.41800000000E+01 0.  1.
         -5    1    4    4    0  501 -0.10717917186E+02  0.92727683756E+02 -0.12548987851E+03  0.15645599730E+03  0.41800000000E+01 0.  1.
</event>
<event>
11    1  0.8039394E-009  0.1610672E+03  0.7561462E-02  0.1086078E+00
         22   -1    0    0    0    0  0.00000000000E+00  0.00000000000E+00  0.57171367526E+03  0.57171367526E+03  0.00000000000E+00 0. -1.
         22   -1    0    0    0    0 -0.00000000000E+00 -0.00000000000E+00 -0.21442638051E+04  0.21442638051E+04  0.00000000000E+00 0. -1.
         24    2    1    2    0    0  0.97862456353E+02  0.19684855715E+02 -0.20056488677E+04  0.20095918355E+04  0.76599026800E+02 0.  0.
         25    2    1    2    0    0 -0.17349400598E+03 -0.31332748652E+02 -0.40690606229E+02  0.21996493438E+03  0.12508771191E+03 0.  0.
        -24    2    1    2    0    0  0.75631549624E+02  0.11647892937E+02  0.47378934400E+03  0.48642071056E+03  0.79202023062E+02 0.  0.
        -13    1    3    3    0    0 -0.67035284536E+01 -0.12120964472E+02 -0.39267569799E+03  0.39291991406E+03  0.00000000000E+00 0.  1.
         14    1    3    3    0    0  0.10456598481E+03  0.31805820187E+02 -0.16129731697E+04  0.16166719214E+04  0.00000000000E+00 0. -1.
         11    1    5    5    0    0  0.73124048092E+02  0.38424800006E+02  0.33360728743E+03  0.34368214078E+03  0.00000000000E+00 0. -1.
        -12    1    5    5    0    0  0.25075015322E+01 -0.26776907070E+02  0.14018205658E+03  0.14273856978E+03  0.00000000000E+00 0.  1.
          5    1    4    4  501    0 -0.12834650727E+03 -0.15792862268E+02 -0.84907453899E+02  0.15475460754E+03  0.41800000000E+01 0.  1.
         -5    1    4    4    0  501 -0.45147498711E+02 -0.15539886384E+02  0.44216847669E+02  0.65210326839E+02  0.41800000000E+01 0.  1.
</event>
<event>
11    1  0.8039394E-009  0.4617079E+03  0.7561462E-02  0.9483407E-01
         22   -1    0    0    0    0  0.00000000000E+00  0.00000000000E+00  0.31790089930E+03  0.31790089930E+03  0.00000000000E+00 0.  1.
         22   -1    0    0    0    0 -0.00000000000E+00 -0.00000000000E+00 -0.21635452578E+04  0.21635452578E+04  0.00000000000E+00 0.  1.
        -24    2    1    2    0    0 -0.50496976812E+02  0.13685766945E+02 -0.12612140969E+04  0.12651154393E+04  0.84373168820E+02 0.  0.
         25    2    1    2    0    0  0.33567084462E+03  0.31995676540E+03 -0.59968055146E+03  0.76831757321E+03  0.12509149395E+03 0.  0.
         24    2    1    2    0    0 -0.28517386781E+03 -0.33364253235E+03  0.15250289894E+02  0.44801314457E+03  0.88553554938E+02 0.  0.
        -11    1    5    5    0    0 -0.20640306989E+03 -0.17517494924E+03  0.53631548548E+01  0.27077158922E+03  0.00000000000E+00 0.  1.
         12    1    5    5    0    0 -0.78770797914E+02 -0.15846758311E+03  0.98871350395E+01  0.17724155534E+03  0.00000000000E+00 0. -1.
         13    1    3    3    0    0  0.19403087069E+02 -0.77917118199E+01 -0.48898051228E+03  0.48942735105E+03  0.00000000000E+00 0. -1.
        -14    1    3    3    0    0 -0.69900063881E+02  0.21477478765E+02 -0.77223358461E+03  0.77568808823E+03  0.00000000000E+00 0.  1.
          5    1    4    4  501    0  0.36658017894E+02  0.29994774216E+01 -0.17048816597E+02  0.40754652349E+02  0.41800000000E+01 0.  1.
         -5    1    4    4    0  501  0.29901282672E+03  0.31695728798E+03 -0.58263173486E+03  0.72756292086E+03  0.41800000000E+01 0.  1.
</event>
<event>
11    1  0.8039394E-009  0.8256688E+03  0.7561462E-02  0.8865188E-01
         22   -1    0    0    0    0  0.00000000000E+00  0.00000000000E+00  0.18510887413E+04  0.18510887413E+04  0.00000000000E+00 0.  1.
         22   -1    0    0    0    0 -0.00000000000E+00 -0.00000000000E+00 -0.60702192675E+03  0.60702192675E+03  0.00000000000E+00 0. -1.
         24    2    1    2    0    0  0.18114207456E+03  0.94150509152E+02 -0.13784597120E+03  0.25903002917E+03  0.80114135367E+02 0.  0.
         25    2    1    2    0    0  0.86968575427E+01  0.74817769860E+03  0.30847126081E+03  0.81893077427E+03  0.12509032852E+03 0.  0.
        -24    2    1    2    0    0 -0.18983893211E+03 -0.84232820775E+03  0.10734415249E+04  0.13801498646E+04  0.83554243359E+02 0.  0.
        -11    1    3    3    0    0  0.74571016523E+02  0.31683206189E+02 -0.10227846293E+03  0.13048197591E+03  0.00000000000E+00 0.  1.
         12    1    3    3    0    0  0.10657105804E+03  0.62467302962E+02 -0.35567508271E+02  0.12854805326E+03  0.00000000000E+00 0. -1.
         11    1    5    5    0    0 -0.13754731430E+03 -0.42868652531E+03  0.53793055028E+03  0.70147036829E+03  0.00000000000E+00 0. -1.
        -12    1    5    5    0    0 -0.52291617802E+02 -0.41364168244E+03  0.53551097462E+03  0.67867949629E+03  0.00000000000E+00 0.  1.
          5    1    4    4  501    0  0.42962889310E+02  0.41268678831E+03  0.11704771254E+03  0.43113087864E+03  0.41800000000E+01 0. -1.
         -5    1    4    4    0  501 -0.34266031767E+02  0.33549091029E+03  0.19142354828E+03  0.38779989564E+03  0.41800000000E+01 0. -1.
</event>
<event>
11    1  0.8039394E-009  0.1438636E+03  0.7561462E-02  0.1103319E+00
         22   -1    0    0    0    0  0.00000000000E+00  0.00000000000E+00  0.66756145979E+03  0.66756145979E+03  0.00000000000E+00 0.  1.
         22   -1    0    0    0    0 -0.00000000000E+00 -0.00000000000E+00 -0.47113432080E+03  0.47113432080E+03  0.00000000000E+00 0. -1.
         24    2    1    2    0    0 -0.51491016338E+02 -0.48357167595E+02 -0.43803997732E+03  0.45115651586E+03  0.81691123457E+02 0.  0.
         25    2    1    2    0    0  0.53154670038E+02  0.72191471866E+02  0.24853998793E+03  0.29233063909E+03  0.12509216361E+03 0.  0.
        -24    2    1    2    0    0 -0.16636537008E+01 -0.23834304271E+02  0.38592712839E+03  0.39520862563E+03  0.81726785977E+02 0.  0.
        -13    1    3    3    0    0  0.10276357156E+02 -0.42369969847E+02 -0.13637118919E+03  0.14317094364E+03  0.00000000000E+00 0.  1.
         14    1    3    3    0    0 -0.61767373493E+02 -0.59871977481E+01 -0.30166878813E+03  0.30798557222E+03  0.00000000000E+00 0. -1.
         13    1    5    5    0    0 -0.49073578982E+01 -0.36804612980E+02  0.72121015545E+02  0.81117831463E+02  0.00000000000E+00 0. -1.
        -14    1    5    5    0    0  0.32437041974E+01  0.12970308709E+02  0.31380611284E+03  0.31409079417E+03  0.00000000000E+00 0.  1.
          5    1    4    4  501    0 -0.93659460995E+01 -0.12180335213E+02 -0.59465955308E+01  0.16997526604E+02  0.41800000000E+01 0.  1.
         -5    1    4    4    0  501  0.62520616138E+02  0.84371807080E+02  0.25448658346E+03  0.27533311249E+03  0.41800000000E+01 0.  1.
</event>
<event>
11    1  0.8039394E-009  0.1861518E+03  0.7561462E-02  0.1064773E+00
         22   -1    0    0    0    0  0.00000000000E+00  0.00000000000E+00  0.10883673757E+04  0.10883673757E+04  0.00000000000E+00 0.  1.
         22   -1    0    0    0    0 -0.00000000000E+00 -0.00000000000E+00 -0.14796088261E+04  0.14796088261E+04  0.00000000000E+00 0.  1.
         24    2    1    2    0    0 -0.70604393935E+02  0.23230714433E+02 -0.12895046584E+04  0.12941871913E+04  0.81077588629E+02 0.  0.
         25    2    1    2    0    0  0.17416018485E+03 -0.11079351942E+03 -0.10145847693E+03  0.26181381045E+03  0.12508267215E+03 0.  0.
        -24    2    1    2    0    0 -0.10355579091E+03  0.87562804990E+02  0.99972168501E+03  0.10119752001E+04  0.79115809949E+02 0.  0.
        -13    1    3    3    0    0 -0.38250072145E+02 -0.18762230452E+01 -0.10821293680E+04  0.10828067960E+04  0.00000000000E+00 0.  1.
         14    1    3    3    0    0 -0.32354321791E+02  0.25106937478E+02 -0.20737529041E+03  0.21138039531E+03  0.00000000000E+00 0. -1.
         13    1    5    5    0    0 -0.19587799610E+02 -0.11392237778E+02  0.80179798971E+02  0.83320256470E+02  0.00000000000E+00 0. -1.
        -14    1    5    5    0    0 -0.83967991304E+02  0.98955042767E+02  0.91954188604E+03  0.92865494358E+03  0.00000000000E+00 0.  1.
          5    1    4    4  501    0  0.16999860278E+03 -0.82093112737E+02 -0.38985627847E+02  0.19281119180E+03  0.41800000000E+01 0.  1.
         -5    1    4    4    0  501  0.41615820736E+01 -0.28700406686E+02 -0.62472849078E+02  0.69002618655E+02  0.41800000000E+01 0.  1.
</event>
<event>
11    1  0.8039394E-009  0.3419146E+03  0.7561462E-02  0.9838631E-01
         22   -1    0    0    0    0  0.00000000000E+00  0.00000000000E+00  0.40384712967E+03  0.40384712967E+03  0.00000000000E+00 0.  1.
         22   -1    0    0    0    0 -0.00000000000E+00 -0.00000000000E+00 -0.11312325980E+04  0.11312325980E+04  0.00000000000E+00 0. -1.
         24    2    1    2    0    0 -0.15072608276E+02 -0.65527851109E+02 -0.27825256318E+03  0.29832654598E+03  0.83983071666E+02 0.  0.
         25    2    1    2    0    0 -0.13696756786E+03  0.33990475518E+03 -0.71826373445E+03  0.81599409270E+03  0.12509280498E+03 0.  0.
        -24    2    1    2    0    0  0.15204017614E+03 -0.27437690407E+03  0.26913082931E+03  0.42075908899E+03  0.78790272482E+02 0.  0.
        -11    1    3    3    0    0 -0.29221949904E+02 -0.51242113510E+02 -0.81817775833E+02  0.10086538056E+03  0.00000000000E+00 0.  1.
         12    1    3    3    0    0  0.14149341628E+02 -0.14285737598E+02 -0.19643478735E+03  0.19746116542E+03  0.00000000000E+00 0. -1.
         11    1    5    5    0    0  0.96609669829E+02 -0.22845099727E+03  0.18149587067E+03  0.30735002445E+03  0.00000000000E+00 0. -1.
        -12    1    5    5    0    0  0.55430506308E+02 -0.45925906798E+02  0.87634958634E+02  0.11340906454E+03  0.00000000000E+00 0.  1.
          5    1    4    4  501    0 -0.10455506433E+03  0.11339441069E+03 -0.23279503174E+03  0.27928668614E+03  0.41800000000E+01 0.  1.
         -5    1    4    4    0  501 -0.32412503532E+02  0.22651034449E+03 -0.48546870271E+03  0.53670740656E+03  0.41800000000E+01 0.  1.
</event>
<event>
11    1  0.8039394E-009  0.1687947E+03  0.7561462E-02  0.1079085E+00
         22   -1    0    0    0    0  0.00000000000E+00  0.00000000000E+00  0.36769864311E+03  0.36769864311E+03  0.00000000000E+00 0. -1.
         22   -1    0    0    0    0 -0.00000000000E+00 -0.00000000000E+00 -0.47367414523E+03  0.47367414523E+03  0.00000000000E+00 0. -1.
         24    2    1    2    0    0  0.22498264822E+02  0.11318321023E+03 -0.35520060242E+03  0.38283416128E+03  0.84130351725E+02 0.  0.
         25    2    1    2    0    0 -0.33297538744E+02 -0.98591174631E+02 -0.31811558580E+02  0.16579508678E+03  0.12508832775E+03 0.  0.
        -24    2    1    2    0    0  0.10799273923E+02 -0.14592035604E+02  0.28103665887E+03  0.29274354028E+03  0.79922618364E+02 0.  0.
        -11    1    3    3    0    0 -0.13438453007E+02  0.27197869006E+01 -0.62713148656E+01  0.15077090241E+02  0.00000000000E+00 0.  1.
         12    1    3    3    0    0  0.35936717828E+02  0.11046342333E+03 -0.34892928755E+03  0.36775707103E+03  0.00000000000E+00 0. -1.
         11    1    5    5    0    0  0.53823563863E+01  0.30043047463E+01  0.27229086852E+03  0.27236062984E+03  0.00000000000E+00 0. -1.
        -12    1    5    5    0    0  0.54169175366E+01 -0.17596340350E+02  0.87457903574E+01  0.20382910447E+02  0.00000000000E+00 0.  1.
          5    1    4    4  501    0 -0.23067381361E+02 -0.93977547692E+01 -0.65197859062E+02  0.69918918068E+02  0.41800000000E+01 0.  1.
         -5    1    4    4    0  501 -0.10230157383E+02 -0.89193419862E+02  0.33386300482E+02  0.95876168711E+02  0.41800000000E+01 0.  1.
</event>
<event>
11    1  0.8654550E-009  0.1637389E+03  0.7561462E-02  0.1083612E+00
         22   -1    0    0    0    0  0.00000000000E+00  0.00000000000E+00  0.75865571667E+03  0.75865571667E+03  0.00000000000E+00 0. -1.
         22   -1    0    0    0    0 -0.00000000000E+00 -0.00000000000E+00 -0.62011670919E+03  0.62011670919E+03  0.00000000000E+00 0. -1.
         24    2    1    2    0    0  0.41711114061E+02  0.57565593974E+01 -0.46317172657E+03  0.47220682654E+03  0.81720766790E+02 0.  0.
         25    2    1    2    0    0  0.18482623763E+02 -0.93513112236E+02 -0.10390142585E+03  0.18849078195E+03  0.12508780533E+03 0.  0.
        -24    2    1    2    0    0 -0.60193737824E+02  0.87756552839E+02  0.70561215991E+03  0.71807481737E+03  0.80115070311E+02 0.  0.
        -13    1    3    3    0    0  0.37227639706E+02 -0.10299693719E+02 -0.81697061745E+02  0.90368084779E+02  0.00000000000E+00 0.  1.
         14    1    3    3    0    0  0.44834743543E+01  0.16056253117E+02 -0.38147466483E+03  0.38183874176E+03  0.00000000000E+00 0. -1.
         13    1    5    5    0    0 -0.29022294085E+02  0.19913730215E+02  0.46051861149E+03  0.46186171279E+03  0.00000000000E+00 0. -1.
        -14    1    5    5    0    0 -0.31171443739E+02  0.67842822624E+02  0.24509354841E+03  0.25621310458E+03  0.00000000000E+00 0.  1.
          5    1    4    4  501    0 -0.30270931885E+02 -0.10193702516E+03 -0.81383693106E+02  0.13397113241E+03  0.41800000000E+01 0.  1.
         -5    1    4    4    0  501  0.48753555648E+02  0.84239129244E+01 -0.22517732748E+02  0.54519649535E+02  0.41800000000E+01 0.  1.
</event>
<event>
11    1  0.8039394E-009  0.1465445E+03  0.7561462E-02  0.1100463E+00
         22   -1    0    0    0    0  0.00000000000E+00  0.00000000000E+00  0.17031526067E+04  0.17031526067E+04  0.00000000000E+00 0.  1.
         22   -1    0    0    0    0 -0.00000000000E+00 -0.00000000000E+00 -0.50034656699E+03  0.50034656699E+03  0.00000000000E+00 0. -1.
         24    2    1    2    0    0  0.17019942009E+02  0.39318073461E+02 -0.47839868576E+03  0.48720814244E+03  0.81675468719E+02 0.  0.
         25    2    1    2    0    0 -0.39742833157E+02 -0.10627015726E+03  0.45293176401E+03  0.48339267351E+03  0.12509378421E+03 0.  0.
        -24    2    1    2    0    0  0.22722891147E+02  0.66952083796E+02  0.12282729614E+04  0.12328983577E+04  0.79906078395E+02 0.  0.
        -11    1    3    3    0    0  0.29665869325E+01  0.35276071892E+02 -0.69026484133E+02  0.77574850292E+02  0.00000000000E+00 0.  1.
         12    1    3    3    0    0  0.14053355077E+02  0.40420015687E+01 -0.40937220163E+03  0.40963329214E+03  0.00000000000E+00 0. -1.
         13    1    5    5    0    0 -0.17480462668E+02 -0.16823167274E+01  0.49737070508E+03  0.49768063558E+03  0.00000000000E+00 0. -1.
        -14    1    5    5    0    0  0.40203353815E+02  0.68634400523E+02  0.73090225634E+03  0.73521772212E+03  0.00000000000E+00 0.  1.
          5    1    4    4  501    0  0.52417610451E+01 -0.77053757653E+02  0.40177442674E+03  0.40915146341E+03  0.41800000000E+01 0.  1.
         -5    1    4    4    0  501 -0.44984594202E+02 -0.29216399604E+02  0.51157337263E+02  0.74241210100E+02  0.41800000000E+01 0.  1.
</event>
<event>
11    1  0.8039394E-009  0.2153176E+03  0.7561462E-02  0.1044191E+00
         22   -1    0    0    0    0  0.00000000000E+00  0.00000000000E+00  0.72242952855E+03  0.72242952855E+03  0.00000000000E+00 0. -1.
         22   -1    0    0    0    0 -0.00000000000E+00 -0.00000000000E+00 -0.10510976451E+04  0.10510976451E+04  0.00000000000E+00 0. -1.
        -24    2    1    2    0    0 -0.17382797743E+03 -0.52851675291E+02 -0.83754429351E+03  0.86086750247E+03  0.81258525117E+02 0.  0.
         25    2    1    2    0    0  0.10201051343E+03  0.13898328299E+03 -0.13629249415E+03  0.25287420476E+03  0.12508885509E+03 0.  0.
         24    2    1    2    0    0  0.71817463994E+02 -0.86131607698E+02  0.64516867115E+03  0.65978546638E+03  0.80609214333E+02 0.  0.
        -13    1    5    5    0    0  0.20788103144E+02 -0.62468912316E+02  0.18851893610E+03  0.19968449992E+03  0.00000000000E+00 0.  1.
         14    1    5    5    0    0  0.51029360851E+02 -0.23662695382E+02  0.45664973505E+03  0.46010096647E+03  0.00000000000E+00 0. -1.
         11    1    3    3    0    0 -0.17716638942E+03 -0.37680072040E+02 -0.72635300640E+03  0.74859629125E+03  0.00000000000E+00 0. -1.
        -12    1    3    3    0    0  0.33384119919E+01 -0.15171603251E+02 -0.11119128712E+03  0.11227121123E+03  0.00000000000E+00 0.  1.
          5    1    4    4  501    0 -0.13613282859E+02  0.80262812640E+02 -0.68540695082E+02  0.10650229972E+03  0.41800000000E+01 0. -1.
         -5    1    4    4    0  501  0.11562379629E+03  0.58720470349E+02 -0.67751799072E+02  0.14637190504E+03  0.41800000000E+01 0. -1.
</event>
<event>
11    1  0.8039394E-009  0.1997299E+03  0.7561462E-02  0.1054715E+00
         22   -1    0    0    0    0  0.00000000000E+00  0.00000000000E+00  0.29814449790E+04  0.29814449790E+04  0.00000000000E+00 0.  1.
         22   -1    0    0    0    0 -0.00000000000E+00 -0.00000000000E+00 -0.10247829949E+03  0.10247829949E+03  0.00000000000E+00 0. -1.
         24    2    1    2    0    0  0.14905001694E+03 -0.85948168700E+02  0.42304465747E+02  0.19583805129E+03  0.83425890804E+02 0.  0.
         25    2    1    2    0    0 -0.12332213190E+03  0.49730054260E+01  0.29251293450E+03  0.34123889131E+03  0.12508830920E+03 0.  0.
        -24    2    1    2    0    0 -0.25727885043E+02  0.80975163274E+02  0.25441492792E+04  0.25468463359E+04  0.80695739054E+02 0.  0.
        -11    1    3    3    0    0  0.28720266149E+02  0.66096685734E+01  0.32262095072E+02  0.43696500830E+02  0.00000000000E+00 0.  1.
         12    1    3    3    0    0  0.12032975079E+03 -0.92557837274E+02  0.10042370675E+02  0.15214155046E+03  0.00000000000E+00 0. -1.
         11    1    5    5    0    0  0.79812778427E+01  0.59764028687E+02  0.81049320910E+03  0.81273284782E+03  0.00000000000E+00 0. -1.
        -12    1    5    5    0    0 -0.33709162885E+02  0.21211134588E+02  0.17336560701E+04  0.17341134880E+04  0.00000000000E+00 0.  1.
          5    1    4    4  501    0 -0.56942417198E+02 -0.59809078944E+02  0.12979305775E+03  0.15389371346E+03  0.41800000000E+01 0.  1.
         -5    1    4    4    0  501 -0.66379714701E+02  0.64782084370E+02  0.16271987674E+03  0.18734517786E+03  0.41800000000E+01 0.  1.
</event>
<event>
11    1  0.8039394E-009  0.1900891E+03  0.7561462E-02  0.1061762E+00
         22   -1    0    0    0    0  0.00000000000E+00  0.00000000000E+00  0.37124932136E+03  0.37124932136E+03  0.00000000000E+00 0. -1.
         22   -1    0    0    0    0 -0.00000000000E+00 -0.00000000000E+00 -0.21614685886E+03  0.21614685886E+03  0.00000000000E+00 0.  1.
        -24    2    1    2    0    0  0.11948005240E+03  0.75507333207E+02 -0.66745559967E+02  0.17510370444E+03  0.78927164175E+02 0.  0.
         25    2    1    2    0    0 -0.84706508890E+02 -0.13263795361E+03  0.42848782603E+02  0.20555240138E+03  0.12509097552E+03 0.  0.
         24    2    1    2    0    0 -0.34773543506E+02  0.57130620404E+02  0.17899923987E+03  0.20674007440E+03  0.78915292383E+02 0.  0.
        -11    1    5    5    0    0  0.38267864424E+00  0.26709551991E+01 -0.82016404893E+01  0.86340808043E+01  0.00000000000E+00 0.  1.
         12    1    5    5    0    0 -0.35156222150E+02  0.54459665205E+02  0.18720088036E+03  0.19810599359E+03  0.00000000000E+00 0. -1.
         13    1    3    3    0    0  0.23266013184E+01 -0.13822054270E+02 -0.10044746778E+02  0.17244106117E+02  0.00000000000E+00 0. -1.
        -14    1    3    3    0    0  0.11715345108E+03  0.89329387477E+02 -0.56700813188E+02  0.15785959832E+03  0.00000000000E+00 0.  1.
          5    1    4    4  501    0  0.14347601979E+01 -0.76078154223E+02 -0.27158975243E+02  0.80901337585E+02  0.41800000000E+01 0.  1.
         -5    1    4    4    0  501 -0.86141269088E+02 -0.56559799388E+02  0.70007757846E+02  0.12465106380E+03  0.41800000000E+01 0.  1.
</event>
<event>
11    1  0.8039394E-009  0.1403674E+03  0.7561462E-02  0.1107149E+00
         22   -1    0    0    0    0  0.00000000000E+00  0.00000000000E+00  0.84572442951E+02  0.84572442951E+02  0.00000000000E+00 0. -1.
         22   -1    0    0    0    0 -0.00000000000E+00 -0.00000000000E+00 -0.17385460079E+04  0.17385460079E+04  0.00000000000E+00 0. -1.
         24    2    1    2    0    0  0.29692034188E+02  0.59882508736E+02 -0.15269923419E+04  0.15306581944E+04  0.82105811006E+02 0.  0.
         25    2    1    2    0    0  0.18862265137E+02 -0.31229258812E+02 -0.14213795061E+03  0.19282425157E+03  0.12508774256E+03 0.  0.
        -24    2    1    2    0    0 -0.48554299325E+02 -0.28653249925E+02  0.15156727502E+02  0.99636004910E+02  0.80740809828E+02 0.  0.
        -11    1    3    3    0    0 -0.20291718464E+02  0.24216567995E+01 -0.13046790478E+03  0.13205867044E+03  0.00000000000E+00 0.  1.
         12    1    3    3    0    0  0.49983752651E+02  0.57460851937E+02 -0.13965244371E+04  0.13985995240E+04  0.00000000000E+00 0. -1.
         13    1    5    5    0    0 -0.33967111032E+01 -0.37906307612E+01  0.41454679761E+02  0.41765979001E+02  0.00000000000E+00 0. -1.
        -14    1    5    5    0    0 -0.45157588222E+02 -0.24862619164E+02 -0.26297952259E+02  0.57870025909E+02  0.00000000000E+00 0.  1.
          5    1    4    4  501    0  0.69231147476E+02 -0.78468794958E+00 -0.60134149194E+02  0.91799541476E+02  0.41800000000E+01 0.  1.
         -5    1    4    4    0  501 -0.50368882339E+02 -0.30444570862E+02 -0.82003801412E+02  0.10102471009E+03  0.41800000000E+01 0.  1.
</event>
<event>
11    1  0.8039394E-009  0.2302923E+03  0.7561462E-02  0.1034955E+00
         22   -1    0    0    0    0  0.00000000000E+00  0.00000000000E+00  0.12947410724E+04  0.12947410724E+04  0.00000000000E+00 0. -1.
         22   -1    0    0    0    0 -0.00000000000E+00 -0.00000000000E+00 -0.27883202919E+04  0.27883202919E+04  0.00000000000E+00 0. -1.
         24    2    1    2    0    0 -0.80021877995E+02  0.17842176843E+03 -0.26946828772E+04  0.27032417201E+04  0.89230938233E+02 0.  0.
         25    2    1    2    0    0 -0.66911109701E+02 -0.16232863744E+03  0.56666269108E+02  0.22290202019E+03  0.12508621594E+03 0.  0.
        -24    2    1    2    0    0  0.14693298770E+03 -0.16093130993E+02  0.11444373886E+04  0.11569176240E+04  0.82904526057E+02 0.  0.
        -13    1    3    3    0    0 -0.24779566164E+01  0.32078739867E+02 -0.16286102289E+03  0.16600873048E+03  0.00000000000E+00 0.  1.
         14    1    3    3    0    0 -0.77543921379E+02  0.14634302856E+03 -0.25318218543E+04  0.25372329897E+04  0.00000000000E+00 0. -1.
         11    1    5    5    0    0  0.30016106871E+02  0.28684126212E+02  0.38465604100E+03  0.38689018552E+03  0.00000000000E+00 0. -1.
        -12    1    5    5    0    0  0.11691688083E+03 -0.44777257205E+02  0.75978134761E+03  0.77002743845E+03  0.00000000000E+00 0.  1.
          5    1    4    4  501    0 -0.13950270937E+02 -0.15818545031E+02 -0.35748869675E+02  0.41716789296E+02  0.41800000000E+01 0.  1.
         -5    1    4    4    0  501 -0.52960838765E+02 -0.14651009240E+03  0.92415138783E+02  0.18118523090E+03  0.41800000000E+01 0.  1.
</event>
<event>
11    1  0.8039394E-009  0.1414956E+03  0.7561462E-02  0.1105900E+00
         22   -1    0    0    0    0  0.00000000000E+00  0.00000000000E+00  0.21891744593E+04  0.21891744593E+04  0.00000000000E+00 0. -1.
         22   -1    0    0    0    0 -0.00000000000E+00 -0.00000000000E+00 -0.45297358585E+02  0.45297358585E+02  0.00000000000E+00 0.  1.
         24    2    1    2    0    0 -0.93464130427E+01  0.46446280069E+02  0.45912802620E+02  0.10422355539E+03  0.80684271611E+02 0.  0.
         25    2    1    2    0    0 -0.53196742620E+02 -0.17762805395E+02  0.30874935647E+03  0.33781382973E+03  0.12508640117E+03 0.  0.
        -24    2    1    2    0    0  0.62543155663E+02 -0.28683474674E+02  0.17892149416E+04  0.17924344328E+04  0.82442103070E+02 0.  0.
        -13    1    3    3    0    0  0.30698715622E+02  0.21593009721E+02 -0.12432017298E+01  0.37552826261E+02  0.00000000000E+00 0.  1.
         14    1    3    3    0    0 -0.40045128665E+02  0.24853270347E+02  0.47156004350E+02  0.66670729132E+02  0.00000000000E+00 0. -1.
         11    1    5    5    0    0  0.72581215686E+02 -0.31450741069E+01  0.95118497731E+03  0.95395533723E+03  0.00000000000E+00 0. -1.
        -12    1    5    5    0    0 -0.10038060023E+02 -0.25538400567E+02  0.83802996433E+03  0.83847909555E+03  0.00000000000E+00 0.  1.
          5    1    4    4  501    0 -0.25947973136E+02  0.27725018650E+02  0.17984867983E+02  0.42224422381E+02  0.41800000000E+01 0.  1.
         -5    1    4    4    0  501 -0.27248769484E+02 -0.45487824046E+02  0.29076448849E+03  0.29558940735E+03  0.41800000000E+01 0.  1.
</event>
<event>
11    1  0.8039394E-009  0.1408554E+03  0.7561462E-02  0.1106607E+00
         22   -1    0    0    0    0  0.00000000000E+00  0.00000000000E+00  0.68543964024E+03  0.68543964024E+03  0.00000000000E+00 0. -1.
         22   -1    0    0    0    0 -0.00000000000E+00 -0.00000000000E+00 -0.21438158961E+03  0.21438158961E+03  0.00000000000E+00 0.  1.
         24    2    1    2    0    0 -0.34549078882E+02 -0.22260207442E+01 -0.17611733220E+03  0.19596241435E+03  0.78647054081E+02 0.  0.
         25    2    1    2    0    0 -0.32883860119E+02  0.27356186744E+02  0.17858852120E+03  0.22219464736E+03  0.12508753816E+03 0.  0.
        -24    2    1    2    0    0  0.67432939001E+02 -0.25130166000E+02  0.46858686162E+03  0.48166416814E+03  0.85135171815E+02 0.  0.
        -11    1    3    3    0    0 -0.12575893386E+02  0.29993911537E+02 -0.13668832463E+03  0.14050439820E+03  0.00000000000E+00 0.  1.
         12    1    3    3    0    0 -0.21973185495E+02 -0.32219932281E+02 -0.39429007575E+02  0.55458016150E+02  0.00000000000E+00 0. -1.
         13    1    5    5    0    0  0.67383101295E+02  0.51714988417E+00  0.43053149425E+03  0.43577301124E+03  0.00000000000E+00 0. -1.
        -14    1    5    5    0    0  0.49837705838E-01 -0.25647315884E+02  0.38055367375E+02  0.45891156903E+02  0.00000000000E+00 0.  1.
          5    1    4    4  501    0  0.42023769912E+02  0.32869288439E+02  0.50112982008E+02  0.73315555825E+02  0.41800000000E+01 0. -1.
         -5    1    4    4    0  501 -0.74907630031E+02 -0.55131016949E+01  0.12847553919E+03  0.14887909154E+03  0.41800000000E+01 0. -1.
</event>
<event>
11    1  0.8039394E-009  0.1497486E+03  0.7561462E-02  0.1097136E+00
         22   -1    0    0    0    0  0.00000000000E+00  0.00000000000E+00  0.25828197771E+03  0.25828197771E+03  0.00000000000E+00 0. -1.
         22   -1    0    0    0    0 -0.00000000000E+00 -0.00000000000E+00 -0.99306035665E+03  0.99306035665E+03  0.00000000000E+00 0. -1.
        -24    2    1    2    0    0 -0.20499250768E+01 -0.52480178339E+02 -0.90251303132E+03  0.90758290788E+03  0.80116113540E+02 0.  0.
         25    2    1    2    0    0  0.14377174551E+02 -0.40757681613E+02 -0.36671589666E+01  0.13239629202E+03  0.12508972111E+03 0.  0.
         24    2    1    2    0    0 -0.12327249474E+02  0.93237859952E+02  0.17140181135E+03  0.21136313447E+03  0.80315216936E+02 0.  0.
        -11    1    5    5    0    0 -0.42593058045E+02  0.41389918656E+02  0.57804062744E+02  0.82877039218E+02  0.00000000000E+00 0.  1.
         12    1    5    5    0    0  0.30265808570E+02  0.51847941296E+02  0.11359774860E+03  0.12848609525E+03  0.00000000000E+00 0. -1.
         11    1    3    3    0    0  0.76557049049E+01 -0.44191692354E+02 -0.20054830388E+03  0.20550215980E+03  0.00000000000E+00 0. -1.
        -12    1    3    3    0    0 -0.97056299817E+01 -0.82884859849E+01 -0.70196472744E+03  0.70208074808E+03  0.00000000000E+00 0.  1.
          5    1    4    4  501    0  0.30150223868E+02 -0.42145821501E+02 -0.56679980682E+02  0.76911630325E+02  0.41800000000E+01 0. -1.
         -5    1    4    4    0  501 -0.15773049316E+02  0.13881398877E+01  0.53012821715E+02  0.55484661694E+02  0.41800000000E+01 0. -1.
</event>
<event>
11    1  0.8039394E-009  0.1820213E+03  0.7561462E-02  0.1068019E+00
         22   -1    0    0    0    0  0.00000000000E+00  0.00000000000E+00  0.17600578677E+04  0.17600578677E+04  0.00000000000E+00 0. -1.
         22   -1    0    0    0    0 -0.00000000000E+00 -0.00000000000E+00 -0.54389143669E+02  0.54389143669E+02  0.00000000000E+00 0.  1.
        -24    2    1    2    0    0  0.22107076501E+02 -0.21117535833E+02  0.15751857386E+02  0.89105735568E+02  0.82201204060E+02 0.  0.
         25    2    1    2    0    0 -0.14662476300E+03  0.11535942519E+02  0.79553128832E+03  0.81862608384E+03  0.12508691120E+03 0.  0.
         24    2    1    2    0    0  0.12451768650E+03  0.95815933133E+01  0.89438557832E+03  0.90671519195E+03  0.81304461327E+02 0.  0.
        -11    1    5    5    0    0 -0.40159963081E+01 -0.14873274101E+02  0.52170142806E+02  0.54397300570E+02  0.00000000000E+00 0.  1.
         12    1    5    5    0    0  0.12853368281E+03  0.24454867414E+02  0.84221543551E+03  0.85231789138E+03  0.00000000000E+00 0. -1.
         11    1    3    3    0    0  0.29914813436E+01 -0.10220034449E+02  0.48498141892E+02  0.49653477539E+02  0.00000000000E+00 0. -1.
        -12    1    3    3    0    0  0.19115595157E+02 -0.10897501384E+02 -0.32746284506E+02  0.39452258029E+02  0.00000000000E+00 0.  1.
          5    1    4    4  501    0  0.72925911604E+01 -0.27311390937E+02  0.64509583454E+02  0.70555316725E+02  0.41800000000E+01 0.  1.
         -5    1    4    4    0  501 -0.15391735416E+03  0.38847333456E+02  0.73102170486E+03  0.74807076711E+03  0.41800000000E+01 0.  1.
</event>
<event>
11    1  0.8039394E-009  0.1529968E+03  0.7561462E-02  0.1093855E+00
         22   -1    0    0    0    0  0.00000000000E+00  0.00000000000E+00  0.89857502587E+03  0.89857502587E+03  0.00000000000E+00 0.  1.
         22   -1    0    0    0    0 -0.00000000000E+00 -0.00000000000E+00 -0.20966135743E+04  0.20966135743E+04  0.00000000000E+00 0.  1.
         24    2    1    2    0    0 -0.87407515491E+02 -0.10270926512E+02 -0.20102166385E+04  0.20137367849E+04  0.80120782393E+02 0.  0.
         25    2    1    2    0    0  0.92083096341E+02  0.95838955138E+00 -0.97056815051E+01  0.15563442106E+03  0.12509059766E+03 0.  0.
        -24    2    1    2    0    0 -0.46755808509E+01  0.93125369610E+01  0.82188377151E+03  0.82581739421E+03  0.79830134148E+02 0.  0.
        -11    1    3    3    0    0 -0.89783181750E+02  0.27234880252E+01 -0.19509112302E+04  0.19529779991E+04  0.00000000000E+00 0.  1.
         12    1    3    3    0    0  0.23756662597E+01 -0.12994414538E+02 -0.59305408285E+02  0.60758785795E+02  0.00000000000E+00 0. -1.
         11    1    5    5    0    0  0.19996373388E+01 -0.35273222468E+02  0.38110451361E+03  0.38273861716E+03  0.00000000000E+00 0. -1.
        -12    1    5    5    0    0 -0.66752181897E+01  0.44585759429E+02  0.44077925790E+03  0.44307877705E+03  0.00000000000E+00 0.  1.
          5    1    4    4  501    0  0.89354099677E+02 -0.33886651766E+02  0.32178437302E+02  0.10092266606E+03  0.41800000000E+01 0. -1.
         -5    1    4    4    0  501  0.27289966648E+01  0.34845041318E+02 -0.41884118807E+02  0.54711755002E+02  0.41800000000E+01 0. -1.
</event>
<event>
11    1  0.8039394E-009  0.1425428E+03  0.7561462E-02  0.1104752E+00
         22   -1    0    0    0    0  0.00000000000E+00  0.00000000000E+00  0.40651572360E+04  0.40651572360E+04  0.00000000000E+00 0.  1.
         22   -1    0    0    0    0 -0.00000000000E+00 -0.00000000000E+00 -0.84822963982E+03  0.84822963982E+03  0.00000000000E+00 0. -1.
        -24    2    1    2    0    0 -0.65390376914E+02  0.18851555535E+02 -0.82257680934E+03  0.82939252470E+03  0.81412961114E+02 0.  0.
         25    2    1    2    0    0  0.94536907826E+02 -0.67017381663E+01  0.26111651187E+03  0.30464912706E+03  0.12508843916E+03 0.  0.
         24    2    1    2    0    0 -0.29146530913E+02 -0.12149817369E+02  0.37783878937E+04  0.37793452241E+04  0.78981703048E+02 0.  0.
        -11    1    5    5    0    0 -0.26688727487E+02 -0.42199479228E+02  0.16832159816E+04  0.16839563904E+04  0.00000000000E+00 0.  1.
         12    1    5    5    0    0 -0.24578034260E+01  0.30049661859E+02  0.20951719121E+04  0.20953888337E+04  0.00000000000E+00 0. -1.
         11    1    3    3    0    0 -0.79177453343E+02  0.22299898805E+02 -0.78359879350E+03  0.78790445092E+03  0.00000000000E+00 0. -1.
        -12    1    3    3    0    0  0.13787076429E+02 -0.34483432694E+01 -0.38978015837E+02  0.41488073785E+02  0.00000000000E+00 0.  1.
          5    1    4    4  501    0  0.83427314902E+02 -0.17082440924E+01  0.27398694098E+03  0.28644257924E+03  0.41800000000E+01 0. -1.
         -5    1    4    4    0  501  0.11109592924E+02 -0.49934940739E+01 -0.12870429116E+02  0.18206547823E+02  0.41800000000E+01 0. -1.
</event>
<event>
11    1  0.8039394E-009  0.1465794E+03  0.7561462E-02  0.1100426E+00
         22   -1    0    0    0    0  0.00000000000E+00  0.00000000000E+00  0.18496031098E+03  0.18496031098E+03  0.00000000000E+00 0. -1.
         22   -1    0    0    0    0 -0.00000000000E+00 -0.00000000000E+00 -0.11227291130E+04  0.11227291130E+04  0.00000000000E+00 0. -1.
         24    2    1    2    0    0  0.77544446711E+02 -0.10211802983E+02 -0.88358722025E+03  0.89063504369E+03  0.79918603203E+02 0.  0.
         25    2    1    2    0    0 -0.56015111849E+02  0.52234966800E+02 -0.19753189244E+03  0.24603251330E+03  0.12508782738E+03 0.  0.
        -24    2    1    2    0    0 -0.21529334862E+02 -0.42023163816E+02  0.14335031066E+03  0.17102186700E+03  0.80434500486E+02 0.  0.
        -13    1    3    3    0    0  0.71197325452E+01  0.25430614876E+02 -0.37824791019E+03  0.37916868058E+03  0.00000000000E+00 0.  1.
         14    1    3    3    0    0  0.70424714165E+02 -0.35642417860E+02 -0.50533931005E+03  0.51146636312E+03  0.00000000000E+00 0. -1.
         13    1    5    5    0    0 -0.17714509745E+02 -0.61614331754E+02  0.69637503712E+02  0.94654696958E+02  0.00000000000E+00 0. -1.
        -14    1    5    5    0    0 -0.38148251173E+01  0.19591167937E+02  0.73712806947E+02  0.76367170039E+02  0.00000000000E+00 0.  1.
          5    1    4    4  501    0 -0.52491298571E+02  0.92095441066E+02 -0.13537794166E+03  0.17199292479E+03  0.41800000000E+01 0.  1.
         -5    1    4    4    0  501 -0.35238132777E+01 -0.39860474266E+02 -0.62153950784E+02  0.74039588510E+02  0.41800000000E+01 0.  1.
</event>
<event>
11    1  0.8039394E-009  0.1276949E+03  0.7561462E-02  0.1122134E+00
         22   -1    0    0    0    0  0.00000000000E+00  0.00000000000E+00  0.44012031333E+03  0.44012031333E+03  0.00000000000E+00 0. -1.
         22   -1    0    0    0    0 -0.00000000000E+00 -0.00000000000E+00 -0.61577185985E+03  0.61577185985E+03  0.00000000000E+00 0. -1.
        -24    2    1    2    0    0  0.75961594815E+01 -0.23467246775E+02 -0.54759576245E+03  0.55621685001E+03  0.94380357466E+02 0.  0.
         25    2    1    2    0    0  0.11567172176E+02  0.48808954544E+02  0.18868983384E+02  0.13608665581E+03  0.12508967120E+03 0.  0.
         24    2    1    2    0    0 -0.19163331658E+02 -0.25341707769E+02  0.35307523255E+03  0.36358866736E+03  0.80778485741E+02 0.  0.
        -13    1    5    5    0    0  0.80906059578E+01  0.10502028132E+02  0.77831337044E+01  0.15372952544E+02  0.00000000000E+00 0.  1.
         14    1    5    5    0    0 -0.27253937615E+02 -0.35843735902E+02  0.34529209884E+03  0.34821571481E+03  0.00000000000E+00 0. -1.
         11    1    3    3    0    0  0.15828142468E+01 -0.56509631516E+02 -0.43678897753E+03  0.44043212263E+03  0.00000000000E+00 0. -1.
        -12    1    3    3    0    0  0.60133452348E+01  0.33042384741E+02 -0.11080678492E+03  0.11578472738E+03  0.00000000000E+00 0.  1.
          5    1    4    4  501    0 -0.21152549130E+02 -0.35274786297E+02 -0.74485889555E+01  0.42008270143E+02  0.41800000000E+01 0. -1.
         -5    1    4    4    0  501  0.32719721306E+02  0.84083740842E+02  0.26317572340E+02  0.94078385669E+02  0.41800000000E+01 0. -1.
</event>
<event>
11    1  0.8039394E-009  0.1372090E+03  0.7561462E-02  0.1110716E+00
         22   -1    0    0    0    0  0.00000000000E+00  0.00000000000E+00  0.22902979928E+03  0.22902979928E+03  0.00000000000E+00 0.  1.
         22   -1    0    0    0    0 -0.00000000000E+00 -0.00000000000E+00 -0.69009015356E+03  0.69009015356E+03  0.00000000000E+00 0. -1.
         24    2    1    2    0    0 -0.29126122500E+02  0.42655586805E+02 -0.46929408878E+03  0.47902655379E+03  0.81004119471E+02 0.  0.
         25    2    1    2    0    0  0.82350031979E+02 -0.44206607302E+02 -0.17494244302E+03  0.23449749131E+03  0.12509381745E+03 0.  0.
        -24    2    1    2    0    0 -0.53223909479E+02  0.15510204968E+01  0.18317617751E+03  0.20559590774E+03  0.76687515726E+02 0.  0.
        -11    1    3    3    0    0 -0.32113805661E+02 -0.38150672778E+01 -0.70984858461E+02  0.78004495916E+02  0.00000000000E+00 0.  1.
         12    1    3    3    0    0  0.29876831615E+01  0.46470654083E+02 -0.39830923032E+03  0.40102205787E+03  0.00000000000E+00 0. -1.
         13    1    5    5    0    0 -0.12270751017E+02 -0.24669163656E+02  0.16826033608E+02  0.32283964641E+02  0.00000000000E+00 0. -1.
        -14    1    5    5    0    0 -0.40953158462E+02  0.26220184153E+02  0.16635014390E+03  0.17331194310E+03  0.00000000000E+00 0.  1.
          5    1    4    4  501    0  0.31822798694E+02 -0.21182037596E+02  0.11322191619E+02  0.40087824293E+02  0.41800000000E+01 0. -1.
         -5    1    4    4    0  501  0.50527233284E+02 -0.23024569705E+02 -0.18626463463E+03  0.19440966701E+03  0.41800000000E+01 0. -1.
</event>
<event>
11    1  0.8039394E-009  0.2840296E+03  0.7561462E-02  0.1007186E+00
         22   -1    0    0    0    0  0.00000000000E+00  0.00000000000E+00  0.39868566678E+03  0.39868566678E+03  0.00000000000E+00 0. -1.
         22   -1    0    0    0    0 -0.00000000000E+00 -0.00000000000E+00 -0.41252396963E+03  0.41252396963E+03  0.00000000000E+00 0.  1.
        -24    2    1    2    0    0 -0.16099912754E+03 -0.19377047735E+03 -0.22858285147E+03  0.35584842262E+03  0.10445220406E+03 0.  0.
         25    2    1    2    0    0  0.13620391043E+03  0.23050986197E+03  0.10696926072E+03  0.31428812013E+03  0.12509315740E+03 0.  0.
         24    2    1    2    0    0  0.24795217108E+02 -0.36739384624E+02  0.10777528790E+03  0.14107309366E+03  0.79507986391E+02 0.  0.
        -11    1    5    5    0    0 -0.19779758672E+02  0.81954946732E+01  0.53751380284E+02  0.57858585089E+02  0.00000000000E+00 0.  1.
         12    1    5    5    0    0  0.44574975780E+02 -0.44934879297E+02  0.54023907618E+02  0.83214508576E+02  0.00000000000E+00 0. -1.
         13    1    3    3    0    0  0.25900708658E+01  0.91554496300E+01 -0.55802569525E+00  0.95311131404E+01  0.00000000000E+00 0. -1.
        -14    1    3    3    0    0 -0.16358919841E+03 -0.20292592698E+03 -0.22802482577E+03  0.34631730948E+03  0.00000000000E+00 0.  1.
          5    1    4    4  501    0  0.13516094236E+03  0.14862958219E+03  0.11563736655E+03  0.23183767162E+03  0.41800000000E+01 0.  1.
         -5    1    4    4    0  501  0.10429680705E+01  0.81880279784E+02 -0.86681058218E+01  0.82450448504E+02  0.41800000000E+01 0.  1.
</event>
<event>
11    1  0.8039394E-009  0.1388970E+03  0.7561462E-02  0.1108796E+00
         22   -1    0    0    0    0  0.00000000000E+00  0.00000000000E+00  0.11311711273E+04  0.11311711273E+04  0.00000000000E+00 0. -1.
         22   -1    0    0    0    0 -0.00000000000E+00 -0.00000000000E+00 -0.39894877749E+03  0.39894877749E+03  0.00000000000E+00 0.  1.
        -24    2    1    2    0    0  0.12087872931E+02 -0.25044871078E+02 -0.37896628721E+03  0.38842257148E+03  0.80518848439E+02 0.  0.
         25    2    1    2    0    0  0.65673735684E+01  0.77358999258E+02  0.45428983111E+03  0.47755151023E+03  0.12509456067E+03 0.  0.
         24    2    1    2    0    0 -0.18655246499E+02 -0.52314128180E+02  0.65689880586E+03  0.66414582303E+03  0.80553379064E+02 0.  0.
        -13    1    5    5    0    0  0.17830555665E+02 -0.56936933710E+02  0.34967638166E+03  0.35472991843E+03  0.00000000000E+00 0.  1.
         14    1    5    5    0    0 -0.36485802164E+02  0.46228055305E+01  0.30722242420E+03  0.30941590460E+03  0.00000000000E+00 0. -1.
         13    1    3    3    0    0  0.17692474240E+02 -0.23680552127E+02 -0.41740469374E+02  0.51147423956E+02  0.00000000000E+00 0. -1.
        -14    1    3    3    0    0 -0.56046013094E+01 -0.13643189516E+01 -0.33722581784E+03  0.33727514753E+03  0.00000000000E+00 0.  1.
          5    1    4    4  501    0 -0.56211032526E+02  0.58607442261E+02  0.23710772689E+03  0.25066323826E+03  0.41800000000E+01 0.  1.
         -5    1    4    4    0  501  0.62778406094E+02  0.18751556997E+02  0.21718210423E+03  0.22688827197E+03  0.41800000000E+01 0.  1.
</event>
<event>
11    1  0.8039394E-009  0.1377702E+03  0.7561462E-02  0.1110074E+00
         22   -1    0    0    0    0  0.00000000000E+00  0.00000000000E+00  0.44822788235E+03  0.44822788235E+03  0.00000000000E+00 0.  1.
         22   -1    0    0    0    0 -0.00000000000E+00 -0.00000000000E+00 -0.64328717004E+02  0.64328717004E+02  0.00000000000E+00 0.  1.
         24    2    1    2    0    0  0.53002594149E+02  0.24137369261E+02  0.47171000897E+02  0.10987730539E+03  0.80349432679E+02 0.  0.
         25    2    1    2    0    0 -0.54290307918E+02 -0.16600768921E+02  0.17718675228E+03  0.22420129637E+03  0.12509217821E+03 0.  0.
        -24    2    1    2    0    0  0.12877137695E+01 -0.75366003402E+01  0.15954141217E+03  0.17847799760E+03  0.79639656438E+02 0.  0.
        -13    1    3    3    0    0  0.65690226475E+02 -0.22711646599E+01  0.46601839265E+02  0.80573540732E+02  0.00000000000E+00 0.  1.
         14    1    3    3    0    0 -0.12687632327E+02  0.26408533921E+02  0.56916163254E+00  0.29303764654E+02  0.00000000000E+00 0. -1.
         13    1    5    5    0    0 -0.10628289499E+02  0.34591356057E+02  0.69474874364E+02  0.78334415294E+02  0.00000000000E+00 0. -1.
        -14    1    5    5    0    0  0.11916003268E+02 -0.42127956397E+02  0.90066537808E+02  0.10014358231E+03  0.00000000000E+00 0.  1.
          5    1    4    4  501    0  0.10650264889E+02  0.24295093029E+02 -0.42205926459E+01  0.27183919692E+02  0.41800000000E+01 0. -1.
         -5    1    4    4    0  501 -0.64940572807E+02 -0.40895861950E+02  0.18140734492E+03  0.19701737668E+03  0.41800000000E+01 0. -1.
</event>
<event>
11    1  0.8039394E-009  0.2035987E+03  0.7561462E-02  0.1052008E+00
         22   -1    0    0    0    0  0.00000000000E+00  0.00000000000E+00  0.56249069503E+03  0.56249069503E+03  0.00000000000E+00 0. -1.
         22   -1    0    0    0    0 -0.00000000000E+00 -0.00000000000E+00 -0.62152610232E+03  0.62152610232E+03  0.00000000000E+00 0. -1.
        -24    2    1    2    0    0 -0.11836615494E+03 -0.93874368322E+02 -0.38069370658E+03  0.41760460808E+03  0.81504397445E+02 0.  0.
         25    2    1    2    0    0  0.16376630875E+03  0.10203366060E+03 -0.15721471074E+03  0.27856141371E+03  0.12509885753E+03 0.  0.
         24    2    1    2    0    0 -0.45400153814E+02 -0.81592922819E+01  0.47887301002E+03  0.48785077556E+03  0.80939925052E+02 0.  0.
        -11    1    5    5    0    0 -0.95559872399E+00  0.16062797994E+02  0.17750071620E+02  0.23958123692E+02  0.00000000000E+00 0.  1.
         12    1    5    5    0    0 -0.44444555090E+02 -0.24222090276E+02  0.46112293840E+03  0.46389265187E+03  0.00000000000E+00 0. -1.
         13    1    3    3    0    0 -0.12101301249E+03 -0.55823710450E+02 -0.28638723050E+03  0.31587668738E+03  0.00000000000E+00 0. -1.
        -14    1    3    3    0    0  0.26468575533E+01 -0.38050657872E+02 -0.94306476081E+02  0.10172792070E+03  0.00000000000E+00 0.  1.
          5    1    4    4  501    0  0.40495457503E+02  0.48703546412E+02 -0.12527652670E+03  0.14044072790E+03  0.41800000000E+01 0.  1.
         -5    1    4    4    0  501  0.12327085125E+03  0.53330114192E+02 -0.31938184033E+02  0.13812068580E+03  0.41800000000E+01 0.  1.
</event>
<event>
11    1  0.8039394E-009  0.1927377E+04  0.7561462E-02  0.8097417E-01
         22   -1    0    0    0    0  0.00000000000E+00  0.00000000000E+00  0.36621198755E+04  0.36621198755E+04  0.00000000000E+00 0.  1.
         22   -1    0    0    0    0 -0.00000000000E+00 -0.00000000000E+00 -0.28276019971E+04  0.28276019971E+04  0.00000000000E+00 0.  1.
        -24    2    1    2    0    0  0.22985200179E+03  0.43141280012E+03 -0.14296990595E+04  0.15130162408E+04  0.78929066336E+02 0.  0.
         25    2    1    2    0    0 -0.20939506062E+04 -0.30435341935E+03  0.10791288761E+03  0.21223931930E+04  0.12509008389E+03 0.  0.
         24    2    1    2    0    0  0.18640986044E+04 -0.12705938078E+03  0.21563040503E+04  0.28543124388E+04  0.80278561700E+02 0.  0.
        -13    1    5    5    0    0  0.15294468484E+04 -0.11015243520E+03  0.17222179957E+04  0.23059436345E+04  0.00000000000E+00 0.  1.
         14    1    5    5    0    0  0.33465175602E+03 -0.16906945577E+02  0.43408605465E+03  0.54836880424E+03  0.00000000000E+00 0. -1.
         11    1    3    3    0    0  0.75555588230E+02  0.86065834212E+02 -0.39867209651E+03  0.41479563072E+03  0.00000000000E+00 0. -1.
        -12    1    3    3    0    0  0.15429641356E+03  0.34534696591E+03 -0.10310269630E+04  0.10982206101E+04  0.00000000000E+00 0.  1.
          5    1    4    4  501    0 -0.58899880788E+03 -0.69615538058E+02 -0.23513618015E+02  0.59357921245E+03  0.41800000000E+01 0.  1.
         -5    1    4    4    0  501 -0.15049517984E+04 -0.23473788129E+03  0.13142650563E+03  0.15288139805E+04  0.41800000000E+01 0.  1.
</event>
<event>
11    1  0.8039394E-009  0.1537244E+03  0.7561462E-02  0.1093133E+00
         22   -1    0    0    0    0  0.00000000000E+00  0.00000000000E+00  0.22843901038E+04  0.22843901038E+04  0.00000000000E+00 0. -1.
         22   -1    0    0    0    0 -0.00000000000E+00 -0.00000000000E+00 -0.81179523534E+03  0.81179523534E+03  0.00000000000E+00 0. -1.
         24    2    1    2    0    0 -0.14754334016E+02 -0.16638466847E+02 -0.70287501557E+03  0.70772150752E+03  0.79636145933E+02 0.  0.
         25    2    1    2    0    0  0.73886130108E+02 -0.50387430438E+02 -0.48508203852E+02  0.16124676206E+03  0.12509763813E+03 0.  0.
        -24    2    1    2    0    0 -0.59131796092E+02  0.67025897286E+02  0.22239780879E+04  0.22272170696E+04  0.80176676027E+02 0.  0.
        -13    1    3    3    0    0  0.58774368934E+01 -0.46232636347E+02 -0.39376671530E+03  0.39651510312E+03  0.00000000000E+00 0.  1.
         14    1    3    3    0    0 -0.20631770909E+02  0.29594169499E+02 -0.30910830027E+03  0.31120640439E+03  0.00000000000E+00 0. -1.
         11    1    5    5    0    0 -0.10030917554E+01  0.58616072002E+02  0.13464165632E+04  0.13476922541E+04  0.00000000000E+00 0. -1.
        -12    1    5    5    0    0 -0.58128704337E+02  0.84098252833E+01  0.87756152471E+03  0.87952481550E+03  0.00000000000E+00 0.  1.
          5    1    4    4  501    0  0.10267363962E+03 -0.54530010997E+02 -0.15997742635E+02  0.11742571499E+03  0.41800000000E+01 0.  1.
         -5    1    4    4    0  501 -0.28787509512E+02  0.41425805587E+01 -0.32510461217E+02  0.43821047067E+02  0.41800000000E+01 0.  1.
</event>
<event>
11    1  0.8039394E-009  0.1806083E+03  0.7561462E-02  0.1069152E+00
         22   -1    0    0    0    0  0.00000000000E+00  0.00000000000E+00  0.26626641267E+03  0.26626641267E+03  0.00000000000E+00 0.  1.
         22   -1    0    0    0    0 -0.00000000000E+00 -0.00000000000E+00 -0.15057789476E+04  0.15057789476E+04  0.00000000000E+00 0. -1.
        -24    2    1    2    0    0 -0.43314451872E+02  0.39544182559E+02 -0.13797153908E+04  0.13830317241E+04  0.75645926158E+02 0.  0.
         25    2    1    2    0    0  0.13496350084E+03 -0.10607274646E+03  0.39920101129E+02  0.21612169880E+03  0.12509356546E+03 0.  0.
         24    2    1    2    0    0 -0.91649048969E+02  0.66528563903E+02  0.10028275480E+03  0.17289193731E+03  0.83722118242E+02 0.  0.
        -11    1    5    5    0    0 -0.10290536268E+03  0.50970703830E+02  0.63069924073E+02  0.13101657009E+03  0.00000000000E+00 0.  1.
         12    1    5    5    0    0  0.11256313707E+02  0.15557860072E+02  0.37212830729E+02  0.41875367212E+02  0.00000000000E+00 0. -1.
         13    1    3    3    0    0 -0.47319345162E+02  0.33401410076E+02 -0.13679002887E+04  0.13691259893E+04  0.00000000000E+00 0. -1.
        -14    1    3    3    0    0  0.40048932905E+01  0.61427724830E+01 -0.11815102102E+02  0.13905734850E+02  0.00000000000E+00 0.  1.
          5    1    4    4  501    0 -0.22235980594E+01  0.20407749164E+02  0.19051580219E+02  0.28317057106E+02  0.41800000000E+01 0. -1.
         -5    1    4    4    0  501  0.13718709890E+03 -0.12648049563E+03  0.20868520910E+02  0.18780464170E+03  0.41800000000E+01 0. -1.
</event>
<event>
11    1  0.8039394E-009  0.2819973E+03  0.7561462E-02  0.1008112E+00
         22   -1    0    0    0    0  0.00000000000E+00  0.00000000000E+00  0.36765464925E+03  0.36765464925E+03  0.00000000000E+00 0. -1.
         22   -1    0    0    0    0 -0.00000000000E+00 -0.00000000000E+00 -0.11040261435E+04  0.11040261435E+04  0.00000000000E+00 0.  1.
        -24    2    1    2    0    0 -0.14951238721E+03 -0.17410440028E+03 -0.38221406924E+03  0.45296662861E+03  0.80155322851E+02 0.  0.
         25    2    1    2    0    0  0.91445468048E+02  0.40705871587E+03 -0.54799635815E+03  0.70000550025E+03  0.12509444449E+03 0.  0.
         24    2    1    2    0    0  0.58066919158E+02 -0.23295431559E+03  0.19383893312E+03  0.31870866391E+03  0.79763401406E+02 0.  0.
        -11    1    5    5    0    0  0.10702662465E+02 -0.14598156788E+02 -0.58723005796E+01  0.19029899620E+02  0.00000000000E+00 0.  1.
         12    1    5    5    0    0  0.47364256693E+02 -0.21835615880E+03  0.19971123370E+03  0.29967876429E+03  0.00000000000E+00 0. -1.
         13    1    3    3    0    0 -0.60363513833E+02 -0.33772319167E+02 -0.65463147101E+02  0.95235219181E+02  0.00000000000E+00 0. -1.
        -14    1    3    3    0    0 -0.89148873373E+02 -0.14033208112E+03 -0.31675092214E+03  0.35773140943E+03  0.00000000000E+00 0.  1.
          5    1    4    4  501    0  0.16733989087E+02  0.22211554128E+03 -0.20260406553E+03  0.30113322606E+03  0.41800000000E+01 0. -1.
         -5    1    4    4    0  501  0.74711478961E+02  0.18494317459E+03 -0.34539229262E+03  0.39887227419E+03  0.41800000000E+01 0. -1.
</event>
<event>
11    1  0.8039394E-009  0.1481665E+03  0.7561462E-02  0.1098767E+00
         22   -1    0    0    0    0  0.00000000000E+00  0.00000000000E+00  0.18145119008E+04  0.18145119008E+04  0.00000000000E+00 0. -1.
         22   -1    0    0    0    0 -0.00000000000E+00 -0.00000000000E+00 -0.66072775279E+03  0.66072775279E+03  0.00000000000E+00 0.  1.
         24    2    1    2    0    0  0.56742074619E+02  0.53995166926E+02 -0.61806466266E+03  0.62810447024E+03  0.79850843595E+02 0.  0.
         25    2    1    2    0    0 -0.78153480782E+02 -0.10524165659E+03  0.19112964242E+03  0.26336080845E+03  0.12507838493E+03 0.  0.
        -24    2    1    2    0    0  0.21411406163E+02  0.51246489668E+02  0.15807191682E+04  0.15837743749E+04  0.81138959271E+02 0.  0.
        -13    1    3    3    0    0  0.16635650497E+02  0.27667515374E+00 -0.39091038175E+03  0.39126429428E+03  0.00000000000E+00 0.  1.
         14    1    3    3    0    0  0.40106424122E+02  0.53718491772E+02 -0.22715428091E+03  0.23684017596E+03  0.00000000000E+00 0. -1.
         11    1    5    5    0    0  0.16588550482E+02  0.53522602738E+02  0.15748408775E+04  0.15758374403E+04  0.00000000000E+00 0. -1.
        -12    1    5    5    0    0  0.48228556812E+01 -0.22761130699E+01  0.58782907246E+01  0.79369345135E+01  0.00000000000E+00 0.  1.
          5    1    4    4  501    0  0.10226291755E+02 -0.89972573259E+02  0.84038345672E+02  0.12361050491E+03  0.41800000000E+01 0.  1.
         -5    1    4    4    0  501 -0.88379772537E+02 -0.15269083336E+02  0.10709129674E+03  0.13975030353E+03  0.41800000000E+01 0.  1.
</event>
<event>
11    1  0.8039394E-009  0.1544569E+03  0.7561462E-02  0.1092410E+00
         22   -1    0    0    0    0  0.00000000000E+00  0.00000000000E+00  0.96050161931E+03  0.96050161931E+03  0.00000000000E+00 0. -1.
         22   -1    0    0    0    0 -0.00000000000E+00 -0.00000000000E+00 -0.14855890519E+03  0.14855890519E+03  0.00000000000E+00 0. -1.
         24    2    1    2    0    0 -0.69345812041E+02 -0.64148279485E+02 -0.73506484504E+02  0.14430573568E+03  0.80604582231E+02 0.  0.
         25    2    1    2    0    0  0.59492247095E+02  0.46246225238E+02  0.10434852276E+03  0.17948388210E+03  0.12509120240E+03 0.  0.
        -24    2    1    2    0    0  0.98535649467E+01  0.17902054246E+02  0.78110067587E+03  0.78527090672E+03  0.78195618872E+02 0.  0.
        -11    1    3    3    0    0  0.12316000838E+02 -0.13961653072E+02  0.62225651177E+01  0.19629873911E+02  0.00000000000E+00 0.  1.
         12    1    3    3    0    0 -0.81661812879E+02 -0.50186626413E+02 -0.79729049622E+02  0.12467586177E+03  0.00000000000E+00 0. -1.
         13    1    5    5    0    0  0.27967976114E+02  0.42047250747E+02  0.46638984443E+03  0.46911583427E+03  0.00000000000E+00 0. -1.
        -14    1    5    5    0    0 -0.18114411168E+02 -0.24145196501E+02  0.31471083145E+03  0.31615507245E+03  0.00000000000E+00 0.  1.
          5    1    4    4  501    0 -0.17338559268E+02 -0.13157909026E+02 -0.14088981618E+02  0.26262673330E+02  0.41800000000E+01 0. -1.
         -5    1    4    4    0  501  0.76830806363E+02  0.59404134264E+02  0.11843750438E+03  0.15322120877E+03  0.41800000000E+01 0. -1.
</event>
<event>
11    1  0.8039394E-009  0.1358256E+03  0.7561462E-02  0.1112311E+00
         22   -1    0    0    0    0  0.00000000000E+00  0.00000000000E+00  0.30280687549E+03  0.30280687549E+03  0.00000000000E+00 0. -1.
         22   -1    0    0    0    0 -0.00000000000E+00 -0.00000000000E+00 -0.15451862316E+03  0.15451862316E+03  0.00000000000E+00 0.  1.
         24    2    1    2    0    0 -0.36114028149E+02 -0.19182667587E+02 -0.65959180724E+02  0.11179627426E+03  0.80471085819E+02 0.  0.
         25    2    1    2    0    0  0.38855170424E+02 -0.36499005347E+02  0.33435520453E+02  0.14002114733E+03  0.12508431561E+03 0.  0.
        -24    2    1    2    0    0 -0.27411422750E+01  0.55681672934E+02  0.18081191260E+03  0.20550807706E+03  0.80203861718E+02 0.  0.
        -13    1    3    3    0    0 -0.42858562936E+02 -0.44921569497E+02 -0.36171639707E+02  0.71855350128E+02  0.00000000000E+00 0.  1.
         14    1    3    3    0    0  0.67445347867E+01  0.25738901910E+02 -0.29787541017E+02  0.39940924137E+02  0.00000000000E+00 0. -1.
         11    1    5    5    0    0  0.54901653809E+01  0.10996800318E+02  0.15024409954E+03  0.15074601481E+03  0.00000000000E+00 0. -1.
        -12    1    5    5    0    0 -0.82313076559E+01  0.44684872615E+02  0.30567813061E+02  0.54762062248E+02  0.00000000000E+00 0.  1.
          5    1    4    4  501    0 -0.86628582027E+01  0.28393301047E+02  0.49524798087E+02  0.57891300574E+02  0.41800000000E+01 0. -1.
         -5    1    4    4    0  501  0.47518028627E+02 -0.64892306394E+02 -0.16089277634E+02  0.82129846758E+02  0.41800000000E+01 0. -1.
</event>
<event>
11    1  0.8039394E-009  0.1388602E+03  0.7561462E-02  0.1108838E+00
         22   -1    0    0    0    0  0.00000000000E+00  0.00000000000E+00  0.13707822558E+03  0.13707822558E+03  0.00000000000E+00 0. -1.
         22   -1    0    0    0    0 -0.00000000000E+00 -0.00000000000E+00 -0.10396932450E+04  0.10396932450E+04  0.00000000000E+00 0. -1.
        -24    2    1    2    0    0 -0.56844482360E+02  0.20898383559E+02 -0.83567209366E+03  0.84174311541E+03  0.80719183697E+02 0.  0.
         25    2    1    2    0    0  0.87224264445E+02  0.28784756491E+02 -0.14017470081E+03  0.20912423726E+03  0.12508942940E+03 0.  0.
         24    2    1    2    0    0 -0.30379782085E+02 -0.49683140050E+02  0.73231775050E+02  0.12590411790E+03  0.84247305373E+02 0.  0.
        -11    1    5    5    0    0 -0.43856739732E+02 -0.27722579777E+02  0.40057609076E+01  0.52038458566E+02  0.00000000000E+00 0.  1.
         12    1    5    5    0    0  0.13476957647E+02 -0.21960560273E+02  0.69226014142E+02  0.73865659335E+02  0.00000000000E+00 0. -1.
         11    1    3    3    0    0 -0.10499610478E+02  0.44516890020E+02 -0.49694251694E+03  0.49904294451E+03  0.00000000000E+00 0. -1.
        -12    1    3    3    0    0 -0.46344871882E+02 -0.23618506461E+02 -0.33872957672E+03  0.34270017091E+03  0.00000000000E+00 0.  1.
          5    1    4    4  501    0  0.65376754731E+02  0.13922546477E+02 -0.56623920434E+00  0.66975744762E+02  0.41800000000E+01 0. -1.
         -5    1    4    4    0  501  0.21847509714E+02  0.14862210014E+02 -0.13960846161E+03  0.14214849250E+03  0.41800000000E+01 0. -1.
</event>
<event>
11    1  0.8039394E-009  0.2023359E+03  0.7561462E-02  0.1052884E+00
         22   -1    0    0    0    0  0.00000000000E+00  0.00000000000E+00  0.82100800605E+03  0.82100800605E+03  0.00000000000E+00 0.  1.
         22   -1    0    0    0    0 -0.00000000000E+00 -0.00000000000E+00 -0.53339034178E+03  0.53339034178E+03  0.00000000000E+00 0. -1.
        -24    2    1    2    0    0  0.13486212966E+03 -0.85967272446E+02 -0.44426023575E+03  0.47955410252E+03  0.83826095148E+02 0.  0.
         25    2    1    2    0    0 -0.14659227124E+03  0.51386238199E+02  0.76510974141E+02  0.21361514187E+03  0.12509060800E+03 0.  0.
         24    2    1    2    0    0  0.11730141583E+02  0.34581034247E+02  0.65536692589E+03  0.66122910343E+03  0.79904164647E+02 0.  0.
        -13    1    5    5    0    0 -0.17442137071E+02 -0.15526126750E+01  0.46318116865E+03  0.46351206430E+03  0.00000000000E+00 0.  1.
         14    1    5    5    0    0  0.29172278654E+02  0.36133646922E+02  0.19218575723E+03  0.19771703913E+03  0.00000000000E+00 0. -1.
         13    1    3    3    0    0  0.67539198613E+02 -0.61819207614E+02 -0.34669311355E+03  0.35857952083E+03  0.00000000000E+00 0. -1.
        -14    1    3    3    0    0  0.67322931046E+02 -0.24148064833E+02 -0.97567122206E+02  0.12097458169E+03  0.00000000000E+00 0.  1.
          5    1    4    4  501    0 -0.63638933960E+02  0.34687995901E+02 -0.29107021595E+02  0.78216763429E+02  0.41800000000E+01 0. -1.
         -5    1    4    4    0  501 -0.82953337282E+02  0.16698242298E+02  0.10561799574E+03  0.13539837844E+03  0.41800000000E+01 0. -1.
</event>
<event>
11    1  0.8039394E-009  0.2873587E+03  0.7561462E-02  0.1005688E+00
         22   -1    0    0    0    0  0.00000000000E+00  0.00000000000E+00  0.27861918965E+04  0.27861918965E+04  0.00000000000E+00 0. -1.
         22   -1    0    0    0    0 -0.00000000000E+00 -0.00000000000E+00 -0.30226705921E+03  0.30226705921E+03  0.00000000000E+00 0. -1.
        -24    2    1    2    0    0  0.39841087294E+01  0.40134522771E+02 -0.19030152288E+03  0.21026560799E+03  0.79814179519E+02 0.  0.
         25    2    1    2    0    0 -0.25852356902E+03  0.73456803984E+01  0.12284414421E+03  0.31245297274E+03  0.12509109341E+03 0.  0.
         24    2    1    2    0    0  0.25453946029E+03 -0.47480203169E+02  0.25513822159E+04  0.25657403749E+04  0.80173270993E+02 0.  0.
        -11    1    5    5    0    0  0.43462389031E+02  0.22116997784E+02  0.44305909511E+03  0.44573478954E+03  0.00000000000E+00 0.  1.
         12    1    5    5    0    0  0.21107707126E+03 -0.69597200953E+02  0.21083231208E+04  0.21200055854E+04  0.00000000000E+00 0. -1.
         11    1    3    3    0    0  0.37353109374E+02  0.34484379603E+02 -0.14544618588E+03  0.15407472279E+03  0.00000000000E+00 0. -1.
        -12    1    3    3    0    0 -0.33369000645E+02  0.56501431676E+01 -0.44855337003E+02  0.56190885199E+02  0.00000000000E+00 0.  1.
          5    1    4    4  501    0 -0.94830211319E+02 -0.28279110812E+02 -0.86809530723E+01  0.99424888400E+02  0.41800000000E+01 0. -1.
         -5    1    4    4    0  501 -0.16369335770E+03  0.35624791210E+02  0.13152509729E+03  0.21302808434E+03  0.41800000000E+01 0. -1.
</event>
<event>
11    1  0.8039394E-009  0.1583152E+03  0.7561462E-02  0.1088673E+00
         22   -1    0    0    0    0  0.00000000000E+00  0.00000000000E+00  0.11671361728E+03  0.11671361728E+03  0.00000000000E+00 0. -1.
         22   -1    0    0    0    0 -0.00000000000E+00 -0.00000000000E+00 -0.51114690602E+03  0.51114690602E+03  0.00000000000E+00 0. -1.
        -24    2    1    2    0    0 -0.61892830378E+01  0.25971308300E+02 -0.31396401411E+03  0.32491967846E+03  0.79287951256E+02 0.  0.
         25    2    1    2    0    0  0.54111654624E+02  0.66040219338E+02 -0.80806347294E+02  0.17165839593E+03  0.12509019703E+03 0.  0.
         24    2    1    2    0    0 -0.47922371586E+02 -0.92011527638E+02  0.33707266810E+00  0.13128244892E+03  0.80450561587E+02 0.  0.
        -11    1    5    5    0    0  0.18378558183E+02 -0.48739070711E+02  0.12620756925E+01  0.52104330432E+02  0.00000000000E+00 0.  1.
         12    1    5    5    0    0 -0.66300929769E+02 -0.43272456927E+02 -0.92500302439E+00  0.79178118488E+02  0.00000000000E+00 0. -1.
         13    1    3    3    0    0 -0.36614182790E+02  0.26043747287E+02 -0.25100169679E+03  0.25499162132E+03  0.00000000000E+00 0. -1.
        -14    1    3    3    0    0  0.30424899752E+02 -0.72438987400E-01 -0.62962317325E+02  0.69928057139E+02  0.00000000000E+00 0.  1.
          5    1    4    4  501    0  0.78743211147E+02  0.83704827146E+02 -0.42426350988E+02  0.12257430011E+03  0.41800000000E+01 0. -1.
         -5    1    4    4    0  501 -0.24631556523E+02 -0.17664607808E+02 -0.38379996305E+02  0.49084095817E+02  0.41800000000E+01 0. -1.
</event>
<event>
11    1  0.8039394E-009  0.1792008E+03  0.7561462E-02  0.1070291E+00
         22   -1    0    0    0    0  0.00000000000E+00  0.00000000000E+00  0.37872951551E+02  0.37872951551E+02  0.00000000000E+00 0.  1.
         22   -1    0    0    0    0 -0.00000000000E+00 -0.00000000000E+00 -0.23051685501E+04  0.23051685501E+04  0.00000000000E+00 0.  1.
         24    2    1    2    0    0  0.82655056264E+02 -0.99313501230E+02 -0.15263375194E+04  0.15339463623E+04  0.81179981561E+02 0.  0.
         25    2    1    2    0    0 -0.13725637811E+03  0.41744804517E+02 -0.59513274452E+03  0.62482972467E+03  0.12508900510E+03 0.  0.
        -24    2    1    2    0    0  0.54601321842E+02  0.57568696712E+02 -0.14582533460E+03  0.18426541466E+03  0.79957836641E+02 0.  0.
        -13    1    3    3    0    0  0.60919110253E+02 -0.98069011539E+02 -0.14493135572E+04  0.14539045553E+04  0.00000000000E+00 0.  1.
         14    1    3    3    0    0  0.21735946012E+02 -0.12444896904E+01 -0.77023962209E+02  0.80041806939E+02  0.00000000000E+00 0. -1.
         13    1    5    5    0    0  0.10642170761E+02  0.15207483991E+02 -0.11384446278E+03  0.11534767043E+03  0.00000000000E+00 0. -1.
        -14    1    5    5    0    0  0.43959151082E+02  0.42361212721E+02 -0.31980871814E+02  0.68917744225E+02  0.00000000000E+00 0.  1.
          5    1    4    4  501    0 -0.38553139281E+01  0.54152880306E+02 -0.13490603024E+03  0.14548026425E+03  0.41800000000E+01 0. -1.
         -5    1    4    4    0  501 -0.13340106418E+03 -0.12408075789E+02 -0.46022671428E+03  0.47934946042E+03  0.41800000000E+01 0. -1.
</event>
<event>
11    1  0.8039394E-009  0.1571779E+03  0.7561462E-02  0.1089762E+00
         22   -1    0    0    0    0  0.00000000000E+00  0.00000000000E+00  0.16923035895E+03  0.16923035895E+03  0.00000000000E+00 0.  1.
         22   -1    0    0    0    0 -0.00000000000E+00 -0.00000000000E+00 -0.94270894259E+03  0.94270894259E+03  0.00000000000E+00 0. -1.
        -24    2    1    2    0    0 -0.38310641035E+02 -0.83946725138E+02 -0.75503027194E+03  0.76477418791E+03  0.79335295168E+02 0.  0.
         25    2    1    2    0    0 -0.16054919338E+02  0.15375263445E+03 -0.78510554526E+02  0.21379613473E+03  0.12508895642E+03 0.  0.
         24    2    1    2    0    0  0.54365560373E+02 -0.69805909313E+02  0.60062242839E+02  0.13336897890E+03  0.79695246961E+02 0.  0.
        -13    1    5    5    0    0  0.25295637899E+02 -0.32187666911E+02  0.73354061430E+02  0.84004366114E+02  0.00000000000E+00 0.  1.
         14    1    5    5    0    0  0.29069922474E+02 -0.37618242402E+02 -0.13291818590E+02  0.49364612786E+02  0.00000000000E+00 0. -1.
         13    1    3    3    0    0 -0.29825012675E+02 -0.91176964733E+02 -0.47862018823E+03  0.48813938056E+03  0.00000000000E+00 0. -1.
        -14    1    3    3    0    0 -0.84856283596E+01  0.72302395957E+01 -0.27641008372E+03  0.27663480734E+03  0.00000000000E+00 0.  1.
          5    1    4    4  501    0 -0.49339369935E+01  0.15117441363E+03 -0.18352023253E+02  0.15242150841E+03  0.41800000000E+01 0. -1.
         -5    1    4    4    0  501 -0.11120982345E+02  0.25782208258E+01 -0.60158531273E+02  0.61374626320E+02  0.41800000000E+01 0. -1.
</event>
<event>
11    1  0.8039394E-009  0.1689100E+03  0.7561462E-02  0.1078984E+00
         22   -1    0    0    0    0  0.00000000000E+00  0.00000000000E+00  0.11727760927E+04  0.11727760927E+04  0.00000000000E+00 0. -1.
         22   -1    0    0    0    0 -0.00000000000E+00 -0.00000000000E+00 -0.18829745774E+03  0.18829745774E+03  0.00000000000E+00 0. -1.
        -24    2    1    2    0    0  0.31020357511E+02  0.74867482432E+02 -0.10376727435E+03  0.15445268197E+03  0.80750116004E+02 0.  0.
         25    2    1    2    0    0  0.52870083590E+02 -0.14787606769E+03  0.13120771140E+03  0.23984400872E+03  0.12508840017E+03 0.  0.
         24    2    1    2    0    0 -0.83890441100E+02  0.73008585256E+02  0.95703819789E+03  0.96677685972E+03  0.79796770912E+02 0.  0.
        -13    1    5    5    0    0 -0.34202458551E+02  0.71321328582E+02  0.41554641527E+03  0.42300752159E+03  0.00000000000E+00 0.  1.
         14    1    5    5    0    0 -0.49687982549E+02  0.16872566743E+01  0.54149178262E+03  0.54376933813E+03  0.00000000000E+00 0. -1.
         11    1    3    3    0    0  0.28459861521E+02  0.52678476404E+01 -0.72587513258E+02  0.78145127919E+02  0.00000000000E+00 0. -1.
        -12    1    3    3    0    0  0.25604959901E+01  0.69599634791E+02 -0.31179761092E+02  0.76307554046E+02  0.00000000000E+00 0.  1.
          5    1    4    4  501    0  0.25919254469E+02 -0.59292061935E+01 -0.17783749332E+02  0.32259841578E+02  0.41800000000E+01 0. -1.
         -5    1    4    4    0  501  0.26950829121E+02 -0.14194686149E+03  0.14899146073E+03  0.20758416715E+03  0.41800000000E+01 0. -1.
</event>
<event>
11    1  0.8039394E-009  0.2191143E+03  0.7561462E-02  0.1041774E+00
         22   -1    0    0    0    0  0.00000000000E+00  0.00000000000E+00  0.10664656561E+04  0.10664656561E+04  0.00000000000E+00 0. -1.
         22   -1    0    0    0    0 -0.00000000000E+00 -0.00000000000E+00 -0.82715225572E+03  0.82715225572E+03  0.00000000000E+00 0. -1.
        -24    2    1    2    0    0  0.50007077172E+02 -0.89240979450E+02 -0.72457622340E+03  0.73604327821E+03  0.79273852611E+02 0.  0.
         25    2    1    2    0    0 -0.18761318105E+03  0.18819907639E+03  0.16461633564E+03  0.33669455156E+03  0.12508830894E+03 0.  0.
         24    2    1    2    0    0  0.13760610388E+03 -0.98958096944E+02  0.79927328817E+03  0.82088008207E+03  0.79234936656E+02 0.  0.
        -11    1    5    5    0    0  0.52846112420E+02 -0.11306377216E+02  0.13332372721E+03  0.14386021688E+03  0.00000000000E+00 0.  1.
         12    1    5    5    0    0  0.84759991460E+02 -0.87651719728E+02  0.66594956096E+03  0.67701986519E+03  0.00000000000E+00 0. -1.
         13    1    3    3    0    0  0.69673758365E+02 -0.82475965613E+02 -0.63238382826E+03  0.64153411738E+03  0.00000000000E+00 0. -1.
        -14    1    3    3    0    0 -0.19666681193E+02 -0.67650138369E+01 -0.92192395136E+02  0.94509160838E+02  0.00000000000E+00 0.  1.
          5    1    4    4  501    0 -0.14760342875E+03  0.87618650163E+02  0.14882541413E+03  0.22722296611E+03  0.41800000000E+01 0.  1.
         -5    1    4    4    0  501 -0.40009752298E+02  0.10058042623E+03  0.15790921509E+02  0.10947158545E+03  0.41800000000E+01 0.  1.
</event>
<event>
11    1  0.8039394E-009  0.1988632E+03  0.7561462E-02  0.1055330E+00
         22   -1    0    0    0    0  0.00000000000E+00  0.00000000000E+00  0.10686129556E+04  0.10686129556E+04  0.00000000000E+00 0. -1.
         22   -1    0    0    0    0 -0.00000000000E+00 -0.00000000000E+00 -0.18157377394E+03  0.18157377394E+03  0.00000000000E+00 0.  1.
         24    2    1    2    0    0 -0.23162777190E+02  0.14582696996E+03 -0.75188157673E+02  0.18407601289E+03  0.80179174697E+02 0.  0.
         25    2    1    2    0    0  0.27484959838E+02 -0.18532224277E+03  0.20765383911E+03  0.30637825420E+03  0.12509101113E+03 0.  0.
        -24    2    1    2    0    0 -0.43221826483E+01  0.39495272817E+02  0.75457350019E+03  0.75973246242E+03  0.78953717020E+02 0.  0.
        -11    1    3    3    0    0 -0.42058282320E+02  0.12143847647E+03 -0.82044680457E+02  0.15247141460E+03  0.00000000000E+00 0.  1.
         12    1    3    3    0    0  0.18895505130E+02  0.24388493481E+02  0.68565227833E+01  0.31604598290E+02  0.00000000000E+00 0. -1.
         11    1    5    5    0    0  0.25494935176E+02  0.38180944426E+02  0.62848795268E+03  0.63016258449E+03  0.00000000000E+00 0. -1.
        -12    1    5    5    0    0 -0.29817117824E+02  0.13143283902E+01  0.12608554751E+03  0.12956987792E+03  0.00000000000E+00 0.  1.
          5    1    4    4  501    0  0.37908607284E+01 -0.14690212405E+03  0.21499937383E+03  0.26045500154E+03  0.41800000000E+01 0.  1.
         -5    1    4    4    0  501  0.23694099110E+02 -0.38420118719E+02 -0.73455347212E+01  0.45923252665E+02  0.41800000000E+01 0.  1.
</event>
<event>
11    1  0.8039394E-009  0.1993883E+03  0.7561462E-02  0.1054957E+00
         22   -1    0    0    0    0  0.00000000000E+00  0.00000000000E+00  0.18371642107E+03  0.18371642107E+03  0.00000000000E+00 0. -1.
         22   -1    0    0    0    0 -0.00000000000E+00 -0.00000000000E+00 -0.11238605269E+04  0.11238605269E+04  0.00000000000E+00 0.  1.
        -24    2    1    2    0    0 -0.17435785662E+02  0.10977156788E+02 -0.73044320777E+03  0.73530051953E+03  0.81823405266E+02 0.  0.
         25    2    1    2    0    0 -0.12579412516E+03  0.55501949235E+02 -0.31509946675E+03  0.36584221635E+03  0.12509286560E+03 0.  0.
         24    2    1    2    0    0  0.14322991082E+03 -0.66479106023E+02  0.10539856868E+03  0.20643421211E+03  0.81067544414E+02 0.  0.
        -11    1    5    5    0    0  0.25947825043E+02  0.13416027800E+02  0.41628574292E+02  0.50854868243E+02  0.00000000000E+00 0.  1.
         12    1    5    5    0    0  0.11728208578E+03 -0.79895133824E+02  0.63769994387E+02  0.15557934387E+03  0.00000000000E+00 0. -1.
         11    1    3    3    0    0  0.82060050230E+01 -0.32222516308E+02 -0.34464381439E+03  0.34624411601E+03  0.00000000000E+00 0. -1.
        -12    1    3    3    0    0 -0.25641790685E+02  0.43199673096E+02 -0.38579939338E+03  0.38905640352E+03  0.00000000000E+00 0.  1.
          5    1    4    4  501    0 -0.10836556934E+03  0.81006413565E+02 -0.16936509927E+03  0.21681131176E+03  0.41800000000E+01 0. -1.
         -5    1    4    4    0  501 -0.17428555823E+02 -0.25504464329E+02 -0.14573436747E+03  0.14903090459E+03  0.41800000000E+01 0. -1.
</event>
<event>
11    1  0.8039394E-009  0.1362256E+03  0.7561462E-02  0.1111848E+00
         22   -1    0    0    0    0  0.00000000000E+00  0.00000000000E+00  0.13049755135E+03  0.13049755135E+03  0.00000000000E+00 0.  1.
         22   -1    0    0    0    0 -0.00000000000E+00 -0.00000000000E+00 -0.13028792258E+04  0.13028792258E+04  0.00000000000E+00 0. -1.
        -24    2    1    2    0    0  0.34926573043E+02  0.79728344975E+01 -0.11186845621E+04  0.11221110078E+04  0.79965823043E+02 0.  0.
         25    2    1    2    0    0  0.97688275340E+01 -0.43260427325E+02 -0.12943109068E+03  0.18536822248E+03  0.12506828578E+03 0.  0.
         24    2    1    2    0    0 -0.44695400577E+02  0.35287592827E+02  0.75733978324E+02  0.12589754683E+03  0.82895499179E+02 0.  0.
        -11    1    5    5    0    0 -0.14605009810E+02  0.15215156520E+02  0.85798400384E+02  0.88352548395E+02  0.00000000000E+00 0.  1.
         12    1    5    5    0    0 -0.30090390767E+02  0.20072436307E+02 -0.10064422061E+02  0.37544998432E+02  0.00000000000E+00 0. -1.
         13    1    3    3    0    0  0.10557779778E+02  0.26224636472E+02 -0.96636462507E+03  0.96677804426E+03  0.00000000000E+00 0. -1.
        -14    1    3    3    0    0  0.24368793264E+02 -0.18251801975E+02 -0.15231993703E+03  0.15533296359E+03  0.00000000000E+00 0.  1.
          5    1    4    4  501    0  0.58808960214E+02 -0.29301216838E+01 -0.27301486622E+02  0.65037858101E+02  0.41800000000E+01 0.  1.
         -5    1    4    4    0  501 -0.49040132680E+02 -0.40330305641E+02 -0.10212960406E+03  0.12033036438E+03  0.41800000000E+01 0.  1.
</event>
<event>
11    1  0.8039394E-009  0.2675577E+03  0.7561462E-02  0.1014941E+00
         22   -1    0    0    0    0  0.00000000000E+00  0.00000000000E+00  0.11908695408E+04  0.11908695408E+04  0.00000000000E+00 0. -1.
         22   -1    0    0    0    0 -0.00000000000E+00 -0.00000000000E+00 -0.15404653443E+03  0.15404653443E+03  0.00000000000E+00 0.  1.
         24    2    1    2    0    0  0.16167344872E+02  0.46883298317E+02 -0.70575570910E+02  0.11837178325E+03  0.81065042762E+02 0.  0.
         25    2    1    2    0    0  0.59807753854E+02 -0.25425905824E+03  0.54951140735E+03  0.62115508208E+03  0.12508482349E+03 0.  0.
        -24    2    1    2    0    0 -0.75975098727E+02  0.20737575993E+03  0.55788716988E+03  0.60538920985E+03  0.80505152997E+02 0.  0.
        -13    1    3    3    0    0 -0.61496917536E+01  0.64475107522E+02 -0.59251855763E+02  0.87781778348E+02  0.00000000000E+00 0.  1.
         14    1    3    3    0    0  0.22317036626E+02 -0.17591809205E+02 -0.11323715147E+02  0.30590004897E+02  0.00000000000E+00 0. -1.
         11    1    5    5    0    0 -0.15423981848E+02  0.14828752816E+03  0.32353529745E+03  0.35623332090E+03  0.00000000000E+00 0. -1.
        -12    1    5    5    0    0 -0.60551116878E+02  0.59088231766E+02  0.23435187243E+03  0.24915588896E+03  0.00000000000E+00 0.  1.
          5    1    4    4  501    0  0.94089801193E+02 -0.13478051451E+03  0.28969054658E+03  0.33310173064E+03  0.41800000000E+01 0. -1.
         -5    1    4    4    0  501 -0.34282047339E+02 -0.11947854373E+03  0.25982086077E+03  0.28805335144E+03  0.41800000000E+01 0. -1.
</event>
<event>
11    1  0.8039394E-009  0.1469179E+03  0.7561462E-02  0.1100070E+00
         22   -1    0    0    0    0  0.00000000000E+00  0.00000000000E+00  0.42549570095E+03  0.42549570095E+03  0.00000000000E+00 0.  1.
         22   -1    0    0    0    0 -0.00000000000E+00 -0.00000000000E+00 -0.26258312214E+04  0.26258312214E+04  0.00000000000E+00 0.  1.
         24    2    1    2    0    0 -0.74244790811E+02  0.52252370361E+01 -0.22548859810E+04  0.22575896121E+04  0.81611746602E+02 0.  0.
         25    2    1    2    0    0  0.11903122682E+03  0.21717143432E+02 -0.34358476766E+03  0.38514496226E+03  0.12508430001E+03 0.  0.
        -24    2    1    2    0    0 -0.44786436010E+02 -0.26942380468E+02  0.39813522820E+03  0.40859234802E+03  0.75527016439E+02 0.  0.
        -13    1    3    3    0    0 -0.70852740844E+02  0.17748038216E+02 -0.21991836273E+04  0.22003962667E+04  0.00000000000E+00 0.  1.
         14    1    3    3    0    0 -0.33920499676E+01 -0.12522801180E+02 -0.55702353724E+02  0.57193345442E+02  0.00000000000E+00 0. -1.
         13    1    5    5    0    0 -0.20729339665E+02 -0.39025114960E+02  0.10104502174E+03  0.11028491075E+03  0.00000000000E+00 0. -1.
        -14    1    5    5    0    0 -0.24057096344E+02  0.12082734492E+02  0.29709020646E+03  0.29830743727E+03  0.00000000000E+00 0.  1.
          5    1    4    4  501    0 -0.35378144987E+01 -0.37015062031E+02 -0.61329696820E+02  0.71843128138E+02  0.41800000000E+01 0. -1.
         -5    1    4    4    0  501  0.12256904132E+03  0.58732205463E+02 -0.28225507084E+03  0.31330183412E+03  0.41800000000E+01 0. -1.
</event>
<event>
11    1  0.8039394E-009  0.1339853E+03  0.7561462E-02  0.1114467E+00
         22   -1    0    0    0    0  0.00000000000E+00  0.00000000000E+00  0.12167481588E+04  0.12167481588E+04  0.00000000000E+00 0.  1.
         22   -1    0    0    0    0 -0.00000000000E+00 -0.00000000000E+00 -0.19777900137E+04  0.19777900137E+04  0.00000000000E+00 0. -1.
        -24    2    1    2    0    0  0.25138508183E+02  0.15424186891E+02 -0.19077031955E+04  0.19096450034E+04  0.80887001283E+02 0.  0.
         25    2    1    2    0    0 -0.70715906645E+02 -0.21955063936E+01  0.95982383746E+01  0.14403140950E+03  0.12508941219E+03 0.  0.
         24    2    1    2    0    0  0.45577398462E+02 -0.13228680498E+02  0.11370631021E+04  0.11408617596E+04  0.80004743233E+02 0.  0.
        -13    1    5    5    0    0  0.60300923564E+02  0.12191785099E+01  0.10338310036E+04  0.10355888334E+04  0.00000000000E+00 0.  1.
         14    1    5    5    0    0 -0.14723525102E+02 -0.14447859008E+02  0.10323209854E+03  0.10527292619E+03  0.00000000000E+00 0. -1.
         13    1    3    3    0    0  0.50487300808E+02  0.16405813522E+02 -0.16060226598E+04  0.16068997797E+04  0.00000000000E+00 0. -1.
        -14    1    3    3    0    0 -0.25348792625E+02 -0.98162663087E+00 -0.30168053569E+03  0.30274522373E+03  0.00000000000E+00 0.  1.
          5    1    4    4  501    0 -0.78299304394E+02  0.11225341136E+02 -0.42253589122E+02  0.89775428409E+02  0.41800000000E+01 0.  1.
         -5    1    4    4    0  501  0.75833977493E+01 -0.13420847530E+02  0.51851827497E+02  0.54255981095E+02  0.41800000000E+01 0.  1.
</event>
<event>
11    1  0.8039394E-009  0.1623137E+03  0.7561462E-02  0.1084921E+00
         22   -1    0    0    0    0  0.00000000000E+00  0.00000000000E+00  0.10294435270E+04  0.10294435270E+04  0.00000000000E+00 0. -1.
         22   -1    0    0    0    0 -0.00000000000E+00 -0.00000000000E+00 -0.37820524849E+03  0.37820524849E+03  0.00000000000E+00 0. -1.
        -24    2    1    2    0    0 -0.10050158852E+03 -0.19137782480E+01 -0.31534059925E+03  0.34066070521E+03  0.80658481873E+02 0.  0.
         25    2    1    2    0    0  0.14871440291E+03  0.14646417448E+01  0.14724805713E+03  0.24381101507E+03  0.12507478535E+03 0.  0.
         24    2    1    2    0    0 -0.48212814396E+02  0.44913650319E+00  0.81933082065E+03  0.82317705525E+03  0.63188554571E+02 0.  0.
        -11    1    5    5    0    0 -0.22084794061E+02  0.24273263425E+00  0.70236727329E+02  0.73627405996E+02  0.00000000000E+00 0.  1.
         12    1    5    5    0    0 -0.26128020335E+02  0.20640386894E+00  0.74909409332E+03  0.74954964925E+03  0.00000000000E+00 0. -1.
         13    1    3    3    0    0 -0.86402214506E+02  0.17271841036E+02 -0.29917950534E+03  0.31188465108E+03  0.00000000000E+00 0. -1.
        -14    1    3    3    0    0 -0.14099374010E+02 -0.19185619284E+02 -0.16161093903E+02  0.28776054124E+02  0.00000000000E+00 0.  1.
          5    1    4    4  501    0  0.15325106765E+03 -0.16099218212E+02  0.79286812418E+02  0.17334631691E+03  0.41800000000E+01 0.  1.
         -5    1    4    4    0  501 -0.45366647367E+01  0.17563859957E+02  0.67961244714E+02  0.70464698159E+02  0.41800000000E+01 0.  1.
</event>
<event>
11    1  0.8039394E-009  0.1696135E+03  0.7561462E-02  0.1078368E+00
         22   -1    0    0    0    0  0.00000000000E+00  0.00000000000E+00  0.17912996665E+03  0.17912996665E+03  0.00000000000E+00 0.  1.
         22   -1    0    0    0    0 -0.00000000000E+00 -0.00000000000E+00 -0.91618857065E+03  0.91618857065E+03  0.00000000000E+00 0.  1.
         24    2    1    2    0    0 -0.80286144144E+02 -0.80992320713E+02 -0.75777988810E+03  0.77053573035E+03  0.80556390065E+02 0.  0.
         25    2    1    2    0    0  0.11491859140E+03  0.52823415547E+02 -0.73513351692E+02  0.19248009711E+03  0.12509108291E+03 0.  0.
        -24    2    1    2    0    0 -0.34632447259E+02  0.28168905166E+02  0.94234635787E+02  0.13230270985E+03  0.81430625869E+02 0.  0.
        -11    1    3    3    0    0 -0.72821073657E+02 -0.86328912481E+02 -0.75014224269E+03  0.75859671379E+03  0.00000000000E+00 0.  1.
         12    1    3    3    0    0 -0.74650704876E+01  0.53365917681E+01 -0.76376454083E+01  0.11939016562E+02  0.00000000000E+00 0. -1.
         11    1    5    5    0    0  0.11199604305E+02  0.21814087142E+02 -0.29180467536E+01  0.24694139614E+02  0.00000000000E+00 0. -1.
        -12    1    5    5    0    0 -0.45832051563E+02  0.63548180245E+01  0.97152682541E+02  0.10760857023E+03  0.00000000000E+00 0.  1.
          5    1    4    4  501    0 -0.81757585500E+01  0.49426982393E+02 -0.26479283321E+01  0.50342363282E+02  0.41800000000E+01 0. -1.
         -5    1    4    4    0  501  0.12309434995E+03  0.33964331536E+01 -0.70865423360E+02  0.14213773382E+03  0.41800000000E+01 0. -1.
</event>
<event>
11    1  0.8039394E-009  0.1351733E+03  0.7561462E-02  0.1113071E+00
         22   -1    0    0    0    0  0.00000000000E+00  0.00000000000E+00  0.22472952593E+04  0.22472952593E+04  0.00000000000E+00 0.  1.
         22   -1    0    0    0    0 -0.00000000000E+00 -0.00000000000E+00 -0.73261286068E+02  0.73261286068E+02  0.00000000000E+00 0.  1.
        -24    2    1    2    0    0  0.34350730878E+01  0.42772620603E+02 -0.27588125688E+02  0.95479389309E+02  0.80708811808E+02 0.  0.
         25    2    1    2    0    0 -0.36057434679E+02  0.11851190366E+01  0.39624321006E+03  0.41708168379E+03  0.12508759463E+03 0.  0.
         24    2    1    2    0    0  0.32622361591E+02 -0.43957739640E+02  0.18053788888E+04  0.18079954723E+04  0.80362889821E+02 0.  0.
        -11    1    5    5    0    0  0.70326187390E+01 -0.61723853345E+02  0.14205504736E+04  0.14219082037E+04  0.00000000000E+00 0.  1.
         12    1    5    5    0    0  0.25589742852E+02  0.17766113706E+02  0.38482841526E+03  0.38608726854E+03  0.00000000000E+00 0. -1.
         11    1    3    3    0    0 -0.17750753836E+02  0.59229995224E+01  0.22840017099E+02  0.29526895641E+02  0.00000000000E+00 0. -1.
        -12    1    3    3    0    0  0.21185826924E+02  0.36849621081E+02 -0.50428142786E+02  0.65952493669E+02  0.00000000000E+00 0.  1.
          5    1    4    4  501    0  0.40221736093E+02 -0.15202061567E+02  0.75760487482E+02  0.87212468109E+02  0.41800000000E+01 0.  1.
         -5    1    4    4    0  501 -0.76279170772E+02  0.16387180603E+02  0.32048272258E+03  0.32986921568E+03  0.41800000000E+01 0.  1.
</event>
<event>
11    1  0.8039394E-009  0.1419786E+03  0.7561462E-02  0.1105369E+00
         22   -1    0    0    0    0  0.00000000000E+00  0.00000000000E+00  0.19803339689E+03  0.19803339689E+03  0.00000000000E+00 0. -1.
         22   -1    0    0    0    0 -0.00000000000E+00 -0.00000000000E+00 -0.86322354154E+03  0.86322354154E+03  0.00000000000E+00 0.  1.
        -24    2    1    2    0    0 -0.42945172015E+02  0.48715989931E+02 -0.68562881504E+03  0.69311196787E+03  0.78101168496E+02 0.  0.
         25    2    1    2    0    0  0.71733101491E+02 -0.54667465415E+02 -0.12583788514E+03  0.19904575255E+03  0.12509943504E+03 0.  0.
         24    2    1    2    0    0 -0.28787929475E+02  0.59514754839E+01  0.14627655553E+03  0.16909921801E+03  0.79583603146E+02 0.  0.
        -13    1    5    5    0    0  0.18943445798E-01  0.30409707665E+02  0.17923381062E+02  0.35298700653E+02  0.00000000000E+00 0.  1.
         14    1    5    5    0    0 -0.28806872921E+02 -0.24458232181E+02  0.12835317447E+03  0.13380051736E+03  0.00000000000E+00 0. -1.
         11    1    3    3    0    0  0.14581789005E+02  0.73646173814E+01 -0.34857558965E+02  0.38495656596E+02  0.00000000000E+00 0. -1.
        -12    1    3    3    0    0 -0.57526961020E+02  0.41351372550E+02 -0.65077125607E+03  0.65461631128E+03  0.00000000000E+00 0.  1.
          5    1    4    4  501    0  0.74317097997E+02 -0.87036627859E+02 -0.69725504102E+02  0.13408028925E+03  0.41800000000E+01 0. -1.
         -5    1    4    4    0  501 -0.25839965068E+01  0.32369162444E+02 -0.56112381038E+02  0.64965463294E+02  0.41800000000E+01 0. -1.
</event>
<event>
11    1  0.8039394E-009  0.1426526E+03  0.7561462E-02  0.1104632E+00
         22   -1    0    0    0    0  0.00000000000E+00  0.00000000000E+00  0.71978618460E+03  0.71978618460E+03  0.00000000000E+00 0.  1.
         22   -1    0    0    0    0 -0.00000000000E+00 -0.00000000000E+00 -0.16134751229E+03  0.16134751229E+03  0.00000000000E+00 0.  1.
         24    2    1    2    0    0 -0.59320704785E+01  0.65729429794E+02 -0.71357796737E+02  0.12439785859E+03  0.77635975328E+02 0.  0.
         25    2    1    2    0    0 -0.57701146310E+02 -0.87389175336E+02  0.54775738683E+02  0.17208828725E+03  0.12509079426E+03 0.  0.
        -24    2    1    2    0    0  0.63633216789E+02  0.21659745542E+02  0.57502073036E+03  0.58464755106E+03  0.81520474487E+02 0.  0.
        -13    1    3    3    0    0 -0.21344018429E+02  0.76669130159E+02 -0.69037558702E+02  0.10535609690E+03  0.00000000000E+00 0.  1.
         14    1    3    3    0    0  0.15411947951E+02 -0.10939700366E+02 -0.23202380351E+01  0.19041761690E+02  0.00000000000E+00 0. -1.
         11    1    5    5    0    0  0.13605285824E+02  0.23187219307E+02  0.46117783519E+02  0.53381653199E+02  0.00000000000E+00 0. -1.
        -12    1    5    5    0    0  0.50027930965E+02 -0.15274737651E+01  0.52890294684E+03  0.53126589786E+03  0.00000000000E+00 0.  1.
          5    1    4    4  501    0 -0.47059037198E+01 -0.72596990103E+02  0.82718188347E+02  0.11023719692E+03  0.41800000000E+01 0. -1.
         -5    1    4    4    0  501 -0.52995242590E+02 -0.14792185233E+02 -0.27942449664E+02  0.61851090325E+02  0.41800000000E+01 0. -1.
</event>
<event>
11    1  0.8039394E-009  0.1698816E+03  0.7561462E-02  0.1078135E+00
         22   -1    0    0    0    0  0.00000000000E+00  0.00000000000E+00  0.79508511999E+02  0.79508511999E+02  0.00000000000E+00 0.  1.
         22   -1    0    0    0    0 -0.00000000000E+00 -0.00000000000E+00 -0.22082058656E+04  0.22082058656E+04  0.00000000000E+00 0.  1.
         24    2    1    2    0    0  0.26504848035E+02  0.14611857963E+02 -0.16684562392E+04  0.16706604488E+04  0.80275150010E+02 0.  0.
         25    2    1    2    0    0 -0.29166233217E+02  0.10268476805E+03 -0.42794287635E+03  0.45845151175E+03  0.12509137644E+03 0.  0.
        -24    2    1    2    0    0  0.26613851821E+01 -0.11729662601E+03 -0.32298238118E+02  0.15860241711E+03  0.10171513694E+03 0.  0.
        -11    1    3    3    0    0 -0.45135214444E+01 -0.21179676867E+02 -0.11064980088E+04  0.11067098961E+04  0.00000000000E+00 0.  1.
         12    1    3    3    0    0  0.31018369479E+02  0.35791534829E+02 -0.56195823034E+03  0.56395055267E+03  0.00000000000E+00 0. -1.
         11    1    5    5    0    0 -0.17909999095E+02 -0.11245807902E+03  0.68854247849E+01  0.11408328834E+03  0.00000000000E+00 0. -1.
        -12    1    5    5    0    0  0.20571384277E+02 -0.48385469915E+01 -0.39183662903E+02  0.44519128771E+02  0.00000000000E+00 0.  1.
          5    1    4    4  501    0  0.27101736894E+02  0.10117538646E+03 -0.23284855788E+03  0.25535639071E+03  0.41800000000E+01 0. -1.
         -5    1    4    4    0  501 -0.56267970111E+02  0.15093815856E+01 -0.19509431847E+03  0.20309512105E+03  0.41800000000E+01 0. -1.
</event>
<event>
11    1  0.8039394E-009  0.1446316E+03  0.7561462E-02  0.1102494E+00
         22   -1    0    0    0    0  0.00000000000E+00  0.00000000000E+00  0.17805799522E+03  0.17805799522E+03  0.00000000000E+00 0. -1.
         22   -1    0    0    0    0 -0.00000000000E+00 -0.00000000000E+00 -0.17092570091E+04  0.17092570091E+04  0.00000000000E+00 0. -1.
        -24    2    1    2    0    0 -0.23063089926E+02  0.46551579693E+02 -0.13263268875E+04  0.13297687468E+04  0.80268000438E+02 0.  0.
         25    2    1    2    0    0 -0.44947459237E+02 -0.15991350820E+02 -0.35015607722E+03  0.37487477702E+03  0.12508326282E+03 0.  0.
         24    2    1    2    0    0  0.68010549162E+02 -0.30560228873E+02  0.14528395082E+03  0.18267148047E+03  0.81866238614E+02 0.  0.
        -11    1    5    5    0    0  0.59257253478E+02 -0.53591288096E+02  0.80757585879E+02  0.11360121446E+03  0.00000000000E+00 0.  1.
         12    1    5    5    0    0  0.87532956843E+01  0.23031059223E+02  0.64526364938E+02  0.69070266008E+02  0.00000000000E+00 0. -1.
         13    1    3    3    0    0 -0.23543702838E+02  0.32736027199E+02 -0.12937740002E+04  0.12944022238E+04  0.00000000000E+00 0. -1.
        -14    1    3    3    0    0  0.48061291199E+00  0.13815552494E+02 -0.32552887234E+02  0.35366522966E+02  0.00000000000E+00 0.  1.
          5    1    4    4  501    0 -0.56388712891E+02 -0.61801385291E+02 -0.18558906199E+03  0.20361697006E+03  0.41800000000E+01 0. -1.
         -5    1    4    4    0  501  0.11441253654E+02  0.45810034471E+02 -0.16456701523E+03  0.17125780697E+03  0.41800000000E+01 0. -1.
</event>
<event>
11    1  0.8039394E-009  0.1315009E+03  0.7561462E-02  0.1117438E+00
         22   -1    0    0    0    0  0.00000000000E+00  0.00000000000E+00  0.32875481359E+03  0.32875481359E+03  0.00000000000E+00 0. -1.
         22   -1    0    0    0    0 -0.00000000000E+00 -0.00000000000E+00 -0.22221024072E+04  0.22221024072E+04  0.00000000000E+00 0.  1.
        -24    2    1    2    0    0 -0.38907084209E+02 -0.90670086274E+00 -0.18232919360E+04  0.18254150338E+04  0.78942881378E+02 0.  0.
         25    2    1    2    0    0  0.59788035471E+02 -0.31422807465E+02 -0.37917783494E+03  0.40495428895E+03  0.12510053403E+03 0.  0.
         24    2    1    2    0    0 -0.20880951263E+02  0.32329508328E+02  0.30912217733E+03  0.32048789803E+03  0.75331009747E+02 0.  0.
        -13    1    5    5    0    0 -0.28534079576E+02 -0.13144064232E+02  0.66819880677E+02  0.73836688546E+02  0.00000000000E+00 0.  1.
         14    1    5    5    0    0  0.76531283139E+01  0.45473572560E+02  0.24230229665E+03  0.24665120948E+03  0.00000000000E+00 0. -1.
         11    1    3    3    0    0 -0.45197677706E+02  0.12736015239E+01 -0.48420810798E+03  0.48631465530E+03  0.00000000000E+00 0. -1.
        -12    1    3    3    0    0  0.62905934976E+01 -0.21803023867E+01 -0.13390838280E+04  0.13391003785E+04  0.00000000000E+00 0.  1.
          5    1    4    4  501    0  0.32606317803E+02 -0.22753371607E+02 -0.37341452909E+03  0.37554862644E+03  0.41800000000E+01 0. -1.
         -5    1    4    4    0  501  0.27181717668E+02 -0.86694358581E+01 -0.57633058444E+01  0.29405662511E+02  0.41800000000E+01 0. -1.
</event>
<event>
11    1  0.8039394E-009  0.1330814E+03  0.7561462E-02  0.1115540E+00
         22   -1    0    0    0    0  0.00000000000E+00  0.00000000000E+00  0.89655702617E+03  0.89655702617E+03  0.00000000000E+00 0. -1.
         22   -1    0    0    0    0 -0.00000000000E+00 -0.00000000000E+00 -0.16472810360E+03  0.16472810360E+03  0.00000000000E+00 0.  1.
         24    2    1    2    0    0  0.89543512731E+01  0.42979117597E+02 -0.12444168516E+03  0.15574596829E+03  0.82726589905E+02 0.  0.
         25    2    1    2    0    0 -0.47384342255E+02 -0.60897499236E+02  0.23225758647E+03  0.27485450242E+03  0.12509048615E+03 0.  0.
        -24    2    1    2    0    0  0.38429990982E+02  0.17918381639E+02  0.62401302126E+03  0.63068465906E+03  0.81073768086E+02 0.  0.
        -11    1    3    3    0    0  0.39234744518E+02  0.48988557939E+02 -0.84905038607E+02  0.10558460857E+03  0.00000000000E+00 0.  1.
         12    1    3    3    0    0 -0.30280393245E+02 -0.60094403421E+01 -0.39536646551E+02  0.50161359718E+02  0.00000000000E+00 0. -1.
         13    1    5    5    0    0  0.18815293343E+01 -0.97034585789E+01  0.46750487929E+03  0.46760935557E+03  0.00000000000E+00 0. -1.
        -14    1    5    5    0    0  0.36548461648E+02  0.27621840218E+02  0.15650814197E+03  0.16307530349E+03  0.00000000000E+00 0.  1.
          5    1    4    4  501    0 -0.71346053861E+01  0.29184383358E+02  0.12679980303E+03  0.13037750294E+03  0.41800000000E+01 0. -1.
         -5    1    4    4    0  501 -0.40249736869E+02 -0.90081882594E+02  0.10545778345E+03  0.14447699948E+03  0.41800000000E+01 0. -1.
</event>
<event>
11    1  0.8920286E-009  0.2438465E+03  0.7561462E-02  0.1027229E+00
         22   -1    0    0    0    0  0.00000000000E+00  0.00000000000E+00  0.13323855534E+04  0.13323855534E+04  0.00000000000E+00 0. -1.
         22   -1    0    0    0    0 -0.00000000000E+00 -0.00000000000E+00 -0.11033373339E+04  0.11033373339E+04  0.00000000000E+00 0.  1.
        -24    2    1    2    0    0  0.13994607362E+03 -0.13719251718E+03 -0.65160279670E+03  0.68513108635E+03  0.80073157360E+02 0.  0.
         25    2    1    2    0    0 -0.22574139186E+03  0.11631733003E+03 -0.38581850251E+03  0.47853198384E+03  0.12509214769E+03 0.  0.
         24    2    1    2    0    0  0.85795318236E+02  0.20875187156E+02  0.12664695187E+04  0.12720598171E+04  0.79965782711E+02 0.  0.
        -11    1    5    5    0    0 -0.15114863581E+02  0.44330877424E+01  0.11765714521E+03  0.11870684558E+03  0.00000000000E+00 0.  1.
         12    1    5    5    0    0  0.10091018182E+03  0.16442099414E+02  0.11488123735E+04  0.11533529715E+04  0.00000000000E+00 0. -1.
         11    1    3    3    0    0 -0.10069689398E+02 -0.78377139392E+01 -0.26852710346E+02  0.29730396184E+02  0.00000000000E+00 0. -1.
        -12    1    3    3    0    0  0.15001576302E+03 -0.12935480324E+03 -0.62475008635E+03  0.65540069017E+03  0.00000000000E+00 0.  1.
          5    1    4    4  501    0 -0.36353666324E+02  0.75754822465E+01 -0.26303638539E+01  0.37461556301E+02  0.41800000000E+01 0.  1.
         -5    1    4    4    0  501 -0.18938772553E+03  0.10874184778E+03 -0.38318813866E+03  0.44107042754E+03  0.41800000000E+01 0.  1.
</event>
<event>
11    1  0.8039394E-009  0.1400227E+03  0.7561462E-02  0.1107533E+00
         22   -1    0    0    0    0  0.00000000000E+00  0.00000000000E+00  0.17805277362E+03  0.17805277362E+03  0.00000000000E+00 0.  1.
         22   -1    0    0    0    0 -0.00000000000E+00 -0.00000000000E+00 -0.76356568961E+03  0.76356568961E+03  0.00000000000E+00 0. -1.
        -24    2    1    2    0    0 -0.29948529553E+02 -0.53508967514E+02 -0.52815239922E+03  0.53777891460E+03  0.80629276102E+02 0.  0.
         25    2    1    2    0    0  0.71396209881E+02  0.39565023887E+02 -0.18713879087E+03  0.23943640072E+03  0.12508418382E+03 0.  0.
         24    2    1    2    0    0 -0.41447680328E+02  0.13943943627E+02  0.12977827410E+03  0.16440314790E+03  0.90959611061E+02 0.  0.
        -13    1    5    5    0    0 -0.62080889772E+02  0.35136949415E+02  0.90544509661E+02  0.11526903452E+03  0.00000000000E+00 0.  1.
         14    1    5    5    0    0  0.20633209443E+02 -0.21193005788E+02  0.39233764437E+02  0.49134113385E+02  0.00000000000E+00 0. -1.
         11    1    3    3    0    0 -0.24622824150E+01 -0.52947623485E+02 -0.47489886682E+03  0.47784772405E+03  0.00000000000E+00 0. -1.
        -12    1    3    3    0    0 -0.27486247138E+02 -0.56134402953E+00 -0.53253532394E+02  0.59931190554E+02  0.00000000000E+00 0.  1.
          5    1    4    4  501    0 -0.14229907931E+02 -0.72620124890E+00 -0.12560627445E+03  0.12648093228E+03  0.41800000000E+01 0.  1.
         -5    1    4    4    0  501  0.85626117812E+02  0.40291225136E+02 -0.61532516416E+02  0.11295546844E+03  0.41800000000E+01 0.  1.
</event>
<event>
11    1  0.8039394E-009  0.1402849E+03  0.7561462E-02  0.1107241E+00
         22   -1    0    0    0    0  0.00000000000E+00  0.00000000000E+00  0.21856658935E+04  0.21856658935E+04  0.00000000000E+00 0.  1.
         22   -1    0    0    0    0 -0.00000000000E+00 -0.00000000000E+00 -0.49859458939E+03  0.49859458939E+03  0.00000000000E+00 0.  1.
        -24    2    1    2    0    0 -0.42534012077E+02  0.54871836171E+02 -0.45053198836E+03  0.46352128622E+03  0.83981245841E+02 0.  0.
         25    2    1    2    0    0 -0.20329878793E+02 -0.69701843189E+02  0.91069182621E+02  0.17091775174E+03  0.12509049094E+03 0.  0.
         24    2    1    2    0    0  0.62863890870E+02  0.14830007018E+02  0.20465341098E+04  0.20498214449E+04  0.96406926026E+02 0.  0.
        -11    1    5    5    0    0  0.60678272768E+01  0.83474248342E+01  0.15458660819E+04  0.15459005276E+04  0.00000000000E+00 0.  1.
         12    1    5    5    0    0  0.56796063593E+02  0.64825821840E+01  0.50066802789E+03  0.50392091727E+03  0.00000000000E+00 0. -1.
         13    1    3    3    0    0 -0.11344558197E+02 -0.22671699525E+02 -0.10953504623E+03  0.11243056219E+03  0.00000000000E+00 0. -1.
        -14    1    3    3    0    0 -0.31189453880E+02  0.77543535696E+02 -0.34099694213E+03  0.35109072403E+03  0.00000000000E+00 0.  1.
          5    1    4    4  501    0 -0.48673197043E+02  0.14533019562E+02  0.54791794362E+02  0.74832492256E+02  0.41800000000E+01 0. -1.
         -5    1    4    4    0  501  0.28343318250E+02 -0.84234862751E+02  0.36277388259E+02  0.96085259488E+02  0.41800000000E+01 0. -1.
</event>
<event>
11    1  0.8039394E-009  0.1473494E+03  0.7561462E-02  0.1099618E+00
         22   -1    0    0    0    0  0.00000000000E+00  0.00000000000E+00  0.75711778753E+03  0.75711778753E+03  0.00000000000E+00 0. -1.
         22   -1    0    0    0    0 -0.00000000000E+00 -0.00000000000E+00 -0.70895847273E+03  0.70895847273E+03  0.00000000000E+00 0.  1.
        -24    2    1    2    0    0 -0.30875284233E+02 -0.10541790358E+02 -0.51439316100E+03  0.52166558290E+03  0.80437825565E+02 0.  0.
         25    2    1    2    0    0  0.67936483332E+02 -0.57823635982E+02 -0.15466990061E+03  0.21800275848E+03  0.12507392175E+03 0.  0.
         24    2    1    2    0    0 -0.37061199099E+02  0.68365426339E+02  0.71722237641E+03  0.72640791888E+03  0.84930344395E+02 0.  0.
        -11    1    5    5    0    0 -0.23554797449E+02  0.30922635716E+02  0.91422106003E+02  0.99343038752E+02  0.00000000000E+00 0.  1.
         12    1    5    5    0    0 -0.13506401650E+02  0.37442790624E+02  0.62580027041E+03  0.62706488013E+03  0.00000000000E+00 0. -1.
         13    1    3    3    0    0 -0.40514467115E+02 -0.28027483306E+02 -0.17832387017E+03  0.18500368790E+03  0.00000000000E+00 0. -1.
        -14    1    3    3    0    0  0.96391828824E+01  0.17485692948E+02 -0.33606929083E+03  0.33666189500E+03  0.00000000000E+00 0.  1.
          5    1    4    4  501    0  0.80756711616E+02  0.42706284517E+01 -0.48849857348E+02  0.94570955908E+02  0.41800000000E+01 0. -1.
         -5    1    4    4    0  501 -0.12820228284E+02 -0.62094264433E+02 -0.10582004327E+03  0.12343180257E+03  0.41800000000E+01 0. -1.
</event>
<event>
11    1  0.8039394E-009  0.1388544E+03  0.7561462E-02  0.1108844E+00
         22   -1    0    0    0    0  0.00000000000E+00  0.00000000000E+00  0.14010416171E+03  0.14010416171E+03  0.00000000000E+00 0.  1.
         22   -1    0    0    0    0 -0.00000000000E+00 -0.00000000000E+00 -0.11084335177E+04  0.11084335177E+04  0.00000000000E+00 0. -1.
         24    2    1    2    0    0 -0.41536420625E+01  0.27675502104E+01 -0.89431687430E+03  0.89797605930E+03  0.80829569765E+02 0.  0.
         25    2    1    2    0    0  0.50877069202E+02 -0.39997980929E+02 -0.16354201799E+03  0.21582892901E+03  0.12509124789E+03 0.  0.
        -24    2    1    2    0    0 -0.46723427140E+02  0.37230430719E+02  0.89529536322E+02  0.13473269107E+03  0.81044287608E+02 0.  0.
        -11    1    3    3    0    0 -0.18371039563E+02 -0.84577685263E+01 -0.57322295646E+02  0.60785479526E+02  0.00000000000E+00 0.  1.
         12    1    3    3    0    0  0.14217397501E+02  0.11225318737E+02 -0.83699457865E+03  0.83719057978E+03  0.00000000000E+00 0. -1.
         13    1    5    5    0    0  0.20232572662E+02  0.11014260267E+02  0.46692873388E+01  0.23504747818E+02  0.00000000000E+00 0. -1.
        -14    1    5    5    0    0 -0.66955999801E+02  0.26216170451E+02  0.84860248983E+02  0.11122794325E+03  0.00000000000E+00 0.  1.
          5    1    4    4  501    0  0.21311456396E+02 -0.14828567946E+02 -0.17353660442E+03  0.17551777709E+03  0.41800000000E+01 0.  1.
         -5    1    4    4    0  501  0.29565612806E+02 -0.25169412983E+02  0.99945864348E+01  0.40311151913E+02  0.41800000000E+01 0.  1.
</event>
<event>
11    1  0.8039394E-009  0.2912819E+03  0.7561462E-02  0.1003950E+00
         22   -1    0    0    0    0  0.00000000000E+00  0.00000000000E+00  0.12375899274E+03  0.12375899274E+03  0.00000000000E+00 0.  1.
         22   -1    0    0    0    0 -0.00000000000E+00 -0.00000000000E+00 -0.19013043283E+04  0.19013043283E+04  0.00000000000E+00 0.  1.
         24    2    1    2    0    0 -0.10604691693E+03 -0.22524843256E+03 -0.90027044345E+03  0.93741436340E+03  0.79221287565E+02 0.  0.
         25    2    1    2    0    0  0.92943106681E+02  0.26718249903E+03 -0.93121710722E+03  0.98124238081E+03  0.12508557175E+03 0.  0.
        -24    2    1    2    0    0  0.13103810245E+02 -0.41934066470E+02  0.53942215131E+02  0.10640657680E+03  0.80513484834E+02 0.  0.
        -11    1    3    3    0    0 -0.61452307004E+02 -0.18976625738E+03 -0.76611826028E+03  0.79165952732E+03  0.00000000000E+00 0.  1.
         12    1    3    3    0    0 -0.44594609922E+02 -0.35482175179E+02 -0.13415218317E+03  0.14575483608E+03  0.00000000000E+00 0. -1.
         13    1    5    5    0    0 -0.12863719221E+02  0.20330857492E+02  0.17318988074E+02  0.29643994104E+02  0.00000000000E+00 0. -1.
        -14    1    5    5    0    0  0.25967529465E+02 -0.62264923963E+02  0.36623227058E+02  0.76762582700E+02  0.00000000000E+00 0.  1.
          5    1    4    4  501    0  0.73938562698E+02  0.24995447243E+03 -0.91303743051E+03  0.94952565592E+03  0.41800000000E+01 0. -1.
         -5    1    4    4    0  501  0.19004543984E+02  0.17228026598E+02 -0.18179676704E+02  0.31716724887E+02  0.41800000000E+01 0. -1.
</event>
<event>
11    1  0.8039394E-009  0.1989041E+03  0.7561462E-02  0.1055301E+00
         22   -1    0    0    0    0  0.00000000000E+00  0.00000000000E+00  0.80176497939E+03  0.80176497939E+03  0.00000000000E+00 0.  1.
         22   -1    0    0    0    0 -0.00000000000E+00 -0.00000000000E+00 -0.83247177117E+03  0.83247177117E+03  0.00000000000E+00 0.  1.
        -24    2    1    2    0    0  0.13051777251E+03 -0.80058775880E+02 -0.77335648123E+03  0.79267888518E+03  0.82554657118E+02 0.  0.
         25    2    1    2    0    0 -0.21126219369E+03  0.11872922991E+03  0.51867561301E+03  0.58600353316E+03  0.12508958718E+03 0.  0.
         24    2    1    2    0    0  0.80744421178E+02 -0.38670454026E+02  0.22397407644E+03  0.25555433223E+03  0.84430825179E+02 0.  0.
        -13    1    5    5    0    0  0.51228002562E+02  0.21872799969E+02  0.10061188959E+03  0.11500208673E+03  0.00000000000E+00 0.  1.
         14    1    5    5    0    0  0.29516418616E+02 -0.60543253995E+02  0.12336218684E+03  0.14055224550E+03  0.00000000000E+00 0. -1.
         11    1    3    3    0    0  0.22383059992E+01 -0.11463620884E+02 -0.93906053174E+01  0.14986930498E+02  0.00000000000E+00 0. -1.
        -12    1    3    3    0    0  0.12827946651E+03 -0.68595154997E+02 -0.76396587592E+03  0.77769195468E+03  0.00000000000E+00 0.  1.
          5    1    4    4  501    0 -0.12054659373E+03  0.29054116449E+01  0.17961759547E+03  0.21637900933E+03  0.41800000000E+01 0.  1.
         -5    1    4    4    0  501 -0.90715599956E+02  0.11582381826E+03  0.33905801754E+03  0.36962452382E+03  0.41800000000E+01 0.  1.
</event>
<event>
11    1  0.8039394E-009  0.6202586E+03  0.7561462E-02  0.9158843E-01
         22   -1    0    0    0    0  0.00000000000E+00  0.00000000000E+00  0.14914064591E+04  0.14914064591E+04  0.00000000000E+00 0.  1.
         22   -1    0    0    0    0 -0.00000000000E+00 -0.00000000000E+00 -0.94886067518E+03  0.94886067518E+03  0.00000000000E+00 0. -1.
         24    2    1    2    0    0 -0.42656280438E+03  0.40067935897E+03 -0.63415546505E+03  0.86581548292E+03  0.70594063738E+02 0.  0.
         25    2    1    2    0    0  0.53480220476E+03 -0.57080211488E+03  0.72711004322E+03  0.10752521207E+04  0.12509858305E+03 0.  0.
        -24    2    1    2    0    0 -0.10823940038E+03  0.17012275592E+03  0.44959120579E+03  0.49919953074E+03  0.80064969177E+02 0.  0.
        -13    1    3    3    0    0 -0.11633619897E+03  0.14982947075E+03 -0.18321815464E+03  0.26372689223E+03  0.00000000000E+00 0.  1.
         14    1    3    3    0    0 -0.31022660541E+03  0.25084988822E+03 -0.45093731041E+03  0.60208859069E+03  0.00000000000E+00 0. -1.
         13    1    5    5    0    0  0.12712215741E+02  0.18234350552E+02  0.36174045398E+02  0.42457667500E+02  0.00000000000E+00 0. -1.
        -14    1    5    5    0    0 -0.12095161612E+03  0.15188840536E+03  0.41341716039E+03  0.45674186324E+03  0.00000000000E+00 0.  1.
          5    1    4    4  501    0  0.33763966867E+03 -0.39916053974E+03  0.55368135966E+03  0.76151835354E+03  0.41800000000E+01 0.  1.
         -5    1    4    4    0  501  0.19716253609E+03 -0.17164157514E+03  0.17342868356E+03  0.31373376713E+03  0.41800000000E+01 0.  1.
</event>
<event>
11    1  0.8039394E-009  0.1838918E+03  0.7561462E-02  0.1066538E+00
         22   -1    0    0    0    0  0.00000000000E+00  0.00000000000E+00  0.16876921643E+04  0.16876921643E+04  0.00000000000E+00 0. -1.
         22   -1    0    0    0    0 -0.00000000000E+00 -0.00000000000E+00 -0.10154976807E+04  0.10154976807E+04  0.00000000000E+00 0.  1.
         24    2    1    2    0    0  0.68144365610E+02  0.15063804523E+03 -0.97515561585E+03  0.99236881750E+03  0.80820291939E+02 0.  0.
         25    2    1    2    0    0  0.95170522569E+01 -0.34618655043E+02  0.12618303593E+03  0.18126788842E+03  0.12508742245E+03 0.  0.
        -24    2    1    2    0    0 -0.77661417867E+02 -0.11601939019E+03  0.15211670635E+04  0.15295531390E+04  0.78049825417E+02 0.  0.
        -13    1    3    3    0    0  0.45407008853E+02  0.15323439269E+03 -0.80805303598E+03  0.82370643103E+03  0.00000000000E+00 0.  1.
         14    1    3    3    0    0  0.22737356757E+02 -0.25963474590E+01 -0.16710257987E+03  0.16866238647E+03  0.00000000000E+00 0. -1.
         11    1    5    5    0    0 -0.58443878965E+02 -0.20232935300E+02  0.64364629049E+03  0.64661086127E+03  0.00000000000E+00 0. -1.
        -12    1    5    5    0    0 -0.19217538902E+02 -0.95786454891E+02  0.87752077302E+03  0.88294227774E+03  0.00000000000E+00 0.  1.
          5    1    4    4  501    0  0.14176501586E+02 -0.39409262404E+02  0.15020243698E+03  0.15598816505E+03  0.41800000000E+01 0. -1.
         -5    1    4    4    0  501 -0.46594493294E+01  0.47906073610E+01 -0.24019401051E+02  0.25279723373E+02  0.41800000000E+01 0. -1.
</event>
<event>
11    1  0.8039394E-009  0.1565077E+03  0.7561462E-02  0.1090409E+00
         22   -1    0    0    0    0  0.00000000000E+00  0.00000000000E+00  0.63264891789E+03  0.63264891789E+03  0.00000000000E+00 0. -1.
         22   -1    0    0    0    0 -0.00000000000E+00 -0.00000000000E+00 -0.12560142080E+04  0.12560142080E+04  0.00000000000E+00 0.  1.
        -24    2    1    2    0    0  0.73118039948E+02 -0.58421354077E+02 -0.11725655785E+04  0.11790337772E+04  0.80320045015E+02 0.  0.
         25    2    1    2    0    0 -0.11485515444E+03  0.28857988654E+02  0.21818442831E+02  0.17363281609E+03  0.12509124816E+03 0.  0.
         24    2    1    2    0    0  0.41737114489E+02  0.29563365423E+02  0.52738184546E+03  0.53599653264E+03  0.80899275506E+02 0.  0.
        -13    1    5    5    0    0 -0.24025341214E+02  0.14902720851E+02  0.16486705321E+03  0.16727358830E+03  0.00000000000E+00 0.  1.
         14    1    5    5    0    0  0.65762455703E+02  0.14660644571E+02  0.36251479225E+03  0.36872294434E+03  0.00000000000E+00 0. -1.
         11    1    3    3    0    0  0.52478055601E+02 -0.16860909823E+02 -0.28651218273E+03  0.29176611773E+03  0.00000000000E+00 0. -1.
        -12    1    3    3    0    0  0.20639984347E+02 -0.41560444254E+02 -0.88605339572E+03  0.88726765947E+03  0.00000000000E+00 0.  1.
          5    1    4    4  501    0 -0.54930904743E+02  0.74023712222E+02 -0.83456639694E+01  0.92650077032E+02  0.41800000000E+01 0. -1.
         -5    1    4    4    0  501 -0.59924249694E+02 -0.45165723568E+02  0.30164106800E+02  0.80982739061E+02  0.41800000000E+01 0. -1.
</event>
<event>
11    1  0.8039394E-009  0.1286936E+03  0.7561462E-02  0.1120885E+00
         22   -1    0    0    0    0  0.00000000000E+00  0.00000000000E+00  0.25141218588E+04  0.25141218588E+04  0.00000000000E+00 0. -1.
         22   -1    0    0    0    0 -0.00000000000E+00 -0.00000000000E+00 -0.10759291602E+03  0.10759291602E+03  0.00000000000E+00 0. -1.
        -24    2    1    2    0    0 -0.18674869396E+02 -0.23903517174E+02 -0.72109564251E+02  0.11227527405E+03  0.80534582794E+02 0.  0.
         25    2    1    2    0    0  0.31145000551E+02  0.12981961194E+02  0.27220306210E+03  0.30145889687E+03  0.12507764434E+03 0.  0.
         24    2    1    2    0    0 -0.12470131155E+02  0.10921555980E+02  0.22064354449E+04  0.22079806039E+04  0.80908528383E+02 0.  0.
        -13    1    5    5    0    0  0.12436244676E+02  0.25014255429E+02  0.29243470377E+03  0.29376594276E+03  0.00000000000E+00 0.  1.
         14    1    5    5    0    0 -0.24906375831E+02 -0.14092699448E+02  0.19140007411E+04  0.19142146611E+04  0.00000000000E+00 0. -1.
         11    1    3    3    0    0  0.29740707249E+02 -0.21576474966E+02 -0.38955600748E+02  0.53549909143E+02  0.00000000000E+00 0. -1.
        -12    1    3    3    0    0 -0.48415576645E+02 -0.23270422089E+01 -0.33153963503E+02  0.58725364905E+02  0.00000000000E+00 0.  1.
          5    1    4    4  501    0  0.19638228223E+02 -0.28856311597E+02  0.25014516703E+03  0.25260329316E+03  0.41800000000E+01 0.  1.
         -5    1    4    4    0  501  0.11506772328E+02  0.41838272791E+02  0.22057895068E+02  0.48855603715E+02  0.41800000000E+01 0.  1.
</event>
<event>
11    1  0.8039394E-009  0.2290694E+03  0.7561462E-02  0.1035680E+00
         22   -1    0    0    0    0  0.00000000000E+00  0.00000000000E+00  0.60676144865E+03  0.60676144865E+03  0.00000000000E+00 0.  1.
         22   -1    0    0    0    0 -0.00000000000E+00 -0.00000000000E+00 -0.89286116108E+03  0.89286116108E+03  0.00000000000E+00 0. -1.
        -24    2    1    2    0    0  0.18665561208E+03 -0.10318770701E+02 -0.52211808894E+03  0.56036664749E+03  0.80353508164E+02 0.  0.
         25    2    1    2    0    0 -0.20301594922E+03 -0.54976447683E+02 -0.30115290000E+03  0.38804483392E+03  0.12509132071E+03 0.  0.
         24    2    1    2    0    0  0.16360337133E+02  0.65295218385E+02  0.53717127651E+03  0.55121112832E+03  0.10368028499E+03 0.  0.
        -11    1    5    5    0    0  0.40653254027E+02 -0.11121675066E+02  0.22447600319E+03  0.22839845605E+03  0.00000000000E+00 0.  1.
         12    1    5    5    0    0 -0.24292916894E+02  0.76416893451E+02  0.31269527333E+03  0.32281267227E+03  0.00000000000E+00 0. -1.
         13    1    3    3    0    0  0.17752321139E+03 -0.72940312956E+01 -0.39777520270E+03  0.43565216097E+03  0.00000000000E+00 0. -1.
        -14    1    3    3    0    0  0.91324006992E+01 -0.30247394056E+01 -0.12434288624E+03  0.12471448653E+03  0.00000000000E+00 0.  1.
          5    1    4    4  501    0 -0.21513289419E+03 -0.31119200852E+02 -0.27276432652E+03  0.34881000136E+03  0.41800000000E+01 0. -1.
         -5    1    4    4    0  501  0.12116944977E+02 -0.23857246831E+02 -0.28388573488E+02  0.39234832568E+02  0.41800000000E+01 0. -1.
</event>
<event>
11    1  0.8039394E-009  0.5678630E+03  0.7561462E-02  0.9253483E-01
         22   -1    0    0    0    0  0.00000000000E+00  0.00000000000E+00  0.25304024320E+03  0.25304024320E+03  0.00000000000E+00 0.  1.
         22   -1    0    0    0    0 -0.00000000000E+00 -0.00000000000E+00 -0.19085121953E+04  0.19085121953E+04  0.00000000000E+00 0.  1.
        -24    2    1    2    0    0 -0.43058995514E+03 -0.34907334638E+03 -0.12829521898E+04  0.13998874010E+04  0.80364815420E+02 0.  0.
         25    2    1    2    0    0  0.41870207267E+03  0.36134599566E+03 -0.37283877759E+03  0.67863024832E+03  0.12509158891E+03 0.  0.
         24    2    1    2    0    0  0.11887882466E+02 -0.12272649283E+02  0.31901528803E+00  0.83034789181E+02  0.81257213671E+02 0.  0.
        -13    1    5    5    0    0 -0.13187028458E+02  0.27212767245E+02 -0.15079483876E+02  0.33790875316E+02  0.00000000000E+00 0.  1.
         14    1    5    5    0    0  0.25074910924E+02 -0.39485416528E+02  0.15398499164E+02  0.49243913865E+02  0.00000000000E+00 0. -1.
         11    1    3    3    0    0 -0.32341455408E+03 -0.21738669669E+03 -0.92363911935E+03  0.10024785147E+04  0.00000000000E+00 0. -1.
        -12    1    3    3    0    0 -0.10717540106E+03 -0.13168664969E+03 -0.35931307044E+03  0.39740888627E+03  0.00000000000E+00 0.  1.
          5    1    4    4  501    0 -0.34566186886E+01  0.29359319518E+02 -0.22604819217E+02  0.37448205661E+02  0.41800000000E+01 0. -1.
         -5    1    4    4    0  501  0.42215869136E+03  0.33198667615E+03 -0.35023395838E+03  0.64118204266E+03  0.41800000000E+01 0. -1.
</event>
<event>
11    1  0.1075264E-008  0.1500948E+03  0.7561462E-02  0.1096782E+00
         22   -1    0    0    0    0  0.00000000000E+00  0.00000000000E+00  0.75195201940E+03  0.75195201940E+03  0.00000000000E+00 0. -1.
         22   -1    0    0    0    0 -0.00000000000E+00 -0.00000000000E+00 -0.44823046228E+03  0.44823046228E+03  0.00000000000E+00 0.  1.
        -24    2    1    2    0    0 -0.61213569526E+02  0.26622009668E+02 -0.31957336601E+03  0.33642495632E+03  0.81232890406E+02 0.  0.
         25    2    1    2    0    0 -0.21357178999E+01 -0.81895540588E+02 -0.66895443056E+02  0.16381235869E+03  0.12509215683E+03 0.  0.
         24    2    1    2    0    0  0.63349287426E+02  0.55273530920E+02  0.69019036618E+03  0.69994516667E+03  0.80574185334E+02 0.  0.
        -11    1    5    5    0    0  0.33338647528E+02  0.42539940077E+02  0.16257295584E+03  0.17132156283E+03  0.00000000000E+00 0.  1.
         12    1    5    5    0    0  0.30010639899E+02  0.12733590843E+02  0.52761741034E+03  0.52862360384E+03  0.00000000000E+00 0. -1.
         11    1    3    3    0    0 -0.46823387823E+02 -0.14083266744E+02 -0.86291848297E+02  0.99181909298E+02  0.00000000000E+00 0. -1.
        -12    1    3    3    0    0 -0.14390181703E+02  0.40705276412E+02 -0.23328151771E+03  0.23724304703E+03  0.00000000000E+00 0.  1.
          5    1    4    4  501    0 -0.33425094650E+02  0.19715287279E+02 -0.17880722636E+01  0.39071717485E+02  0.41800000000E+01 0.  1.
         -5    1    4    4    0  501  0.31289376750E+02 -0.10161082787E+03 -0.65107370792E+02  0.12474064121E+03  0.41800000000E+01 0.  1.
</event>
<event>
11    1  0.8039394E-009  0.1411217E+03  0.7561462E-02  0.1106312E+00
         22   -1    0    0    0    0  0.00000000000E+00  0.00000000000E+00  0.29817867293E+03  0.29817867293E+03  0.00000000000E+00 0. -1.
         22   -1    0    0    0    0 -0.00000000000E+00 -0.00000000000E+00 -0.34531180836E+03  0.34531180836E+03  0.00000000000E+00 0.  1.
         24    2    1    2    0    0 -0.35652391887E+02 -0.17178602678E+02 -0.24183622682E+03  0.25750340944E+03  0.79101503373E+02 0.  0.
         25    2    1    2    0    0  0.71001467048E+01 -0.45615407286E+02 -0.30943466313E+02  0.13688097980E+03  0.12509087520E+03 0.  0.
        -24    2    1    2    0    0  0.28552245182E+02  0.62794009964E+02  0.22564655770E+03  0.24910609205E+03  0.79869629394E+02 0.  0.
        -11    1    3    3    0    0 -0.40616807849E+02 -0.27615335763E+02 -0.24095804087E+03  0.24591280834E+03  0.00000000000E+00 0.  1.
         12    1    3    3    0    0  0.49644159624E+01  0.10436733086E+02 -0.87818595510E+00  0.11590601103E+02  0.00000000000E+00 0. -1.
         13    1    5    5    0    0  0.35073281904E+02  0.57066013583E+02  0.22988661611E+03  0.23944628057E+03  0.00000000000E+00 0. -1.
        -14    1    5    5    0    0 -0.65210367217E+01  0.57279963804E+01 -0.42400584115E+01  0.96598114781E+01  0.00000000000E+00 0.  1.
          5    1    4    4  501    0  0.24292749227E+01 -0.87230647398E+02 -0.36005173852E+02  0.94493027078E+02  0.41800000000E+01 0.  1.
         -5    1    4    4    0  501  0.46708717821E+01  0.41615240113E+02  0.50617075393E+01  0.42387952723E+02  0.41800000000E+01 0.  1.
</event>
<event>
11    1  0.8039394E-009  0.2287972E+03  0.7561462E-02  0.1035842E+00
         22   -1    0    0    0    0  0.00000000000E+00  0.00000000000E+00  0.78658964651E+03  0.78658964651E+03  0.00000000000E+00 0. -1.
         22   -1    0    0    0    0 -0.00000000000E+00 -0.00000000000E+00 -0.58958182353E+03  0.58958182353E+03  0.00000000000E+00 0. -1.
        -24    2    1    2    0    0 -0.58462926690E+02  0.17656180783E+03 -0.42873596891E+03  0.47429688641E+03  0.80938369409E+02 0.  0.
         25    2    1    2    0    0  0.63198417354E+02 -0.21163963919E+03 -0.15890548530E+02  0.25433413407E+03  0.12509182783E+03 0.  0.
         24    2    1    2    0    0 -0.47354906644E+01  0.35077831359E+02  0.64163434042E+03  0.64754044956E+03  0.79756679261E+02 0.  0.
        -11    1    5    5    0    0  0.15926455653E+02  0.51056594164E+02  0.28666812635E+03  0.29161454432E+03  0.00000000000E+00 0.  1.
         12    1    5    5    0    0 -0.20661946317E+02 -0.15978762805E+02  0.35496621407E+03  0.35592590523E+03  0.00000000000E+00 0. -1.
         11    1    3    3    0    0 -0.48428800830E+02  0.49056168489E+02 -0.20869234784E+03  0.21978251173E+03  0.00000000000E+00 0. -1.
        -12    1    3    3    0    0 -0.10034125860E+02  0.12750563934E+03 -0.22004362108E+03  0.25451437468E+03  0.00000000000E+00 0.  1.
          5    1    4    4  501    0 -0.15555681945E+02 -0.10164389647E+03 -0.50496306868E+02  0.11463337358E+03  0.41800000000E+01 0.  1.
         -5    1    4    4    0  501  0.78754099299E+02 -0.10999574272E+03  0.34605758338E+02  0.13970076049E+03  0.41800000000E+01 0.  1.
</event>
<event>
11    1  0.8039394E-009  0.1681387E+03  0.7561462E-02  0.1079663E+00
         22   -1    0    0    0    0  0.00000000000E+00  0.00000000000E+00  0.98103370006E+03  0.98103370006E+03  0.00000000000E+00 0. -1.
         22   -1    0    0    0    0 -0.00000000000E+00 -0.00000000000E+00 -0.59069474190E+03  0.59069474190E+03  0.00000000000E+00 0. -1.
        -24    2    1    2    0    0  0.11169674932E+03  0.17431712373E+02 -0.55974372844E+03  0.57655474290E+03  0.79512902277E+02 0.  0.
         25    2    1    2    0    0 -0.88723769485E+02 -0.11082239493E+01  0.27554894752E+03  0.31535384226E+03  0.12509071876E+03 0.  0.
         24    2    1    2    0    0 -0.22972979836E+02 -0.16323488424E+02  0.67453373907E+03  0.67981985680E+03  0.79781316538E+02 0.  0.
        -11    1    5    5    0    0 -0.36231373941E+02  0.20248578848E+02  0.24135091989E+03  0.24489382176E+03  0.00000000000E+00 0.  1.
         12    1    5    5    0    0  0.13258394105E+02 -0.36572067272E+02  0.43318281918E+03  0.43492603503E+03  0.00000000000E+00 0. -1.
         11    1    3    3    0    0  0.95566095214E+02  0.19961302492E+02 -0.54752590787E+03  0.55616180374E+03  0.00000000000E+00 0. -1.
        -12    1    3    3    0    0  0.16130654107E+02 -0.25295901187E+01 -0.12217820569E+02  0.20392939159E+02  0.00000000000E+00 0.  1.
          5    1    4    4  501    0  0.19073948499E+02 -0.20151851679E+02  0.13115557977E+02  0.30974229586E+02  0.41800000000E+01 0.  1.
         -5    1    4    4    0  501 -0.10779771798E+03  0.19043627729E+02  0.26243338954E+03  0.28437961268E+03  0.41800000000E+01 0.  1.
</event>
<event>
11    1  0.8039394E-009  0.2166638E+03  0.7561462E-02  0.1043328E+00
         22   -1    0    0    0    0  0.00000000000E+00  0.00000000000E+00  0.11633151741E+04  0.11633151741E+04  0.00000000000E+00 0. -1.
         22   -1    0    0    0    0 -0.00000000000E+00 -0.00000000000E+00 -0.15117859767E+04  0.15117859767E+04  0.00000000000E+00 0. -1.
        -24    2    1    2    0    0  0.88779723677E+02 -0.14113367392E+03 -0.13269747624E+04  0.13392597623E+04  0.70385635577E+02 0.  0.
         25    2    1    2    0    0 -0.14470576483E+03  0.30021351364E+03  0.17228706841E+02  0.35638810599E+03  0.12509093335E+03 0.  0.
         24    2    1    2    0    0  0.55926041154E+02 -0.15907983971E+03  0.96127525302E+03  0.97945328248E+03  0.82731511503E+02 0.  0.
        -13    1    5    5    0    0 -0.11668336821E+02 -0.23721968891E+02  0.59981631021E+02  0.65549049971E+02  0.00000000000E+00 0.  1.
         14    1    5    5    0    0  0.67594377975E+02 -0.13535787082E+03  0.90129362200E+03  0.91390423251E+03  0.00000000000E+00 0. -1.
         13    1    3    3    0    0  0.49504051830E+02 -0.11324939331E+03 -0.11177188610E+04  0.11245316930E+04  0.00000000000E+00 0. -1.
        -14    1    3    3    0    0  0.39275671847E+02 -0.27884280617E+02 -0.20925590134E+03  0.21472806931E+03  0.00000000000E+00 0.  1.
          5    1    4    4  501    0  0.95761613458E+01  0.39256737161E+01  0.19311854922E+02  0.22305468406E+02  0.41800000000E+01 0. -1.
         -5    1    4    4    0  501 -0.15428192618E+03  0.29628783992E+03 -0.20831480815E+01  0.33408263758E+03  0.41800000000E+01 0. -1.
</event>
<event>
11    1  0.8039394E-009  0.1436193E+03  0.7561462E-02  0.1103583E+00
         22   -1    0    0    0    0  0.00000000000E+00  0.00000000000E+00  0.52698917453E+03  0.52698917453E+03  0.00000000000E+00 0. -1.
         22   -1    0    0    0    0 -0.00000000000E+00 -0.00000000000E+00 -0.89656412094E+03  0.89656412094E+03  0.00000000000E+00 0. -1.
        -24    2    1    2    0    0 -0.45866489371E+01  0.20104286119E+02 -0.78277071021E+03  0.78722639016E+03  0.81056677279E+02 0.  0.
         25    2    1    2    0    0  0.73718198088E+02 -0.31887564055E+02 -0.53198446061E+02  0.15788828646E+03  0.12508975525E+03 0.  0.
         24    2    1    2    0    0 -0.69131549151E+02  0.11783277936E+02  0.46639420987E+03  0.47843861884E+03  0.80386169683E+02 0.  0.
        -13    1    5    5    0    0 -0.53790361368E+02  0.23462400034E+02  0.14442326176E+03  0.15589087763E+03  0.00000000000E+00 0.  1.
         14    1    5    5    0    0 -0.15341187783E+02 -0.11679122098E+02  0.32197094811E+03  0.32254774121E+03  0.00000000000E+00 0. -1.
         13    1    3    3    0    0 -0.35888562017E+02  0.73654331004E+01 -0.61474973059E+03  0.61584045803E+03  0.00000000000E+00 0. -1.
        -14    1    3    3    0    0  0.31301913080E+02  0.12738853018E+02 -0.16802097962E+03  0.17138593213E+03  0.00000000000E+00 0.  1.
          5    1    4    4  501    0  0.73005306623E+02 -0.37977729809E+02 -0.89022552074E+02  0.12130362704E+03  0.41800000000E+01 0.  1.
         -5    1    4    4    0  501  0.71289146534E+00  0.60901657541E+01  0.35824106013E+02  0.36584659419E+02  0.41800000000E+01 0.  1.
</event>
<event>
11    1  0.8039394E-009  0.1350631E+03  0.7561462E-02  0.1113200E+00
         22   -1    0    0    0    0  0.00000000000E+00  0.00000000000E+00  0.74379893285E+03  0.74379893285E+03  0.00000000000E+00 0.  1.
         22   -1    0    0    0    0 -0.00000000000E+00 -0.00000000000E+00 -0.11153629632E+04  0.11153629632E+04  0.00000000000E+00 0.  1.
         24    2    1    2    0    0  0.15864171707E+02 -0.48480060436E+02 -0.10927271447E+04  0.10968115475E+04  0.79630206017E+02 0.  0.
         25    2    1    2    0    0 -0.35982759008E+02  0.32125185273E+02  0.24988510941E+03  0.28357815498E+03  0.12508883084E+03 0.  0.
        -24    2    1    2    0    0  0.20118587301E+02  0.16354875163E+02  0.47127800492E+03  0.47877219361E+03  0.80297048235E+02 0.  0.
        -11    1    3    3    0    0 -0.28723951743E+02 -0.49922819033E+01 -0.49232213449E+03  0.49318462302E+03  0.00000000000E+00 0.  1.
         12    1    3    3    0    0  0.44588123450E+02 -0.43487778532E+02 -0.60040501023E+03  0.60362692447E+03  0.00000000000E+00 0. -1.
         13    1    5    5    0    0  0.10910227011E+02 -0.15285092315E+02  0.24941555900E+02  0.31220959486E+02  0.00000000000E+00 0. -1.
        -14    1    5    5    0    0  0.92083602901E+01  0.31639967478E+02  0.44633644902E+03  0.44755123413E+03  0.00000000000E+00 0.  1.
          5    1    4    4  501    0 -0.14729495959E+02 -0.58176909645E+01 -0.10563740076E+02  0.19490217643E+02  0.41800000000E+01 0.  1.
         -5    1    4    4    0  501 -0.21253263049E+02  0.37942876237E+02  0.26044884949E+03  0.26408793734E+03  0.41800000000E+01 0.  1.
</event>
<event>
11    1  0.8039394E-009  0.1485761E+03  0.7561462E-02  0.1098343E+00
         22   -1    0    0    0    0  0.00000000000E+00  0.00000000000E+00  0.68466612969E+03  0.68466612969E+03  0.00000000000E+00 0.  1.
         22   -1    0    0    0    0 -0.00000000000E+00 -0.00000000000E+00 -0.11945891236E+03  0.11945891236E+03  0.00000000000E+00 0. -1.
         24    2    1    2    0    0  0.76771325051E+02  0.15946718308E+02 -0.43994724608E+02  0.12273801382E+03  0.83552079979E+02 0.  0.
         25    2    1    2    0    0 -0.91754057858E+02  0.10347652583E+02  0.15660547851E+03  0.22067657618E+03  0.12508794636E+03 0.  0.
        -24    2    1    2    0    0  0.14982732807E+02 -0.26294370892E+02  0.45259646343E+03  0.46071045206E+03  0.80589612889E+02 0.  0.
        -11    1    3    3    0    0 -0.55359657137E+01  0.11556473346E+02  0.16213271232E+02  0.20665651614E+02  0.00000000000E+00 0.  1.
         12    1    3    3    0    0  0.82307290765E+02  0.43902449623E+01 -0.60207995840E+02  0.10207236221E+03  0.00000000000E+00 0. -1.
         11    1    5    5    0    0  0.29505148382E+02 -0.28923878453E+01  0.57848386133E+02  0.65002734302E+02  0.00000000000E+00 0. -1.
        -12    1    5    5    0    0 -0.14522415575E+02 -0.23401983046E+02  0.39474807729E+03  0.39570771776E+03  0.00000000000E+00 0.  1.
          5    1    4    4  501    0 -0.66791622706E+02 -0.41757201616E+02  0.35644897180E+02  0.86561052705E+02  0.41800000000E+01 0.  1.
         -5    1    4    4    0  501 -0.24962435152E+02  0.52104854199E+02  0.12096058133E+03  0.13411552347E+03  0.41800000000E+01 0.  1.
</event>
<event>
11    1  0.8039394E-009  0.1339173E+03  0.7561462E-02  0.1114547E+00
         22   -1    0    0    0    0  0.00000000000E+00  0.00000000000E+00  0.17098765846E+03  0.17098765846E+03  0.00000000000E+00 0.  1.
         22   -1    0    0    0    0 -0.00000000000E+00 -0.00000000000E+00 -0.87354983154E+03  0.87354983154E+03  0.00000000000E+00 0. -1.
         24    2    1    2    0    0 -0.46252718442E+02 -0.83618156498E+01 -0.53814655895E+03  0.54625336747E+03  0.81128223388E+02 0.  0.
         25    2    1    2    0    0  0.13435771649E+02 -0.28591489055E+02 -0.30367190490E+03  0.32994250445E+03  0.12508971665E+03 0.  0.
        -24    2    1    2    0    0  0.32816946793E+02  0.36953304705E+02  0.13925629078E+03  0.16834161808E+03  0.80647920818E+02 0.  0.
        -13    1    3    3    0    0  0.19086940846E+02  0.14576362057E+02 -0.11539589564E+03  0.11786854700E+03  0.00000000000E+00 0.  1.
         14    1    3    3    0    0 -0.65339659288E+02 -0.22938177707E+02 -0.42275066331E+03  0.42838482046E+03  0.00000000000E+00 0. -1.
         13    1    5    5    0    0  0.13972116754E+01  0.56078187992E+02  0.67999505381E+02  0.88151279633E+02  0.00000000000E+00 0. -1.
        -14    1    5    5    0    0  0.31419735118E+02 -0.19124883288E+02  0.71256785397E+02  0.80190338450E+02  0.00000000000E+00 0.  1.
          5    1    4    4  501    0 -0.54050100569E+02 -0.26812883910E+01 -0.99982660955E+02  0.11376558166E+03  0.41800000000E+01 0. -1.
         -5    1    4    4    0  501  0.67485872218E+02 -0.25910200664E+02 -0.20368924394E+03  0.21617692279E+03  0.41800000000E+01 0. -1.
</event>
<event>
11    1  0.8039394E-009  0.1310490E+03  0.7561462E-02  0.1117987E+00
         22   -1    0    0    0    0  0.00000000000E+00  0.00000000000E+00  0.60294152805E+03  0.60294152805E+03  0.00000000000E+00 0.  1.
         22   -1    0    0    0    0 -0.00000000000E+00 -0.00000000000E+00 -0.98070715472E+03  0.98070715472E+03  0.00000000000E+00 0. -1.
        -24    2    1    2    0    0 -0.15800488666E+02  0.21136172568E+02 -0.84416754597E+03  0.84829131510E+03  0.79264849539E+02 0.  0.
         25    2    1    2    0    0  0.23372933583E+02  0.17650349361E+02 -0.99552539871E+02  0.16252993020E+03  0.12508973242E+03 0.  0.
         24    2    1    2    0    0 -0.75724449172E+01 -0.38786521929E+02  0.56595445917E+03  0.57282743747E+03  0.79152302931E+02 0.  0.
        -11    1    5    5    0    0  0.24878697866E+02 -0.45631415351E+02  0.41694649927E+03  0.42017324871E+03  0.00000000000E+00 0.  1.
         12    1    5    5    0    0 -0.32451142783E+02  0.68448934221E+01  0.14900795989E+03  0.15265418876E+03  0.00000000000E+00 0. -1.
         11    1    3    3    0    0 -0.13954287048E+02  0.41261767178E+02 -0.77522141697E+03  0.77644413893E+03  0.00000000000E+00 0. -1.
        -12    1    3    3    0    0 -0.18462016175E+01 -0.20125594610E+02 -0.68946129005E+02  0.71847176170E+02  0.00000000000E+00 0.  1.
          5    1    4    4  501    0 -0.10002381904E+02 -0.47428481871E+02 -0.15561412603E+02  0.51079726884E+02  0.41800000000E+01 0.  1.
         -5    1    4    4    0  501  0.33375315487E+02  0.65078831232E+02 -0.83991127268E+02  0.11145020331E+03  0.41800000000E+01 0.  1.
</event>
<event>
11    1  0.8039394E-009  0.2297687E+03  0.7561462E-02  0.1035265E+00
         22   -1    0    0    0    0  0.00000000000E+00  0.00000000000E+00  0.79629204890E+03  0.79629204890E+03  0.00000000000E+00 0. -1.
         22   -1    0    0    0    0 -0.00000000000E+00 -0.00000000000E+00 -0.11130644322E+04  0.11130644322E+04  0.00000000000E+00 0.  1.
         24    2    1    2    0    0 -0.27245951856E+02 -0.19066245197E+03 -0.10664821151E+04  0.10867042731E+04  0.80296717305E+02 0.  0.
         25    2    1    2    0    0  0.69715186711E+02  0.19081798252E+03  0.44965630398E+03  0.50903028190E+03  0.12509726802E+03 0.  0.
        -24    2    1    2    0    0 -0.42469234854E+02 -0.15553054852E+00  0.30005342781E+03  0.31362192615E+03  0.80765047640E+02 0.  0.
        -11    1    3    3    0    0 -0.13883929502E+02 -0.82113391027E+02 -0.67883699139E+03  0.68392619000E+03  0.00000000000E+00 0.  1.
         12    1    3    3    0    0 -0.13362022354E+02 -0.10854906095E+03 -0.38764512374E+03  0.40277808311E+03  0.00000000000E+00 0. -1.
         11    1    5    5    0    0 -0.58647071075E+02  0.15663385819E+02  0.26526986012E+03  0.27212666038E+03  0.00000000000E+00 0. -1.
        -12    1    5    5    0    0  0.16177836220E+02 -0.15818916368E+02  0.34783567687E+02  0.41495265765E+02  0.00000000000E+00 0.  1.
          5    1    4    4  501    0  0.43096610742E+02  0.86593881146E+02  0.34709410390E+03  0.36034373516E+03  0.41800000000E+01 0.  1.
         -5    1    4    4    0  501  0.26618575968E+02  0.10422410137E+03  0.10256220008E+03  0.14868654673E+03  0.41800000000E+01 0.  1.
</event>
<event>
11    1  0.8039394E-009  0.1436011E+03  0.7561462E-02  0.1103603E+00
         22   -1    0    0    0    0  0.00000000000E+00  0.00000000000E+00  0.45916223616E+03  0.45916223616E+03  0.00000000000E+00 0. -1.
         22   -1    0    0    0    0 -0.00000000000E+00 -0.00000000000E+00 -0.11798172789E+04  0.11798172789E+04  0.00000000000E+00 0.  1.
        -24    2    1    2    0    0 -0.30478112825E+01 -0.59523309073E+01 -0.95996156175E+03  0.96331228374E+03  0.79997728619E+02 0.  0.
         25    2    1    2    0    0  0.54105892863E+02  0.54311428599E+02 -0.18594916938E+03  0.23685949383E+03  0.12509255497E+03 0.  0.
         24    2    1    2    0    0 -0.51058081581E+02 -0.48359097691E+02  0.42525568842E+03  0.43880773744E+03  0.82245363845E+02 0.  0.
        -11    1    5    5    0    0  0.27513286278E+01 -0.23007522161E+02  0.24730430649E+02  0.33889675202E+02  0.00000000000E+00 0.  1.
         12    1    5    5    0    0 -0.53809410209E+02 -0.25351575530E+02  0.40052525777E+03  0.40491806223E+03  0.00000000000E+00 0. -1.
         11    1    3    3    0    0 -0.25331704221E+02  0.40217153619E+01 -0.10811023467E+03  0.11111117079E+03  0.00000000000E+00 0. -1.
        -12    1    3    3    0    0  0.22283892938E+02 -0.99740462692E+01 -0.85185132708E+03  0.85220111296E+03  0.00000000000E+00 0.  1.
          5    1    4    4  501    0 -0.22204951670E+02 -0.69088462884E+01  0.32223502778E+01  0.23846340956E+02  0.41800000000E+01 0. -1.
         -5    1    4    4    0  501  0.76310844533E+02  0.61220274887E+02 -0.18917151965E+03  0.21301315288E+03  0.41800000000E+01 0. -1.
</event>
<event>
11    1  0.8039394E-009  0.1718772E+03  0.7561462E-02  0.1076410E+00
         22   -1    0    0    0    0  0.00000000000E+00  0.00000000000E+00  0.17918052099E+04  0.17918052099E+04  0.00000000000E+00 0.  1.
         22   -1    0    0    0    0 -0.00000000000E+00 -0.00000000000E+00 -0.11370732007E+03  0.11370732007E+03  0.00000000000E+00 0.  1.
         24    2    1    2    0    0  0.35342295365E+02 -0.11835294240E+03 -0.45306122501E+02  0.15266437734E+03  0.77442046429E+02 0.  0.
         25    2    1    2    0    0  0.18584257874E+02  0.79365756811E+02  0.42876133601E+03  0.45401290341E+03  0.12508850951E+03 0.  0.
        -24    2    1    2    0    0 -0.53926553239E+02  0.38987185593E+02  0.12946426764E+04  0.12988352493E+04  0.80282448265E+02 0.  0.
        -13    1    3    3    0    0  0.26176239830E+02 -0.12500166867E+03 -0.53725928094E+02  0.13855355662E+03  0.00000000000E+00 0.  1.
         14    1    3    3    0    0  0.91660555344E+01  0.66487262711E+01  0.84198055930E+01  0.14110820717E+02  0.00000000000E+00 0. -1.
         13    1    5    5    0    0 -0.25163329239E+02  0.18514614717E+02  0.13161829596E+03  0.13527512679E+03  0.00000000000E+00 0. -1.
        -14    1    5    5    0    0 -0.28763224000E+02  0.20472570876E+02  0.11630243804E+04  0.11635601225E+04  0.00000000000E+00 0.  1.
          5    1    4    4  501    0  0.17873328809E+02  0.81475273006E+02  0.43678386216E+03  0.44469685251E+03  0.41800000000E+01 0.  1.
         -5    1    4    4    0  501  0.71092906532E+00 -0.21095161954E+01 -0.80225261423E+01  0.93160509025E+01  0.41800000000E+01 0.  1.
</event>
<event>
11    1  0.8039394E-009  0.1433783E+03  0.7561462E-02  0.1103844E+00
         22   -1    0    0    0    0  0.00000000000E+00  0.00000000000E+00  0.34497565864E+03  0.34497565864E+03  0.00000000000E+00 0. -1.
         22   -1    0    0    0    0 -0.00000000000E+00 -0.00000000000E+00 -0.22865306830E+03  0.22865306830E+03  0.00000000000E+00 0.  1.
         24    2    1    2    0    0  0.21658816085E+02 -0.20276057042E+02 -0.82971957617E+02  0.12057989150E+03  0.82310033892E+02 0.  0.
         25    2    1    2    0    0  0.49596022627E+02  0.10110570809E+02 -0.77610296527E+02  0.15568698369E+03  0.12511230819E+03 0.  0.
        -24    2    1    2    0    0 -0.71254838712E+02  0.10165486234E+02  0.27690484449E+03  0.29736185175E+03  0.81038193628E+02 0.  0.
        -13    1    3    3    0    0  0.31917891504E+01 -0.45237006840E+02 -0.76395095453E+02  0.88841346878E+02  0.00000000000E+00 0.  1.
         14    1    3    3    0    0  0.18467026934E+02  0.24960949798E+02 -0.65768621641E+01  0.31738544619E+02  0.00000000000E+00 0. -1.
         11    1    5    5    0    0 -0.18969864877E+02 -0.26445366025E+02  0.16806027884E+03  0.17118256477E+03  0.00000000000E+00 0. -1.
        -12    1    5    5    0    0 -0.52284973835E+02  0.36610852259E+02  0.10884456564E+03  0.12617928698E+03  0.00000000000E+00 0.  1.
          5    1    4    4  501    0  0.25977418219E+02 -0.54811097914E+02 -0.15620715603E+02  0.62773894795E+02  0.41800000000E+01 0. -1.
         -5    1    4    4    0  501  0.23618604408E+02  0.64921668723E+02 -0.61989580924E+02  0.92913088890E+02  0.41800000000E+01 0. -1.
</event>
<event>
11    1  0.8039394E-009  0.1283844E+03  0.7561462E-02  0.1121270E+00
         22   -1    0    0    0    0  0.00000000000E+00  0.00000000000E+00  0.39371420637E+03  0.39371420637E+03  0.00000000000E+00 0.  1.
         22   -1    0    0    0    0 -0.00000000000E+00 -0.00000000000E+00 -0.13644354650E+03  0.13644354650E+03  0.00000000000E+00 0. -1.
         24    2    1    2    0    0 -0.72404455496E+01  0.12047000591E+02 -0.66094103089E+02  0.10508612144E+03  0.80480483230E+02 0.  0.
         25    2    1    2    0    0 -0.19454586313E+02  0.25899391283E+01  0.46237204457E+02  0.13479981532E+03  0.12509165608E+03 0.  0.
        -24    2    1    2    0    0  0.26695031863E+02 -0.14636939719E+02  0.27712755850E+03  0.29027181611E+03  0.80815708960E+02 0.  0.
        -13    1    3    3    0    0 -0.10374692101E+02 -0.95593533351E+01  0.15302115934E+02  0.20812741877E+02  0.00000000000E+00 0.  1.
         14    1    3    3    0    0  0.31342465513E+01  0.21606353926E+02 -0.81396219023E+02  0.84273379562E+02  0.00000000000E+00 0. -1.
         11    1    5    5    0    0  0.20922102673E+02 -0.15582938944E+02  0.19480722270E+02  0.32558576544E+02  0.00000000000E+00 0. -1.
        -12    1    5    5    0    0  0.57729291893E+01  0.94599922487E+00  0.25764683623E+03  0.25771323957E+03  0.00000000000E+00 0.  1.
          5    1    4    4  501    0 -0.29955139195E+02 -0.16211331103E+02  0.84216950196E+02  0.90940006161E+02  0.41800000000E+01 0. -1.
         -5    1    4    4    0  501  0.10500552882E+02  0.18801270231E+02 -0.37979745739E+02  0.43859809160E+02  0.41800000000E+01 0. -1.
</event>
<event>
11    1  0.8039394E-009  0.2279714E+03  0.7561462E-02  0.1036336E+00
         22   -1    0    0    0    0  0.00000000000E+00  0.00000000000E+00  0.45918665125E+03  0.45918665125E+03  0.00000000000E+00 0.  1.
         22   -1    0    0    0    0 -0.00000000000E+00 -0.00000000000E+00 -0.92921248380E+03  0.92921248380E+03  0.00000000000E+00 0.  1.
         24    2    1    2    0    0 -0.42130741805E+02 -0.19049670978E+03 -0.77843555705E+03  0.80703070604E+03  0.85279822767E+02 0.  0.
         25    2    1    2    0    0 -0.36062172481E+01  0.16812056409E+03 -0.46208406260E+02  0.21462032020E+03  0.12509650740E+03 0.  0.
        -24    2    1    2    0    0  0.45736959054E+02  0.22376145698E+02  0.35461813075E+03  0.36674810881E+03  0.78470346875E+02 0.  0.
        -13    1    3    3    0    0 -0.39964810969E+02 -0.93864634600E+02 -0.54345136921E+03  0.55294407171E+03  0.00000000000E+00 0.  1.
         14    1    3    3    0    0 -0.21659308364E+01 -0.96632075183E+02 -0.23498418784E+03  0.25408663433E+03  0.00000000000E+00 0. -1.
         13    1    5    5    0    0 -0.65387306156E+01  0.21147094511E+02  0.26677127734E+02  0.34664445018E+02  0.00000000000E+00 0. -1.
        -14    1    5    5    0    0  0.52275689669E+02  0.12290511868E+01  0.32794100302E+03  0.33208366380E+03  0.00000000000E+00 0.  1.
          5    1    4    4  501    0 -0.30559734955E+02  0.67145768309E+02 -0.75865428028E+02  0.10590319718E+03  0.41800000000E+01 0.  1.
         -5    1    4    4    0  501  0.26953517707E+02  0.10097479578E+03  0.29657021768E+02  0.10871712303E+03  0.41800000000E+01 0.  1.
</event>
<event>
11    1  0.8039394E-009  0.1399354E+03  0.7561462E-02  0.1107631E+00
         22   -1    0    0    0    0  0.00000000000E+00  0.00000000000E+00  0.23017146837E+03  0.23017146837E+03  0.00000000000E+00 0.  1.
         22   -1    0    0    0    0 -0.00000000000E+00 -0.00000000000E+00 -0.11947399134E+04  0.11947399134E+04  0.00000000000E+00 0. -1.
         24    2    1    2    0    0  0.22383789188E+02  0.55349328511E+02 -0.99592057077E+03  0.10008925004E+04  0.79771121794E+02 0.  0.
         25    2    1    2    0    0 -0.82894278815E+02 -0.42156621367E+02 -0.15014037596E+03  0.21642172474E+03  0.12509032042E+03 0.  0.
        -24    2    1    2    0    0  0.60510489627E+02 -0.13192707144E+02  0.18149250170E+03  0.20759715663E+03  0.79507763069E+02 0.  0.
        -13    1    3    3    0    0 -0.45413504728E+01  0.28814979121E+02 -0.99821919868E+02  0.10399683924E+03  0.00000000000E+00 0.  1.
         14    1    3    3    0    0  0.26925139661E+02  0.26534349390E+02 -0.89609865090E+03  0.89689566115E+03  0.00000000000E+00 0. -1.
         13    1    5    5    0    0  0.15445253327E+02  0.32597607678E+02  0.55941730208E+02  0.66563030695E+02  0.00000000000E+00 0. -1.
        -14    1    5    5    0    0  0.45065236300E+02 -0.45790314821E+02  0.12555077149E+03  0.14103412593E+03  0.00000000000E+00 0.  1.
          5    1    4    4  501    0 -0.60842131311E+02  0.36637436619E+02 -0.49602048844E+02  0.86728901492E+02  0.41800000000E+01 0.  1.
         -5    1    4    4    0  501 -0.22052147503E+02 -0.78794057986E+02 -0.10053832711E+03  0.12969282325E+03  0.41800000000E+01 0.  1.
</event>
<event>
11    1  0.8039394E-009  0.1596728E+03  0.7561462E-02  0.1087385E+00
         22   -1    0    0    0    0  0.00000000000E+00  0.00000000000E+00  0.10202373244E+04  0.10202373244E+04  0.00000000000E+00 0. -1.
         22   -1    0    0    0    0 -0.00000000000E+00 -0.00000000000E+00 -0.28059842337E+03  0.28059842337E+03  0.00000000000E+00 0.  1.
        -24    2    1    2    0    0  0.89715858842E+01  0.66556941643E+02 -0.24523050670E+03  0.26642719077E+03  0.79593534459E+02 0.  0.
         25    2    1    2    0    0  0.45618235026E+02  0.35143167236E+02  0.24052275204E+03  0.27715618191E+03  0.12509312272E+03 0.  0.
         24    2    1    2    0    0 -0.54589820910E+02 -0.10170010888E+03  0.74434665571E+03  0.75725237509E+03  0.77821944426E+02 0.  0.
        -13    1    5    5    0    0 -0.50328595648E+02 -0.15235462648E+02  0.27097624983E+03  0.27603118453E+03  0.00000000000E+00 0.  1.
         14    1    5    5    0    0 -0.42612252621E+01 -0.86464646231E+02  0.47337040588E+03  0.48122119057E+03  0.00000000000E+00 0. -1.
         13    1    3    3    0    0 -0.74488664669E+01  0.25461139548E+02 -0.12142627953E+02  0.29175308950E+02  0.00000000000E+00 0. -1.
        -14    1    3    3    0    0  0.16420452351E+02  0.41095802095E+02 -0.23308787875E+03  0.23725188182E+03  0.00000000000E+00 0.  1.
          5    1    4    4  501    0  0.44015153701E+02  0.49101175714E+02  0.25073267435E+03  0.25929250972E+03  0.41800000000E+01 0.  1.
         -5    1    4    4    0  501  0.16030813250E+01 -0.13958008478E+02 -0.10209922312E+02  0.17863672188E+02  0.41800000000E+01 0.  1.
</event>
<event>
11    1  0.8039394E-009  0.1611087E+03  0.7561462E-02  0.1086039E+00
         22   -1    0    0    0    0  0.00000000000E+00  0.00000000000E+00  0.38009613448E+03  0.38009613448E+03  0.00000000000E+00 0.  1.
         22   -1    0    0    0    0 -0.00000000000E+00 -0.00000000000E+00 -0.19551161207E+03  0.19551161207E+03  0.00000000000E+00 0. -1.
        -24    2    1    2    0    0 -0.44875110320E+02 -0.12922860402E+02 -0.57496638737E+02  0.10929853768E+03  0.80371207691E+02 0.  0.
         25    2    1    2    0    0  0.13738587820E+03  0.35266719077E+02 -0.44906774110E+01  0.18917267323E+03  0.12509002002E+03 0.  0.
         24    2    1    2    0    0 -0.92510767883E+02 -0.22343858675E+02  0.24657183856E+03  0.27713653564E+03  0.83363646867E+02 0.  0.
        -13    1    5    5    0    0 -0.10369156177E+03 -0.32599501132E+01  0.21319462967E+03  0.23709600877E+03  0.00000000000E+00 0.  1.
         14    1    5    5    0    0  0.11180793889E+02 -0.19083908562E+02  0.33377208898E+02  0.40040526867E+02  0.00000000000E+00 0. -1.
         11    1    3    3    0    0 -0.25570212690E+02 -0.42277144537E+02 -0.55211152224E+02  0.74090917508E+02  0.00000000000E+00 0. -1.
        -12    1    3    3    0    0 -0.19304897630E+02  0.29354284135E+02 -0.22854865128E+01  0.35207620172E+02  0.00000000000E+00 0.  1.
          5    1    4    4  501    0  0.17661250412E+02 -0.20392007543E+02  0.41178068481E+02  0.49405055021E+02  0.41800000000E+01 0. -1.
         -5    1    4    4    0  501  0.11972462779E+03  0.55658726620E+02 -0.45668745892E+02  0.13976761821E+03  0.41800000000E+01 0. -1.
</event>
<event>
11    1  0.8039394E-009  0.1467148E+03  0.7561462E-02  0.1100284E+00
         22   -1    0    0    0    0  0.00000000000E+00  0.00000000000E+00  0.13485131208E+03  0.13485131208E+03  0.00000000000E+00 0. -1.
         22   -1    0    0    0    0 -0.00000000000E+00 -0.00000000000E+00 -0.65525421213E+03  0.65525421213E+03  0.00000000000E+00 0.  1.
         24    2    1    2    0    0  0.36572990826E+01  0.20511066849E+02 -0.32134791312E+03  0.33195427857E+03  0.80592072148E+02 0.  0.
         25    2    1    2    0    0  0.73218208968E+02 -0.14575183825E+02 -0.28227663809E+03  0.31764845927E+03  0.12508837339E+03 0.  0.
        -24    2    1    2    0    0 -0.76875508050E+02 -0.59358830241E+01  0.83221651151E+02  0.14050278637E+03  0.82886134627E+02 0.  0.
        -13    1    3    3    0    0 -0.34149105643E+02 -0.59520903027E+01 -0.99725805503E+02  0.10557852565E+03  0.00000000000E+00 0.  1.
         14    1    3    3    0    0  0.37806404725E+02  0.26463157152E+02 -0.22162210761E+03  0.22637575292E+03  0.00000000000E+00 0. -1.
         11    1    5    5    0    0 -0.35979341589E+02  0.74518029851E+01  0.89748867552E+02  0.96978872007E+02  0.00000000000E+00 0. -1.
        -12    1    5    5    0    0 -0.40896166461E+02 -0.13387686009E+02 -0.65272164011E+01  0.43523914367E+02  0.00000000000E+00 0.  1.
          5    1    4    4  501    0 -0.12886258525E+02 -0.36000205138E+02 -0.17096134739E+03  0.17523505679E+03  0.41800000000E+01 0. -1.
         -5    1    4    4    0  501  0.86104467493E+02  0.21425021313E+02 -0.11131529070E+03  0.14241340248E+03  0.41800000000E+01 0. -1.
</event>
<event>
11    1  0.8039394E-009  0.1328485E+03  0.7561462E-02  0.1115818E+00
         22   -1    0    0    0    0  0.00000000000E+00  0.00000000000E+00  0.19084236664E+04  0.19084236664E+04  0.00000000000E+00 0. -1.
         22   -1    0    0    0    0 -0.00000000000E+00 -0.00000000000E+00 -0.53999145160E+02  0.53999145160E+02  0.00000000000E+00 0.  1.
        -24    2    1    2    0    0 -0.19472200855E+02  0.34404075700E+02 -0.18925339217E+01  0.85110837534E+02  0.75348961175E+02 0.  0.
         25    2    1    2    0    0  0.60493154957E+02 -0.21157055436E+02  0.54686581238E+03  0.56463946610E+03  0.12509383329E+03 0.  0.
         24    2    1    2    0    0 -0.41020954102E+02 -0.13247020263E+02  0.13094512427E+04  0.13126725079E+04  0.81168674004E+02 0.  0.
        -11    1    5    5    0    0 -0.23871252730E+01 -0.15067635399E+01  0.23380650994E+00  0.28325551925E+01  0.00000000000E+00 0.  1.
         12    1    5    5    0    0 -0.38633828829E+02 -0.11740256724E+02  0.13092174362E+04  0.13098399527E+04  0.00000000000E+00 0. -1.
         13    1    3    3    0    0  0.51457415645E+00  0.33448264801E+02  0.31650972751E+02  0.46052527410E+02  0.00000000000E+00 0. -1.
        -14    1    3    3    0    0 -0.19986775012E+02  0.95581089834E+00 -0.33543506673E+02  0.39058310124E+02  0.00000000000E+00 0.  1.
          5    1    4    4  501    0 -0.14798600025E+02  0.37997212593E+02  0.11013023933E+03  0.11751139835E+03  0.41800000000E+01 0.  1.
         -5    1    4    4    0  501  0.75291754982E+02 -0.59154268029E+02  0.43673557306E+03  0.44712806775E+03  0.41800000000E+01 0.  1.
</event>
<event>
11    1  0.8039394E-009  0.1391758E+03  0.7561462E-02  0.1108482E+00
         22   -1    0    0    0    0  0.00000000000E+00  0.00000000000E+00  0.11208140588E+04  0.11208140588E+04  0.00000000000E+00 0. -1.
         22   -1    0    0    0    0 -0.00000000000E+00 -0.00000000000E+00 -0.29385149998E+04  0.29385149998E+04  0.00000000000E+00 0. -1.
        -24    2    1    2    0    0  0.78186823552E+02 -0.58309623485E+02 -0.28797807461E+04  0.28831417391E+04  0.99277141976E+02 0.  0.
         25    2    1    2    0    0 -0.28944542864E+02 -0.42748090652E+02  0.34947728174E+02  0.13976479729E+03  0.12509064330E+03 0.  0.
         24    2    1    2    0    0 -0.49242280688E+02  0.10105771414E+03  0.10271320769E+04  0.10364225222E+04  0.80832402620E+02 0.  0.
        -13    1    5    5    0    0 -0.33158350754E+02 -0.22998054581E+01  0.20804244958E+03  0.21068086329E+03  0.00000000000E+00 0.  1.
         14    1    5    5    0    0 -0.16083929934E+02  0.10335751960E+03  0.81908962728E+03  0.82574165886E+03  0.00000000000E+00 0. -1.
         13    1    3    3    0    0  0.10021746065E+03 -0.35320194768E+02 -0.20529516265E+04  0.20556997437E+04  0.00000000000E+00 0. -1.
        -14    1    3    3    0    0 -0.22030637096E+02 -0.22989428717E+02 -0.82682911954E+03  0.82744199538E+03  0.00000000000E+00 0.  1.
          5    1    4    4  501    0 -0.13927525356E+01 -0.56893772513E+02 -0.32327620834E+02  0.65584972206E+02  0.41800000000E+01 0.  1.
         -5    1    4    4    0  501 -0.27551790329E+02  0.14145681861E+02  0.67275349008E+02  0.74179825086E+02  0.41800000000E+01 0.  1.
</event>
<event>
11    1  0.8039394E-009  0.2182980E+03  0.7561462E-02  0.1042289E+00
         22   -1    0    0    0    0  0.00000000000E+00  0.00000000000E+00  0.10176459750E+04  0.10176459750E+04  0.00000000000E+00 0. -1.
         22   -1    0    0    0    0 -0.00000000000E+00 -0.00000000000E+00 -0.12249924050E+04  0.12249924050E+04  0.00000000000E+00 0.  1.
         24    2    1    2    0    0 -0.15505593300E+02  0.16522771550E+02 -0.10398379005E+04  0.10431935944E+04  0.80477268507E+02 0.  0.
         25    2    1    2    0    0  0.82886126847E+02  0.14977456526E+03 -0.10840398758E+03  0.23811982246E+03  0.12508834839E+03 0.  0.
        -24    2    1    2    0    0 -0.67380533547E+02 -0.16629733681E+03  0.94089545802E+03  0.96132496307E+03  0.81648522090E+02 0.  0.
        -13    1    3    3    0    0 -0.25024823457E+02  0.57134537514E+01 -0.10071028606E+04  0.10074299267E+04  0.00000000000E+00 0.  1.
         14    1    3    3    0    0  0.95192301571E+01  0.10809317798E+02 -0.32735039934E+02  0.35763667787E+02  0.00000000000E+00 0. -1.
         13    1    5    5    0    0 -0.59856436587E+02 -0.14724076387E+03  0.91290075316E+03  0.92663391945E+03  0.00000000000E+00 0. -1.
        -14    1    5    5    0    0 -0.75240969595E+01 -0.19056572941E+02  0.27994704860E+02  0.34691043620E+02  0.00000000000E+00 0.  1.
          5    1    4    4  501    0  0.51302690983E+02  0.15542796786E+03 -0.12080031679E+03  0.20346991972E+03  0.41800000000E+01 0. -1.
         -5    1    4    4    0  501  0.31583435864E+02 -0.56534026028E+01  0.12396329208E+02  0.34649902739E+02  0.41800000000E+01 0. -1.
</event>
<event>
11    1  0.8039394E-009  0.1464381E+03  0.7561462E-02  0.1100575E+00
         22   -1    0    0    0    0  0.00000000000E+00  0.00000000000E+00  0.85088597785E+03  0.85088597785E+03  0.00000000000E+00 0.  1.
         22   -1    0    0    0    0 -0.00000000000E+00 -0.00000000000E+00 -0.16042873668E+03  0.16042873668E+03  0.00000000000E+00 0. -1.
         24    2    1    2    0    0  0.60861695645E+02  0.40056659924E+02 -0.87288478622E+02  0.13963642484E+03  0.81057822822E+02 0.  0.
         25    2    1    2    0    0 -0.95793850528E+02 -0.23967817609E+02  0.10113025692E+03  0.18874805860E+03  0.12509029810E+03 0.  0.
        -24    2    1    2    0    0  0.34932154882E+02 -0.16088842315E+02  0.67661546287E+03  0.68293023109E+03  0.84297744007E+02 0.  0.
        -11    1    3    3    0    0 -0.12463163028E+02  0.21177946246E+02 -0.65938947191E+00  0.24581916815E+02  0.00000000000E+00 0.  1.
         12    1    3    3    0    0  0.73324858674E+02  0.18878713678E+02 -0.86629089150E+02  0.11505450802E+03  0.00000000000E+00 0. -1.
         13    1    5    5    0    0  0.49830726994E+02 -0.19280650444E+02  0.23278187096E+03  0.23883518225E+03  0.00000000000E+00 0. -1.
        -14    1    5    5    0    0 -0.14898572111E+02  0.31918081284E+01  0.44383359191E+03  0.44409504884E+03  0.00000000000E+00 0.  1.
          5    1    4    4  501    0 -0.11466066597E+03 -0.78250766911E+01  0.38550679096E+02  0.12129273435E+03  0.41800000000E+01 0.  1.
         -5    1    4    4    0  501  0.18866815443E+02 -0.16142740917E+02  0.62579577826E+02  0.67455324254E+02  0.41800000000E+01 0.  1.
</event>
<event>
11    1  0.8039394E-009  0.1363752E+03  0.7561462E-02  0.1111675E+00
         22   -1    0    0    0    0  0.00000000000E+00  0.00000000000E+00  0.24012189565E+03  0.24012189565E+03  0.00000000000E+00 0. -1.
         22   -1    0    0    0    0 -0.00000000000E+00 -0.00000000000E+00 -0.11888702565E+04  0.11888702565E+04  0.00000000000E+00 0.  1.
         24    2    1    2    0    0  0.54460888319E+02 -0.14583792506E+02 -0.93673000468E+03  0.94179730650E+03  0.79626562793E+02 0.  0.
         25    2    1    2    0    0 -0.43996197233E+02 -0.16069064317E+02 -0.22349999661E+03  0.26037675398E+03  0.12509966159E+03 0.  0.
        -24    2    1    2    0    0 -0.10464691085E+02  0.30652856823E+02  0.21148164043E+03  0.22681809168E+03  0.75318358230E+02 0.  0.
        -13    1    3    3    0    0  0.21275743248E+02  0.21432840014E+02 -0.66526224405E+03  0.66594735321E+03  0.00000000000E+00 0.  1.
         14    1    3    3    0    0  0.33185145071E+02 -0.36016632520E+02 -0.27146776062E+03  0.27584995329E+03  0.00000000000E+00 0. -1.
         11    1    5    5    0    0  0.67687096356E+00  0.10440934606E+02  0.20133515812E+03  0.20160683809E+03  0.00000000000E+00 0. -1.
        -12    1    5    5    0    0 -0.11141562049E+02  0.20211922217E+02  0.10146482309E+02  0.25211253595E+02  0.00000000000E+00 0.  1.
          5    1    4    4  501    0 -0.20037716855E+02 -0.65382437376E+02 -0.17158079112E+03  0.18475338561E+03  0.41800000000E+01 0. -1.
         -5    1    4    4    0  501 -0.23958480378E+02  0.49313373059E+02 -0.51919205493E+02  0.75623368370E+02  0.41800000000E+01 0. -1.
</event>
<event>
11    1  0.8974897E-009  0.2381846E+03  0.7561462E-02  0.1030389E+00
         22   -1    0    0    0    0  0.00000000000E+00  0.00000000000E+00  0.41790944974E+03  0.41790944974E+03  0.00000000000E+00 0.  1.
         22   -1    0    0    0    0 -0.00000000000E+00 -0.00000000000E+00 -0.91790021926E+03  0.91790021926E+03  0.00000000000E+00 0.  1.
         24    2    1    2    0    0  0.28842269751E+02 -0.53414570273E+02 -0.55010708850E+03  0.55921413101E+03  0.80110190787E+02 0.  0.
         25    2    1    2    0    0  0.15427635696E+03 -0.43454229694E+02 -0.29967629563E+03  0.36213731601E+03  0.12509232226E+03 0.  0.
        -24    2    1    2    0    0 -0.18311862671E+03  0.96868799967E+02  0.34979261461E+03  0.41445822199E+03  0.80652022200E+02 0.  0.
        -13    1    3    3    0    0  0.19119606525E+02  0.55013204990E+01 -0.34548437315E+03  0.34605675253E+03  0.00000000000E+00 0.  1.
         14    1    3    3    0    0  0.97226632268E+01 -0.58915890772E+02 -0.20462271535E+03  0.21315737849E+03  0.00000000000E+00 0. -1.
         13    1    5    5    0    0 -0.12976830069E+02 -0.14082848045E+02  0.32271961265E+02  0.37526047108E+02  0.00000000000E+00 0. -1.
        -14    1    5    5    0    0 -0.17014179664E+03  0.11095164801E+03  0.31752065334E+03  0.37693217488E+03  0.00000000000E+00 0.  1.
          5    1    4    4  501    0  0.61421268301E+02 -0.53580616416E+02 -0.50447188587E+02  0.95947099443E+02  0.41800000000E+01 0.  1.
         -5    1    4    4    0  501  0.92855088655E+02  0.10126386722E+02 -0.24922910704E+03  0.26619021656E+03  0.41800000000E+01 0.  1.
</event>
<event>
11    1  0.8039394E-009  0.1800391E+03  0.7561462E-02  0.1069611E+00
         22   -1    0    0    0    0  0.00000000000E+00  0.00000000000E+00  0.20031873416E+04  0.20031873416E+04  0.00000000000E+00 0.  1.
         22   -1    0    0    0    0 -0.00000000000E+00 -0.00000000000E+00 -0.22806598859E+04  0.22806598859E+04  0.00000000000E+00 0.  1.
        -24    2    1    2    0    0 -0.25477381892E+02 -0.10555459027E+03 -0.20284144977E+04  0.20329161493E+04  0.80571875964E+02 0.  0.
         25    2    1    2    0    0  0.13787334234E+03  0.16808238450E+03 -0.18338962553E+03  0.31070777404E+03  0.12508724792E+03 0.  0.
         24    2    1    2    0    0 -0.11239596045E+03 -0.62527794225E+02  0.19343315789E+04  0.19402233041E+04  0.79279478577E+02 0.  0.
        -13    1    5    5    0    0 -0.10150077191E+03 -0.30431334312E+02  0.10716568301E+04  0.10768829251E+04  0.00000000000E+00 0.  1.
         14    1    5    5    0    0 -0.10895188539E+02 -0.32096459913E+02  0.86267474884E+03  0.86334037909E+03  0.00000000000E+00 0. -1.
         11    1    3    3    0    0 -0.44422151635E+02 -0.38236889592E+02 -0.61931242035E+03  0.62207978691E+03  0.00000000000E+00 0. -1.
        -12    1    3    3    0    0  0.18944769743E+02 -0.67317700682E+02 -0.14091020773E+04  0.14108363624E+04  0.00000000000E+00 0.  1.
          5    1    4    4  501    0  0.14640677210E+03  0.10205375761E+03 -0.16085641421E+03  0.24029600652E+03  0.41800000000E+01 0. -1.
         -5    1    4    4    0  501 -0.85334297621E+01  0.66028626893E+02 -0.22533211325E+02  0.70411767521E+02  0.41800000000E+01 0. -1.
</event>
<event>
11    1  0.8039394E-009  0.1305475E+03  0.7561462E-02  0.1118598E+00
         22   -1    0    0    0    0  0.00000000000E+00  0.00000000000E+00  0.16171343259E+02  0.16171343259E+02  0.00000000000E+00 0. -1.
         22   -1    0    0    0    0 -0.00000000000E+00 -0.00000000000E+00 -0.33194578837E+04  0.33194578837E+04  0.00000000000E+00 0.  1.
        -24    2    1    2    0    0  0.93013795090E+01  0.38136001884E+02 -0.19592030943E+04  0.19612611563E+04  0.80794110335E+02 0.  0.
         25    2    1    2    0    0 -0.22064140945E+02 -0.25692948462E+02 -0.12119951379E+04  0.12189042348E+04  0.12509342693E+03 0.  0.
         24    2    1    2    0    0  0.12762761437E+02 -0.12443053422E+02 -0.13208830824E+03  0.15546383582E+03  0.80024780009E+02 0.  0.
        -13    1    5    5    0    0  0.37219428346E+02  0.12986263463E+02 -0.10107246428E+03  0.10848765792E+03  0.00000000000E+00 0.  1.
         14    1    5    5    0    0 -0.24456666909E+02 -0.25429316885E+02 -0.31015843967E+02  0.46976177905E+02  0.00000000000E+00 0. -1.
         11    1    3    3    0    0  0.26001234520E+02  0.26335121948E+02 -0.35426057301E+03  0.35618837212E+03  0.00000000000E+00 0. -1.
        -12    1    3    3    0    0 -0.16699855011E+02  0.11800879936E+02 -0.16049425213E+04  0.16050727842E+04  0.00000000000E+00 0.  1.
          5    1    4    4  501    0 -0.43604694067E+02  0.14373201647E+02 -0.17712910200E+03  0.18303046043E+03  0.41800000000E+01 0. -1.
         -5    1    4    4    0  501  0.21540553122E+02 -0.40066150110E+02 -0.10348660359E+04  0.10358737744E+04  0.41800000000E+01 0. -1.
</event>
<event>
11    1  0.8039394E-009  0.1552368E+03  0.7561462E-02  0.1091645E+00
         22   -1    0    0    0    0  0.00000000000E+00  0.00000000000E+00  0.52660025860E+03  0.52660025860E+03  0.00000000000E+00 0. -1.
         22   -1    0    0    0    0 -0.00000000000E+00 -0.00000000000E+00 -0.12234049140E+04  0.12234049140E+04  0.00000000000E+00 0. -1.
        -24    2    1    2    0    0  0.66754485064E+02  0.70931502963E+02 -0.90271896927E+03  0.91161429072E+03  0.81557575826E+02 0.  0.
         25    2    1    2    0    0 -0.73145096391E+02 -0.26135207480E+02 -0.29472984628E+03  0.32946406385E+03  0.12509049879E+03 0.  0.
         24    2    1    2    0    0  0.63906113271E+01 -0.44796295483E+02  0.50064416011E+03  0.50892681806E+03  0.79463092551E+02 0.  0.
        -11    1    5    5    0    0 -0.74457757661E+01  0.56381704349E+01  0.51208656835E+01  0.10651375872E+02  0.00000000000E+00 0.  1.
         12    1    5    5    0    0  0.13836387093E+02 -0.50434465918E+02  0.49552329443E+03  0.49827544218E+03  0.00000000000E+00 0. -1.
         11    1    3    3    0    0  0.67907929646E+02  0.81610309014E+02 -0.88110810201E+03  0.88748138959E+03  0.00000000000E+00 0. -1.
        -12    1    3    3    0    0 -0.11534445824E+01 -0.10678806051E+02 -0.21610867268E+02  0.24132901134E+02  0.00000000000E+00 0.  1.
          5    1    4    4  501    0 -0.27619357135E+02 -0.32013031504E+02 -0.27674295972E+03  0.27998535896E+03  0.41800000000E+01 0.  1.
         -5    1    4    4    0  501 -0.45525739256E+02  0.58778240239E+01 -0.17986886553E+02  0.49478704893E+02  0.41800000000E+01 0.  1.
</event>
<event>
11    1  0.8039394E-009  0.1415997E+03  0.7561462E-02  0.1105785E+00
         22   -1    0    0    0    0  0.00000000000E+00  0.00000000000E+00  0.10286341811E+04  0.10286341811E+04  0.00000000000E+00 0.  1.
         22   -1    0    0    0    0 -0.00000000000E+00 -0.00000000000E+00 -0.41882431470E+03  0.41882431470E+03  0.00000000000E+00 0. -1.
         24    2    1    2    0    0 -0.10967717060E+02  0.73655344109E+01 -0.36792819447E+03  0.37773229721E+03  0.84474790058E+02 0.  0.
         25    2    1    2    0    0 -0.44342700514E+02 -0.44614738602E+02  0.71380348056E+02  0.15716131869E+03  0.12509107088E+03 0.  0.
        -24    2    1    2    0    0  0.55310417574E+02  0.37249204191E+02  0.90635771285E+03  0.91256487994E+03  0.82726120139E+02 0.  0.
        -11    1    3    3    0    0 -0.13298049011E+02  0.10839868215E+02 -0.10158825574E+02  0.19938470039E+02  0.00000000000E+00 0.  1.
         12    1    3    3    0    0  0.23303319516E+01 -0.34743338045E+01 -0.35776936889E+03  0.35779382717E+03  0.00000000000E+00 0. -1.
         11    1    5    5    0    0  0.40987519828E+02 -0.12122810659E+00  0.16106679325E+03  0.16620019063E+03  0.00000000000E+00 0. -1.
        -12    1    5    5    0    0  0.14322897746E+02  0.37370432298E+02  0.74529091961E+03  0.74636468931E+03  0.00000000000E+00 0.  1.
          5    1    4    4  501    0 -0.27204938198E+02 -0.47535541476E+02 -0.24127229323E+02  0.59994432747E+02  0.41800000000E+01 0.  1.
         -5    1    4    4    0  501 -0.17137762316E+02  0.29208028738E+01  0.95507577380E+02  0.97166885941E+02  0.41800000000E+01 0.  1.
</event>
<event>
11    1  0.8039394E-009  0.1384322E+03  0.7561462E-02  0.1109322E+00
         22   -1    0    0    0    0  0.00000000000E+00  0.00000000000E+00  0.57864424261E+03  0.57864424261E+03  0.00000000000E+00 0.  1.
         22   -1    0    0    0    0 -0.00000000000E+00 -0.00000000000E+00 -0.82724179176E+03  0.82724179176E+03  0.00000000000E+00 0.  1.
        -24    2    1    2    0    0 -0.59162591766E+02 -0.61794352262E+01 -0.79548762060E+03  0.80167356448E+03  0.79633860736E+02 0.  0.
         25    2    1    2    0    0  0.48320122465E+02  0.24108960882E+01  0.15833597025E+03  0.20750440349E+03  0.12508857398E+03 0.  0.
         24    2    1    2    0    0  0.10842469301E+02  0.37685391380E+01  0.38855410120E+03  0.39670806640E+03  0.79191157047E+02 0.  0.
        -13    1    5    5    0    0  0.42291923334E+02  0.49722548188E+01  0.29365081341E+03  0.29672231179E+03  0.00000000000E+00 0.  1.
         14    1    5    5    0    0 -0.31449454032E+02 -0.12037156807E+01  0.94903287791E+02  0.99985754605E+02  0.00000000000E+00 0. -1.
         13    1    3    3    0    0 -0.42956317713E+02 -0.64889570834E+01 -0.15479019199E+03  0.16077112717E+03  0.00000000000E+00 0. -1.
        -14    1    3    3    0    0 -0.16206274053E+02  0.30952185723E+00 -0.64069742861E+03  0.64090243731E+03  0.00000000000E+00 0.  1.
          5    1    4    4  501    0  0.87938617304E+02  0.39406718269E+01  0.77433759019E+02  0.11731235546E+03  0.41800000000E+01 0. -1.
         -5    1    4    4    0  501 -0.39618494839E+02 -0.15297757387E+01  0.80902211226E+02  0.90192048033E+02  0.41800000000E+01 0. -1.
</event>
<event>
11    1  0.8039394E-009  0.3103314E+03  0.7561462E-02  0.9959111E-01
         22   -1    0    0    0    0  0.00000000000E+00  0.00000000000E+00  0.17873071880E+04  0.17873071880E+04  0.00000000000E+00 0. -1.
         22   -1    0    0    0    0 -0.00000000000E+00 -0.00000000000E+00 -0.13305968096E+03  0.13305968096E+03  0.00000000000E+00 0. -1.
        -24    2    1    2    0    0 -0.76782104141E+02 -0.43426458912E+02  0.51927681764E+02  0.13048595874E+03  0.80924362501E+02 0.  0.
         25    2    1    2    0    0 -0.21318783718E+03  0.10011557805E+03  0.15188708273E+03  0.30690264186E+03  0.12508941920E+03 0.  0.
         24    2    1    2    0    0  0.28996994132E+03 -0.56689119137E+02  0.14504327425E+04  0.14829782684E+04  0.90405645115E+02 0.  0.
        -11    1    5    5    0    0  0.17386257962E+02 -0.16986247101E+02  0.48617388684E+02  0.54354990929E+02  0.00000000000E+00 0.  1.
         12    1    5    5    0    0  0.27258368336E+03 -0.39702872035E+02  0.14018153539E+04  0.14286232774E+04  0.00000000000E+00 0. -1.
         11    1    3    3    0    0 -0.89881037703E+02 -0.49349132152E+02  0.54120812697E+02  0.11594395262E+03  0.00000000000E+00 0. -1.
        -12    1    3    3    0    0  0.13098933562E+02  0.59226732403E+01 -0.21931309334E+01  0.14542006122E+02  0.00000000000E+00 0.  1.
          5    1    4    4  501    0 -0.90028739233E+02  0.10436057112E+03  0.49085278387E+02  0.14636645670E+03  0.41800000000E+01 0.  1.
         -5    1    4    4    0  501 -0.12315909794E+03 -0.42449930675E+01  0.10280180434E+03  0.16053618517E+03  0.41800000000E+01 0.  1.
</event>
<event>
11    1  0.8039394E-009  0.1416557E+03  0.7561462E-02  0.1105723E+00
         22   -1    0    0    0    0  0.00000000000E+00  0.00000000000E+00  0.65882971988E+03  0.65882971988E+03  0.00000000000E+00 0.  1.
         22   -1    0    0    0    0 -0.00000000000E+00 -0.00000000000E+00 -0.41242437738E+03  0.41242437738E+03  0.00000000000E+00 0.  1.
        -24    2    1    2    0    0  0.63090395481E+02 -0.20357223793E+02 -0.37425532360E+03  0.38850891893E+03  0.80481788544E+02 0.  0.
         25    2    1    2    0    0 -0.75125032804E+02  0.47131894340E-01  0.17170113224E+03  0.22532628948E+03  0.12508750993E+03 0.  0.
         24    2    1    2    0    0  0.12034637323E+02  0.20310091899E+02  0.44895953385E+03  0.45741888885E+03  0.84321079858E+02 0.  0.
        -11    1    5    5    0    0 -0.36042464472E+01  0.38951398521E+02  0.40729719060E+03  0.40917136203E+03  0.00000000000E+00 0.  1.
         12    1    5    5    0    0  0.15638883770E+02 -0.18641306623E+02  0.41662343256E+02  0.48247526815E+02  0.00000000000E+00 0. -1.
         11    1    3    3    0    0  0.26921371594E+02 -0.41056604028E+02 -0.10336889666E+03  0.11443571898E+03  0.00000000000E+00 0. -1.
        -12    1    3    3    0    0  0.36169023887E+02  0.20699380235E+02 -0.27088642694E+03  0.27407319995E+03  0.00000000000E+00 0.  1.
          5    1    4    4  501    0  0.68410160978E+01  0.20834348013E+02 -0.10308566658E+02  0.24588788195E+02  0.41800000000E+01 0. -1.
         -5    1    4    4    0  501 -0.81966048902E+02 -0.20787216118E+02  0.18200969890E+03  0.20073750128E+03  0.41800000000E+01 0. -1.
</event>
<event>
11    1  0.8446240E-009  0.2430050E+03  0.7561462E-02  0.1027693E+00
         22   -1    0    0    0    0  0.00000000000E+00  0.00000000000E+00  0.11892248254E+04  0.11892248254E+04  0.00000000000E+00 0. -1.
         22   -1    0    0    0    0 -0.00000000000E+00 -0.00000000000E+00 -0.12746935251E+04  0.12746935251E+04  0.00000000000E+00 0. -1.
        -24    2    1    2    0    0 -0.71606301467E+02 -0.96779404147E+01 -0.95112579587E+03  0.95726768354E+03  0.80622660863E+02 0.  0.
         25    2    1    2    0    0  0.25015010844E+03  0.11231981606E+03 -0.23558408959E+03  0.38254306002E+03  0.12509401133E+03 0.  0.
         24    2    1    2    0    0 -0.17854380697E+03 -0.10264187565E+03  0.11012411858E+04  0.11241076069E+04  0.92046276305E+02 0.  0.
        -13    1    5    5    0    0  0.56470249387E+01  0.73008764053E+01  0.23932563171E+02  0.25650716693E+02  0.00000000000E+00 0.  1.
         14    1    5    5    0    0 -0.18419083191E+03 -0.10994275205E+03  0.10773086226E+04  0.10984568902E+04  0.00000000000E+00 0. -1.
         11    1    3    3    0    0 -0.76736935762E+02  0.13981537291E+02 -0.56167049412E+03  0.56706065342E+03  0.00000000000E+00 0. -1.
        -12    1    3    3    0    0  0.51306342954E+01 -0.23659477705E+02 -0.38945530175E+03  0.39020703012E+03  0.00000000000E+00 0.  1.
          5    1    4    4  501    0  0.13778603750E+03  0.31870902201E+02 -0.47779477418E+02  0.14933551955E+03  0.41800000000E+01 0. -1.
         -5    1    4    4    0  501  0.11236407094E+03  0.80448913859E+02 -0.18780461218E+03  0.23320754047E+03  0.41800000000E+01 0. -1.
</event>
<event>
11    1  0.8039394E-009  0.1488930E+03  0.7561462E-02  0.1098015E+00
         22   -1    0    0    0    0  0.00000000000E+00  0.00000000000E+00  0.14277915880E+04  0.14277915880E+04  0.00000000000E+00 0. -1.
         22   -1    0    0    0    0 -0.00000000000E+00 -0.00000000000E+00 -0.32199425246E+03  0.32199425246E+03  0.00000000000E+00 0.  1.
        -24    2    1    2    0    0 -0.26640034209E+02  0.42745801057E+02 -0.25813120671E+03  0.27684374531E+03  0.86451399680E+02 0.  0.
         25    2    1    2    0    0 -0.35021301771E+01  0.34597621240E+02  0.28976172543E+02  0.13302741256E+03  0.12508962229E+03 0.  0.
         24    2    1    2    0    0  0.30142164386E+02 -0.77343422297E+02  0.13349523697E+04  0.13399146826E+04  0.79893505373E+02 0.  0.
        -11    1    5    5    0    0  0.96666857871E+01  0.15635217671E+02  0.14517418810E+03  0.14633335142E+03  0.00000000000E+00 0.  1.
         12    1    5    5    0    0  0.20475478599E+02 -0.92978639969E+02  0.11897781816E+04  0.11935813312E+04  0.00000000000E+00 0. -1.
         11    1    3    3    0    0 -0.36984470773E+02 -0.15948496655E+02 -0.11228676135E+03  0.11929175327E+03  0.00000000000E+00 0. -1.
        -12    1    3    3    0    0  0.10344436564E+02  0.58694297713E+02 -0.14584444536E+03  0.15755199204E+03  0.00000000000E+00 0.  1.
          5    1    4    4  501    0  0.57852557645E+02  0.30038172792E+02  0.10380498326E+01  0.65328096545E+02  0.41800000000E+01 0.  1.
         -5    1    4    4    0  501 -0.61354687822E+02  0.45594484479E+01  0.27938122710E+02  0.67699316012E+02  0.41800000000E+01 0.  1.
</event>
<event>
11    1  0.8039394E-009  0.1275296E+03  0.7561462E-02  0.1122342E+00
         22   -1    0    0    0    0  0.00000000000E+00  0.00000000000E+00  0.96084908225E+03  0.96084908225E+03  0.00000000000E+00 0. -1.
         22   -1    0    0    0    0 -0.00000000000E+00 -0.00000000000E+00 -0.21665328197E+03  0.21665328197E+03  0.00000000000E+00 0. -1.
        -24    2    1    2    0    0 -0.22174909961E+01 -0.23518006156E+02 -0.19438221028E+03  0.21148229183E+03  0.79889312201E+02 0.  0.
         25    2    1    2    0    0  0.18569995032E+02 -0.58550652561E+00  0.37734795409E+03  0.39797150831E+03  0.12507859702E+03 0.  0.
         24    2    1    2    0    0 -0.16352504036E+02  0.24103512681E+02  0.56123005647E+03  0.56804856408E+03  0.82774459545E+02 0.  0.
        -11    1    5    5    0    0 -0.35773850901E+01  0.34929904189E+02  0.91283403085E+02  0.97803658263E+02  0.00000000000E+00 0.  1.
         12    1    5    5    0    0 -0.12775118946E+02 -0.10826391507E+02  0.46994665339E+03  0.47024490582E+03  0.00000000000E+00 0. -1.
         11    1    3    3    0    0  0.12424154196E+02 -0.28683310036E+02 -0.19341665819E+03  0.19592625027E+03  0.00000000000E+00 0. -1.
        -12    1    3    3    0    0 -0.14641645192E+02  0.51653038806E+01 -0.96555209613E+00  0.15556041558E+02  0.00000000000E+00 0.  1.
          5    1    4    4  501    0  0.71007127801E+02  0.32452889966E+01  0.17669197578E+03  0.19049952967E+03  0.41800000000E+01 0.  1.
         -5    1    4    4    0  501 -0.52437132769E+02 -0.38307955222E+01  0.20065597831E+03  0.20747197864E+03  0.41800000000E+01 0.  1.
</event>
<event>
11    1  0.8039394E-009  0.1552262E+03  0.7561462E-02  0.1091655E+00
         22   -1    0    0    0    0  0.00000000000E+00  0.00000000000E+00  0.28478220980E+04  0.28478220980E+04  0.00000000000E+00 0. -1.
         22   -1    0    0    0    0 -0.00000000000E+00 -0.00000000000E+00 -0.16174741334E+03  0.16174741334E+03  0.00000000000E+00 0.  1.
        -24    2    1    2    0    0 -0.20146013394E+02 -0.88927990647E+02 -0.12925578144E+03  0.17512177480E+03  0.75143393567E+02 0.  0.
         25    2    1    2    0    0  0.20051139036E+02  0.11736958220E+03  0.84581995412E+03  0.86327140297E+03  0.12509377841E+03 0.  0.
         24    2    1    2    0    0  0.94874358095E-01 -0.28441591553E+02  0.19695105120E+04  0.19711763336E+04  0.75865328269E+02 0.  0.
        -11    1    5    5    0    0 -0.85035020165E+01 -0.81918240609E+01  0.44491299512E+02  0.46031416014E+02  0.00000000000E+00 0.  1.
         12    1    5    5    0    0  0.85983763746E+01 -0.20249767493E+02  0.19250192125E+04  0.19251449176E+04  0.00000000000E+00 0. -1.
         13    1    3    3    0    0  0.32821988503E+00 -0.32670373373E+02  0.29447313593E-02  0.32672022179E+02  0.00000000000E+00 0. -1.
        -14    1    3    3    0    0 -0.20474233279E+02 -0.56257617274E+02 -0.12925872617E+03  0.14244975262E+03  0.00000000000E+00 0.  1.
          5    1    4    4  501    0  0.25340990165E+02 -0.21603893424E+02  0.16673990856E+03  0.17008398955E+03  0.41800000000E+01 0.  1.
         -5    1    4    4    0  501 -0.52898511282E+01  0.13897347562E+03  0.67908004556E+03  0.69318741342E+03  0.41800000000E+01 0.  1.
</event>
<event>
11    1  0.8039394E-009  0.1523782E+03  0.7561462E-02  0.1094473E+00
         22   -1    0    0    0    0  0.00000000000E+00  0.00000000000E+00  0.17354003225E+04  0.17354003225E+04  0.00000000000E+00 0. -1.
         22   -1    0    0    0    0 -0.00000000000E+00 -0.00000000000E+00 -0.32141275474E+03  0.32141275474E+03  0.00000000000E+00 0. -1.
         24    2    1    2    0    0 -0.86039665882E+02 -0.16634396546E+02 -0.28187913388E+03  0.30599875187E+03  0.80621726462E+02 0.  0.
         25    2    1    2    0    0  0.56079183742E+02  0.89405584088E+02  0.23614233573E+03  0.28731419480E+03  0.12509200812E+03 0.  0.
        -24    2    1    2    0    0  0.29960482141E+02 -0.72771187542E+02  0.14597243659E+04  0.14635001306E+04  0.69599795534E+02 0.  0.
        -11    1    3    3    0    0 -0.56410866295E+02 -0.52949298794E+01 -0.62586716071E+02  0.84423451405E+02  0.00000000000E+00 0.  1.
         12    1    3    3    0    0 -0.29628799587E+02 -0.11339466667E+02 -0.21929241781E+03  0.22157530047E+03  0.00000000000E+00 0. -1.
         13    1    5    5    0    0 -0.13142994114E+02 -0.56968222549E+02  0.89936595464E+03  0.90126424374E+03  0.00000000000E+00 0. -1.
        -14    1    5    5    0    0  0.43103476254E+02 -0.15802964992E+02  0.56035841125E+03  0.56223588682E+03  0.00000000000E+00 0.  1.
          5    1    4    4  501    0  0.43910913283E+02  0.18090644795E+01  0.17306318497E+03  0.17860509346E+03  0.41800000000E+01 0.  1.
         -5    1    4    4    0  501  0.12168270459E+02  0.87596519608E+02  0.63079150766E+02  0.10870910134E+03  0.41800000000E+01 0.  1.
</event>
<event>
11    1  0.8039394E-009  0.2154024E+03  0.7561462E-02  0.1044136E+00
         22   -1    0    0    0    0  0.00000000000E+00  0.00000000000E+00  0.98932164609E+02  0.98932164609E+02  0.00000000000E+00 0.  1.
         22   -1    0    0    0    0 -0.00000000000E+00 -0.00000000000E+00 -0.17763465340E+04  0.17763465340E+04  0.00000000000E+00 0.  1.
         24    2    1    2    0    0 -0.12896390375E+03 -0.21823165785E+02 -0.12135800030E+04  0.12232507505E+04  0.80361904972E+02 0.  0.
         25    2    1    2    0    0  0.22333563188E+03 -0.99235572760E+02 -0.34375984174E+03  0.43993801716E+03  0.12509247292E+03 0.  0.
        -24    2    1    2    0    0 -0.94371728131E+02  0.12105873854E+03 -0.12007452464E+03  0.21208993099E+03  0.83683965665E+02 0.  0.
        -11    1    3    3    0    0 -0.12130143287E+03  0.90502584111E+01 -0.94744999245E+03  0.95522637787E+03  0.00000000000E+00 0.  1.
         12    1    3    3    0    0 -0.76624708813E+01 -0.30873424197E+02 -0.26613001057E+03  0.26802437260E+03  0.00000000000E+00 0. -1.
         13    1    5    5    0    0 -0.14254059438E+02  0.17252338143E+02 -0.66981162987E+02  0.70620801305E+02  0.00000000000E+00 0. -1.
        -14    1    5    5    0    0 -0.80117668693E+02  0.10380640040E+03 -0.53093361658E+02  0.14146912968E+03  0.00000000000E+00 0.  1.
          5    1    4    4  501    0  0.16157881905E+03 -0.30421737527E+02 -0.28864431843E+03  0.33221410542E+03  0.41800000000E+01 0.  1.
         -5    1    4    4    0  501  0.61756812836E+02 -0.68813835232E+02 -0.55115523316E+02  0.10772391174E+03  0.41800000000E+01 0.  1.
</event>
<event>
11    1  0.8039394E-009  0.1626140E+03  0.7561462E-02  0.1084644E+00
         22   -1    0    0    0    0  0.00000000000E+00  0.00000000000E+00  0.18102428739E+04  0.18102428739E+04  0.00000000000E+00 0. -1.
         22   -1    0    0    0    0 -0.00000000000E+00 -0.00000000000E+00 -0.54250371554E+03  0.54250371554E+03  0.00000000000E+00 0. -1.
         24    2    1    2    0    0  0.93290073038E+02 -0.33728976313E+02 -0.33025545437E+03  0.35429177532E+03  0.81322293047E+02 0.  0.
         25    2    1    2    0    0 -0.90175108833E+02  0.92799773907E+02 -0.15755008330E+03  0.23919206332E+03  0.12508983219E+03 0.  0.
        -24    2    1    2    0    0 -0.31149642051E+01 -0.59070797594E+02  0.17555446960E+04  0.17592627508E+04  0.97822208251E+02 0.  0.
        -11    1    3    3    0    0  0.64564596731E+02  0.97645652523E+01 -0.10972463321E+03  0.12768488172E+03  0.00000000000E+00 0.  1.
         12    1    3    3    0    0  0.28725476307E+02 -0.43493541565E+02 -0.22053082116E+03  0.22660689360E+03  0.00000000000E+00 0. -1.
         13    1    5    5    0    0 -0.42266789590E+02 -0.35478479560E+02  0.13541061918E+04  0.13552301586E+04  0.00000000000E+00 0. -1.
        -14    1    5    5    0    0  0.39151825385E+02 -0.23592318034E+02  0.40143850424E+03  0.40403259224E+03  0.00000000000E+00 0.  1.
          5    1    4    4  501    0 -0.83280903590E+02  0.38927695566E+02 -0.24212086439E+02  0.95156565273E+02  0.41800000000E+01 0.  1.
         -5    1    4    4    0  501 -0.68942052433E+01  0.53872078340E+02 -0.13333799686E+03  0.14403549805E+03  0.41800000000E+01 0.  1.
</event>
<event>
11    1  0.8039394E-009  0.1449248E+03  0.7561462E-02  0.1102180E+00
         22   -1    0    0    0    0  0.00000000000E+00  0.00000000000E+00  0.87323155203E+03  0.87323155203E+03  0.00000000000E+00 0. -1.
         22   -1    0    0    0    0 -0.00000000000E+00 -0.00000000000E+00 -0.71078514127E+02  0.71078514127E+02  0.00000000000E+00 0. -1.
        -24    2    1    2    0    0 -0.17773131083E+02  0.32668206424E+02 -0.13444479853E+02  0.88498727556E+02  0.79171805847E+02 0.  0.
         25    2    1    2    0    0  0.63074871330E+02 -0.73103434764E+02  0.46610892305E+03  0.49216636374E+03  0.12509056673E+03 0.  0.
         24    2    1    2    0    0 -0.45301740248E+02  0.40435228340E+02  0.34948859471E+03  0.36364497486E+03  0.80050824793E+02 0.  0.
        -11    1    5    5    0    0 -0.49432001516E+02  0.19055848203E+02  0.99632460060E+02  0.11284181504E+03  0.00000000000E+00 0.  1.
         12    1    5    5    0    0  0.41302612687E+01  0.21379380137E+02  0.24985613465E+03  0.25080315982E+03  0.00000000000E+00 0. -1.
         11    1    3    3    0    0 -0.11730274283E+02 -0.10916394903E+02 -0.35742370035E+02  0.39169937812E+02  0.00000000000E+00 0. -1.
        -12    1    3    3    0    0 -0.60428567992E+01  0.43584601326E+02  0.22297890182E+02  0.49328789744E+02  0.00000000000E+00 0.  1.
          5    1    4    4  501    0  0.87895498068E+02 -0.91074765276E+02  0.38861388522E+03  0.40872785033E+03  0.41800000000E+01 0.  1.
         -5    1    4    4    0  501 -0.24820626738E+02  0.17971330512E+02  0.77495037827E+02  0.83438513408E+02  0.41800000000E+01 0.  1.
</event>
<event>
11    1  0.8039394E-009  0.1703473E+03  0.7561462E-02  0.1077730E+00
         22   -1    0    0    0    0  0.00000000000E+00  0.00000000000E+00  0.57925881734E+03  0.57925881734E+03  0.00000000000E+00 0. -1.
         22   -1    0    0    0    0 -0.00000000000E+00 -0.00000000000E+00 -0.35076695616E+03  0.35076695616E+03  0.00000000000E+00 0. -1.
         24    2    1    2    0    0  0.24055517935E+02  0.44833929260E+02 -0.26060161293E+03  0.27743311999E+03  0.80418817732E+02 0.  0.
         25    2    1    2    0    0 -0.91516764124E+02  0.52655546782E+02  0.23583888015E+02  0.16538143368E+03  0.12508754578E+03 0.  0.
        -24    2    1    2    0    0  0.67461246189E+02 -0.97489476042E+02  0.46550958610E+03  0.48721121983E+03  0.81365719470E+02 0.  0.
        -13    1    3    3    0    0 -0.28936661984E+01 -0.10259645023E+02 -0.10247035010E+01  0.10709044651E+02  0.00000000000E+00 0.  1.
         14    1    3    3    0    0  0.26949184133E+02  0.55093574283E+02 -0.25957690943E+03  0.26672407534E+03  0.00000000000E+00 0. -1.
         11    1    5    5    0    0  0.85658811911E+02 -0.72117616189E+02  0.38120326789E+03  0.39730883966E+03  0.00000000000E+00 0. -1.
        -12    1    5    5    0    0 -0.18197565722E+02 -0.25371859853E+02  0.84306318206E+02  0.89902380169E+02  0.00000000000E+00 0.  1.
          5    1    4    4  501    0 -0.11410228487E+03  0.67492414745E+02  0.32611803805E+02  0.13658535649E+03  0.41800000000E+01 0.  1.
         -5    1    4    4    0  501  0.22585520742E+02 -0.14836867963E+02 -0.90279157908E+01  0.28796077192E+02  0.41800000000E+01 0.  1.
</event>
<event>
11    1  0.8039394E-009  0.3171608E+03  0.7561462E-02  0.9931791E-01
         22   -1    0    0    0    0  0.00000000000E+00  0.00000000000E+00  0.52558032583E+03  0.52558032583E+03  0.00000000000E+00 0.  1.
         22   -1    0    0    0    0 -0.00000000000E+00 -0.00000000000E+00 -0.61605281679E+03  0.61605281679E+03  0.00000000000E+00 0.  1.
        -24    2    1    2    0    0 -0.83069119049E+01 -0.32903676750E+03 -0.32897112343E+03  0.47227617604E+03  0.80551767528E+02 0.  0.
         25    2    1    2    0    0 -0.23809527655E+03  0.16085887676E+03  0.94236292604E+02  0.32724992701E+03  0.12508835651E+03 0.  0.
         24    2    1    2    0    0  0.24640218845E+03  0.16817789073E+03  0.14426233986E+03  0.34210703957E+03  0.85016247944E+02 0.  0.
        -11    1    5    5    0    0  0.21180445900E+03  0.14032973471E+03  0.84723002734E+02  0.26782746402E+03  0.00000000000E+00 0.  1.
         12    1    5    5    0    0  0.34597729459E+02  0.27848156028E+02  0.59539337127E+02  0.74279575546E+02  0.00000000000E+00 0. -1.
         11    1    3    3    0    0 -0.11044784177E+02 -0.21574361349E+01 -0.60305187229E+01  0.12767495614E+02  0.00000000000E+00 0. -1.
        -12    1    3    3    0    0  0.27378722718E+01 -0.32687933136E+03 -0.32294060471E+03  0.45950868042E+03  0.00000000000E+00 0.  1.
          5    1    4    4  501    0 -0.80234699501E+02 -0.45178519157E+01  0.14642703091E+01  0.80483752879E+02  0.41800000000E+01 0. -1.
         -5    1    4    4    0  501 -0.15786057705E+03  0.16537672868E+03  0.92772022295E+02  0.24676617413E+03  0.41800000000E+01 0. -1.
</event>
<event>
11    1  0.8039394E-009  0.1671873E+03  0.7561462E-02  0.1080506E+00
         22   -1    0    0    0    0  0.00000000000E+00  0.00000000000E+00  0.75196449928E+03  0.75196449928E+03  0.00000000000E+00 0. -1.
         22   -1    0    0    0    0 -0.00000000000E+00 -0.00000000000E+00 -0.14707536964E+03  0.14707536964E+03  0.00000000000E+00 0.  1.
         24    2    1    2    0    0 -0.47026932778E+02 -0.11057721146E+03 -0.55445617761E+02  0.15423185439E+03  0.79211086837E+02 0.  0.
         25    2    1    2    0    0  0.95129628402E+02  0.37025950294E+02  0.14903137023E+03  0.21972660462E+03  0.12509542066E+03 0.  0.
        -24    2    1    2    0    0 -0.48102695624E+02  0.73551261164E+02  0.51130337717E+03  0.52508140991E+03  0.80967192054E+02 0.  0.
        -13    1    3    3    0    0 -0.47464750074E+02 -0.98464582937E+02 -0.74049184168E+02  0.13202824799E+03  0.00000000000E+00 0.  1.
         14    1    3    3    0    0  0.43781729602E+00 -0.12112628521E+02  0.18603566408E+02  0.22203606391E+02  0.00000000000E+00 0. -1.
         13    1    5    5    0    0 -0.32499944309E+02  0.65079717976E+02  0.49696391390E+03  0.50225964181E+03  0.00000000000E+00 0. -1.
        -14    1    5    5    0    0 -0.15602751314E+02  0.84715431871E+01  0.14339463265E+02  0.22821768101E+02  0.00000000000E+00 0.  1.
          5    1    4    4  501    0  0.22509624678E+02 -0.42710702613E+02  0.73324559489E+02  0.87891130070E+02  0.41800000000E+01 0. -1.
         -5    1    4    4    0  501  0.72620003724E+02  0.79736652907E+02  0.75706810741E+02  0.13183547455E+03  0.41800000000E+01 0. -1.
</event>
<event>
11    1  0.8039394E-009  0.1364994E+03  0.7561462E-02  0.1111532E+00
         22   -1    0    0    0    0  0.00000000000E+00  0.00000000000E+00  0.83793158032E+03  0.83793158032E+03  0.00000000000E+00 0.  1.
         22   -1    0    0    0    0 -0.00000000000E+00 -0.00000000000E+00 -0.12394192724E+04  0.12394192724E+04  0.00000000000E+00 0. -1.
         24    2    1    2    0    0 -0.33769577060E+02  0.14629447334E+02 -0.98401517994E+03  0.98793077644E+03  0.79793105133E+02 0.  0.
         25    2    1    2    0    0  0.86974438646E+02 -0.25138928652E+02 -0.22678990044E+03  0.27436604255E+03  0.12508616091E+03 0.  0.
        -24    2    1    2    0    0 -0.53204861586E+02  0.10509481318E+02  0.80931738829E+03  0.81505403374E+03  0.79857601005E+02 0.  0.
        -11    1    3    3    0    0 -0.17148427349E+02  0.47707794793E+02 -0.59747178681E+03  0.59961874411E+03  0.00000000000E+00 0.  1.
         12    1    3    3    0    0 -0.16621149711E+02 -0.33078347459E+02 -0.38654339312E+03  0.38831203233E+03  0.00000000000E+00 0. -1.
         11    1    5    5    0    0 -0.84055991115E+01  0.39967861869E+02  0.26899391410E+03  0.27207684559E+03  0.00000000000E+00 0. -1.
        -12    1    5    5    0    0 -0.44799262475E+02 -0.29458380551E+02  0.54032347419E+03  0.54297718816E+03  0.00000000000E+00 0.  1.
          5    1    4    4  501    0  0.68582485211E+02 -0.44851083174E+02 -0.51302978346E+02  0.96771095513E+02  0.41800000000E+01 0. -1.
         -5    1    4    4    0  501  0.18391953435E+02  0.19712154522E+02 -0.17548692209E+03  0.17759494704E+03  0.41800000000E+01 0. -1.
</event>
<event>
11    1  0.8039394E-009  0.1264577E+03  0.7561462E-02  0.1123700E+00
         22   -1    0    0    0    0  0.00000000000E+00  0.00000000000E+00  0.17164440203E+04  0.17164440203E+04  0.00000000000E+00 0.  1.
         22   -1    0    0    0    0 -0.00000000000E+00 -0.00000000000E+00 -0.14682111952E+04  0.14682111952E+04  0.00000000000E+00 0.  1.
         24    2    1    2    0    0  0.20689846901E+02 -0.91483885973E+01 -0.14420868331E+04  0.14444048838E+04  0.78608341034E+02 0.  0.
         25    2    1    2    0    0 -0.31190819304E+02 -0.58573748400E+01  0.15124749624E+03  0.19882252657E+03  0.12508963147E+03 0.  0.
        -24    2    1    2    0    0  0.10500972403E+02  0.15005763437E+02  0.15390721620E+04  0.15414278051E+04  0.83193240439E+02 0.  0.
        -13    1    3    3    0    0  0.31141878067E+02  0.88654700384E+01 -0.13303334734E+04  0.13307274566E+04  0.00000000000E+00 0.  1.
         14    1    3    3    0    0 -0.10452031165E+02 -0.18013858636E+02 -0.11175335968E+03  0.11367742722E+03  0.00000000000E+00 0. -1.
         11    1    5    5    0    0  0.41143414370E+02 -0.11872355627E+02  0.93658767897E+03  0.93756611168E+03  0.00000000000E+00 0. -1.
        -12    1    5    5    0    0 -0.30642441967E+02  0.26878119064E+02  0.60248448301E+03  0.60386169343E+03  0.00000000000E+00 0.  1.
          5    1    4    4  501    0 -0.92893639430E+01 -0.99161303671E+01 -0.20852189598E+02  0.25237038950E+02  0.41800000000E+01 0. -1.
         -5    1    4    4    0  501 -0.21901455362E+02  0.40587555271E+01  0.17209968584E+03  0.17358548762E+03  0.41800000000E+01 0. -1.
</event>
<event>
11    1  0.8039394E-009  0.1421982E+03  0.7561462E-02  0.1105128E+00
         22   -1    0    0    0    0  0.00000000000E+00  0.00000000000E+00  0.14983581161E+04  0.14983581161E+04  0.00000000000E+00 0. -1.
         22   -1    0    0    0    0 -0.00000000000E+00 -0.00000000000E+00 -0.16681052876E+04  0.16681052876E+04  0.00000000000E+00 0. -1.
        -24    2    1    2    0    0 -0.10643997510E+02 -0.20759462381E+02 -0.14961116375E+04  0.14986068880E+04  0.83236549257E+02 0.  0.
         25    2    1    2    0    0  0.10505977404E+02  0.88191099431E+02 -0.13400619137E+03  0.20368551954E+03  0.12506832520E+03 0.  0.
         24    2    1    2    0    0  0.13802010575E+00 -0.67431637050E+02  0.14603706573E+04  0.14641709961E+04  0.81038290460E+02 0.  0.
        -11    1    5    5    0    0 -0.93036910664E+01  0.14996257564E+02  0.12683069601E+03  0.12805261364E+03  0.00000000000E+00 0.  1.
         12    1    5    5    0    0  0.94417111721E+01 -0.82427894614E+02  0.13335399613E+04  0.13361183825E+04  0.00000000000E+00 0. -1.
         11    1    3    3    0    0 -0.33540029560E+01 -0.43808447635E+01 -0.14326755965E+04  0.14326862204E+04  0.00000000000E+00 0. -1.
        -12    1    3    3    0    0 -0.72899945541E+01 -0.16378617617E+02 -0.63436040932E+02  0.65920667660E+02  0.00000000000E+00 0.  1.
          5    1    4    4  501    0  0.21531324160E+02 -0.26555512011E+02 -0.51133221775E+02  0.61651211726E+02  0.41800000000E+01 0.  1.
         -5    1    4    4    0  501 -0.11025346756E+02  0.11474661144E+03 -0.82872969592E+02  0.14203430782E+03  0.41800000000E+01 0.  1.
</event>
<event>
11    1  0.8039394E-009  0.1447870E+03  0.7561462E-02  0.1102328E+00
         22   -1    0    0    0    0  0.00000000000E+00  0.00000000000E+00  0.18193019241E+03  0.18193019241E+03  0.00000000000E+00 0. -1.
         22   -1    0    0    0    0 -0.00000000000E+00 -0.00000000000E+00 -0.59143037907E+03  0.59143037907E+03  0.00000000000E+00 0. -1.
        -24    2    1    2    0    0  0.11978558583E+02 -0.42203459105E+01 -0.30086154114E+03  0.31182412864E+03  0.80964949698E+02 0.  0.
         25    2    1    2    0    0 -0.83929318827E+02 -0.10000927124E+01 -0.24492499120E+03  0.28754254735E+03  0.12508930602E+03 0.  0.
         24    2    1    2    0    0  0.71950760244E+02  0.52204386229E+01  0.13628634568E+03  0.17399389549E+03  0.80596170935E+02 0.  0.
        -11    1    5    5    0    0  0.65073995283E+02  0.28338097851E+01  0.37942358313E+02  0.75380885471E+02  0.00000000000E+00 0.  1.
         12    1    5    5    0    0  0.68767649610E+01  0.23866288378E+01  0.98343987366E+02  0.98613010017E+02  0.00000000000E+00 0. -1.
         11    1    3    3    0    0  0.17812701579E+02  0.10434040319E+01 -0.30312277330E+03  0.30364748760E+03  0.00000000000E+00 0. -1.
        -12    1    3    3    0    0 -0.58341429963E+01 -0.52637499424E+01  0.22612321571E+01  0.81766410479E+01  0.00000000000E+00 0.  1.
          5    1    4    4  501    0 -0.43165077510E+02 -0.13657635067E+02 -0.24011911096E+03  0.24438579083E+03  0.41800000000E+01 0. -1.
         -5    1    4    4    0  501 -0.40764241317E+02  0.12657542354E+02 -0.48058802365E+01  0.43156756522E+02  0.41800000000E+01 0. -1.
</event>
<event>
11    1  0.8039394E-009  0.1540657E+03  0.7561462E-02  0.1092795E+00
         22   -1    0    0    0    0  0.00000000000E+00  0.00000000000E+00  0.75095057117E+03  0.75095057117E+03  0.00000000000E+00 0.  1.
         22   -1    0    0    0    0 -0.00000000000E+00 -0.00000000000E+00 -0.38626938488E+03  0.38626938488E+03  0.00000000000E+00 0.  1.
        -24    2    1    2    0    0 -0.58976268940E+01 -0.86476749384E+02 -0.32369117055E+03  0.34418311843E+03  0.78568663805E+02 0.  0.
         25    2    1    2    0    0  0.29485032045E+02  0.16120765708E+03  0.18346029313E+03  0.27597689914E+03  0.12509314085E+03 0.  0.
         24    2    1    2    0    0 -0.23587405151E+02 -0.74730907698E+02  0.50491206371E+03  0.51705993847E+03  0.79206777791E+02 0.  0.
        -13    1    5    5    0    0  0.82625822569E+01 -0.76874711336E+02  0.30679965770E+03  0.31639219566E+03  0.00000000000E+00 0.  1.
         14    1    5    5    0    0 -0.31849987408E+02  0.21438036375E+01  0.19811240600E+03  0.20066774281E+03  0.00000000000E+00 0. -1.
         11    1    3    3    0    0  0.31902645497E+02 -0.48406474022E+02 -0.11607423473E+03  0.12974665115E+03  0.00000000000E+00 0. -1.
        -12    1    3    3    0    0 -0.37800272391E+02 -0.38070275361E+02 -0.20761693582E+03  0.21443646727E+03  0.00000000000E+00 0.  1.
          5    1    4    4  501    0 -0.70315337418E+01  0.33489358769E+02  0.12697130788E+03  0.13156810039E+03  0.41800000000E+01 0.  1.
         -5    1    4    4    0  501  0.36516565787E+02  0.12771829831E+03  0.56488985255E+02  0.14440879875E+03  0.41800000000E+01 0.  1.
</event>
<event>
11    1  0.8039394E-009  0.1562228E+03  0.7561462E-02  0.1090685E+00
         22   -1    0    0    0    0  0.00000000000E+00  0.00000000000E+00  0.20543794791E+03  0.20543794791E+03  0.00000000000E+00 0. -1.
         22   -1    0    0    0    0 -0.00000000000E+00 -0.00000000000E+00 -0.72798009303E+03  0.72798009303E+03  0.00000000000E+00 0. -1.
        -24    2    1    2    0    0  0.44119752585E+02 -0.64459835700E+02 -0.54302260318E+03  0.55480946700E+03  0.82694462511E+02 0.  0.
         25    2    1    2    0    0 -0.84676292424E+02  0.13649605693E+03 -0.86653571381E+02  0.22126428054E+03  0.12509113618E+03 0.  0.
         24    2    1    2    0    0  0.40556539839E+02 -0.72036221233E+02  0.10713402944E+03  0.15734429339E+03  0.80283723795E+02 0.  0.
        -13    1    5    5    0    0 -0.44870531966E+01  0.82028201877E+01  0.45833961161E+02  0.46777899708E+02  0.00000000000E+00 0.  1.
         14    1    5    5    0    0  0.45043593035E+02 -0.80239041421E+02  0.61300068281E+02  0.11056639369E+03  0.00000000000E+00 0. -1.
         11    1    3    3    0    0  0.56694281493E+02 -0.62241817557E+02 -0.52972590854E+03  0.53637470446E+03  0.00000000000E+00 0. -1.
        -12    1    3    3    0    0 -0.12574528908E+02 -0.22180181430E+01 -0.13296694634E+02  0.18434762541E+02  0.00000000000E+00 0.  1.
          5    1    4    4  501    0 -0.66189120582E+02  0.15426219994E+03 -0.47907386556E+02  0.17461505119E+03  0.41800000000E+01 0.  1.
         -5    1    4    4    0  501 -0.18487171841E+02 -0.17766143012E+02 -0.38746184825E+02  0.46649229348E+02  0.41800000000E+01 0.  1.
</event>
<event>
11    1  0.8039394E-009  0.1411083E+03  0.7561462E-02  0.1106327E+00
         22   -1    0    0    0    0  0.00000000000E+00  0.00000000000E+00  0.34389095956E+03  0.34389095956E+03  0.00000000000E+00 0.  1.
         22   -1    0    0    0    0 -0.00000000000E+00 -0.00000000000E+00 -0.45139654695E+03  0.45139654695E+03  0.00000000000E+00 0.  1.
        -24    2    1    2    0    0  0.51481663465E+02  0.48478385946E+02 -0.27721765708E+03  0.29738425980E+03  0.81161893797E+02 0.  0.
         25    2    1    2    0    0 -0.49923292262E+02 -0.18053183276E+02 -0.12862389212E+03  0.18710932434E+03  0.12509013188E+03 0.  0.
         24    2    1    2    0    0 -0.15583712036E+01 -0.30425202670E+02  0.29833596181E+03  0.31079392237E+03  0.81611240622E+02 0.  0.
        -11    1    5    5    0    0  0.10746787396E+02  0.12527907653E+02  0.21994520571E+03  0.22056367657E+03  0.00000000000E+00 0.  1.
         12    1    5    5    0    0 -0.12305158600E+02 -0.42953110323E+02  0.78390756097E+02  0.90230245794E+02  0.00000000000E+00 0. -1.
         11    1    3    3    0    0 -0.71608515225E+01  0.19507509533E+02 -0.11531998950E+02  0.23765683716E+02  0.00000000000E+00 0. -1.
        -12    1    3    3    0    0  0.58642514988E+02  0.28970876414E+02 -0.26568565813E+03  0.27361857609E+03  0.00000000000E+00 0.  1.
          5    1    4    4  501    0 -0.55115794598E+02 -0.47949892678E+02 -0.22352740907E+02  0.76511832079E+02  0.41800000000E+01 0. -1.
         -5    1    4    4    0  501  0.51925023366E+01  0.29896709402E+02 -0.10627115121E+03  0.11059749226E+03  0.41800000000E+01 0. -1.
</event>
<event>
11    1  0.8039394E-009  0.1350528E+03  0.7561462E-02  0.1113212E+00
         22   -1    0    0    0    0  0.00000000000E+00  0.00000000000E+00  0.65872699364E+03  0.65872699364E+03  0.00000000000E+00 0.  1.
         22   -1    0    0    0    0 -0.00000000000E+00 -0.00000000000E+00 -0.48519399408E+02  0.48519399408E+02  0.00000000000E+00 0.  1.
         24    2    1    2    0    0  0.26427206472E+01  0.33418844348E+02  0.65460558954E+02  0.11016140535E+03  0.82016140610E+02 0.  0.
         25    2    1    2    0    0  0.25408155811E+02  0.19477780414E+02  0.20779196547E+03  0.24463977841E+03  0.12508461919E+03 0.  0.
        -24    2    1    2    0    0 -0.28050876458E+02 -0.52896624762E+02  0.33695506981E+03  0.35244520928E+03  0.84225897995E+02 0.  0.
        -11    1    3    3    0    0 -0.22515290698E+02  0.62394663337E+01 -0.10529247391E+02  0.25626827856E+02  0.00000000000E+00 0.  1.
         12    1    3    3    0    0  0.25158011345E+02  0.27179378014E+02  0.75989806345E+02  0.84534577496E+02  0.00000000000E+00 0. -1.
         13    1    5    5    0    0 -0.11712031892E+02 -0.52930073599E+02  0.90822554644E+02  0.10577098286E+03  0.00000000000E+00 0. -1.
        -14    1    5    5    0    0 -0.16338844567E+02  0.33448836471E-01  0.24613251517E+03  0.24667422642E+03  0.00000000000E+00 0.  1.
          5    1    4    4  501    0 -0.48546492563E+02 -0.81793102721E+01  0.91998885635E+02  0.10442667482E+03  0.41800000000E+01 0. -1.
         -5    1    4    4    0  501  0.73954648374E+02  0.27657090687E+02  0.11579307983E+03  0.14021310359E+03  0.41800000000E+01 0. -1.
</event>
<event>
11    1  0.8039394E-009  0.1384491E+03  0.7561462E-02  0.1109303E+00
         22   -1    0    0    0    0  0.00000000000E+00  0.00000000000E+00  0.78036714083E+03  0.78036714083E+03  0.00000000000E+00 0. -1.
         22   -1    0    0    0    0 -0.00000000000E+00 -0.00000000000E+00 -0.24550094954E+03  0.24550094954E+03  0.00000000000E+00 0.  1.
        -24    2    1    2    0    0  0.42212364458E+02 -0.43031845291E+02 -0.19509904908E+03  0.21694259459E+03  0.73258630726E+02 0.  0.
         25    2    1    2    0    0 -0.92266072456E+02  0.14871369597E+02  0.13645343375E+03  0.20736971997E+03  0.12509386643E+03 0.  0.
         24    2    1    2    0    0  0.50053707998E+02  0.28160475693E+02  0.59351180662E+03  0.60155577581E+03  0.79465091351E+02 0.  0.
        -13    1    5    5    0    0 -0.78000152145E+01 -0.19957139384E+02  0.94244381005E+02  0.96649526646E+02  0.00000000000E+00 0.  1.
         14    1    5    5    0    0  0.57853723212E+02  0.48117615078E+02  0.49926742561E+03  0.50490624917E+03  0.00000000000E+00 0. -1.
         13    1    3    3    0    0 -0.17101763263E+02 -0.14417425321E+02 -0.91417122898E+02  0.94113882177E+02  0.00000000000E+00 0. -1.
        -14    1    3    3    0    0  0.59314127721E+02 -0.28614419970E+02 -0.10368192618E+03  0.12282871241E+03  0.00000000000E+00 0.  1.
          5    1    4    4  501    0 -0.14471871458E+02 -0.17680839079E+02 -0.19302044514E+02  0.30200802248E+02  0.41800000000E+01 0.  1.
         -5    1    4    4    0  501 -0.77794200998E+02  0.32552208676E+02  0.15575547826E+03  0.17716891772E+03  0.41800000000E+01 0.  1.
</event>
<event>
11    1  0.8039394E-009  0.1302325E+03  0.7561462E-02  0.1118984E+00
         22   -1    0    0    0    0  0.00000000000E+00  0.00000000000E+00  0.15465991585E+04  0.15465991585E+04  0.00000000000E+00 0. -1.
         22   -1    0    0    0    0 -0.00000000000E+00 -0.00000000000E+00 -0.11703483237E+03  0.11703483237E+03  0.00000000000E+00 0. -1.
        -24    2    1    2    0    0 -0.35862276716E+02 -0.85332516326E+00 -0.84722494032E+02  0.12413506131E+03  0.83335355026E+02 0.  0.
         25    2    1    2    0    0  0.43315663261E+02  0.64921115901E+01  0.38289051718E+03  0.40518033724E+03  0.12509022081E+03 0.  0.
         24    2    1    2    0    0 -0.74533865454E+01 -0.56387864268E+01  0.11313963029E+04  0.11343185923E+04  0.80831464174E+02 0.  0.
        -11    1    5    5    0    0  0.12481656373E+02 -0.37027136845E+02  0.38021325529E+03  0.38221580306E+03  0.00000000000E+00 0.  1.
         12    1    5    5    0    0 -0.19935042919E+02  0.31388350418E+02  0.75118304765E+03  0.75210278922E+03  0.00000000000E+00 0. -1.
         11    1    3    3    0    0 -0.35496098456E+02  0.20638779218E+02 -0.92557660248E+02  0.10125637108E+03  0.00000000000E+00 0. -1.
        -12    1    3    3    0    0 -0.36617825969E+00 -0.21492104381E+02  0.78351662168E+01  0.22878690236E+02  0.00000000000E+00 0.  1.
          5    1    4    4  501    0 -0.16410047314E+02  0.11948420719E+02  0.31001430165E+03  0.31070628259E+03  0.41800000000E+01 0. -1.
         -5    1    4    4    0  501  0.59725710575E+02 -0.54563091289E+01  0.72876215531E+02  0.94474054656E+02  0.41800000000E+01 0. -1.
</event>
<event>
11    1  0.8039394E-009  0.1669385E+03  0.7561462E-02  0.1080727E+00
         22   -1    0    0    0    0  0.00000000000E+00  0.00000000000E+00  0.10458846688E+04  0.10458846688E+04  0.00000000000E+00 0.  1.
         22   -1    0    0    0    0 -0.00000000000E+00 -0.00000000000E+00 -0.43661273548E+03  0.43661273548E+03  0.00000000000E+00 0.  1.
        -24    2    1    2    0    0  0.71528701193E+02 -0.83888231678E+02 -0.40484179727E+03  0.42765415095E+03  0.82689790776E+02 0.  0.
         25    2    1    2    0    0 -0.76890503520E+02  0.94867520703E+02  0.41279970559E+03  0.44828900185E+03  0.12508971273E+03 0.  0.
         24    2    1    2    0    0  0.53618023269E+01 -0.10979289025E+02  0.60131402501E+03  0.60655425149E+03  0.78614309194E+02 0.  0.
        -11    1    5    5    0    0  0.23255171275E+01  0.49285980201E+01  0.57877255428E+03  0.57879821069E+03  0.00000000000E+00 0.  1.
         12    1    5    5    0    0  0.30362851994E+01 -0.15907887045E+02  0.22541470727E+02  0.27756040794E+02  0.00000000000E+00 0. -1.
         11    1    3    3    0    0 -0.29224309552E+00  0.12540114699E+02 -0.85722795036E+02  0.86635659353E+02  0.00000000000E+00 0. -1.
        -12    1    3    3    0    0  0.71820944288E+02 -0.96428346377E+02 -0.31911900223E+03  0.34101849159E+03  0.00000000000E+00 0.  1.
          5    1    4    4  501    0 -0.95128457711E+02  0.63243783568E+02  0.18442767060E+03  0.21697980945E+03  0.41800000000E+01 0. -1.
         -5    1    4    4    0  501  0.18237954191E+02  0.31623737135E+02  0.22837203499E+03  0.23130919240E+03  0.41800000000E+01 0. -1.
</event>
<event>
11    1  0.8039394E-009  0.1401021E+03  0.7561462E-02  0.1107444E+00
         22   -1    0    0    0    0  0.00000000000E+00  0.00000000000E+00  0.10370107650E+04  0.10370107650E+04  0.00000000000E+00 0.  1.
         22   -1    0    0    0    0 -0.00000000000E+00 -0.00000000000E+00 -0.54911606677E+03  0.54911606677E+03  0.00000000000E+00 0. -1.
        -24    2    1    2    0    0 -0.56890720336E+02  0.68030006920E+01 -0.48731691332E+03  0.49679728763E+03  0.77762047991E+02 0.  0.
         25    2    1    2    0    0 -0.55378666532E+00  0.25153493021E+02  0.20844948684E+02  0.12928219710E+03  0.12508544963E+03 0.  0.
         24    2    1    2    0    0  0.57444507001E+02 -0.31956493713E+02  0.95436666282E+03  0.96004734701E+03  0.80957350017E+02 0.  0.
        -13    1    5    5    0    0  0.68694342575E+02  0.14944845587E+01  0.66307598007E+03  0.66662650827E+03  0.00000000000E+00 0.  1.
         14    1    5    5    0    0 -0.11249835575E+02 -0.33450978272E+02  0.29129068275E+03  0.29342083874E+03  0.00000000000E+00 0. -1.
         11    1    3    3    0    0 -0.23050459195E+02  0.18147318283E+02 -0.41614294416E+03  0.41717574091E+03  0.00000000000E+00 0. -1.
        -12    1    3    3    0    0 -0.33840261140E+02 -0.11344317591E+02 -0.71173969159E+02  0.79621546716E+02  0.00000000000E+00 0.  1.
          5    1    4    4  501    0  0.60273044207E+02  0.22421143814E+02  0.22414017353E+02  0.68230551234E+02  0.41800000000E+01 0.  1.
         -5    1    4    4    0  501 -0.60826830872E+02  0.27323492073E+01 -0.15690686685E+01  0.61051645863E+02  0.41800000000E+01 0.  1.
</event>
<event>
11    1  0.8039394E-009  0.1786998E+03  0.7561462E-02  0.1070699E+00
         22   -1    0    0    0    0  0.00000000000E+00  0.00000000000E+00  0.46239812524E+03  0.46239812524E+03  0.00000000000E+00 0. -1.
         22   -1    0    0    0    0 -0.00000000000E+00 -0.00000000000E+00 -0.90448694514E+03  0.90448694514E+03  0.00000000000E+00 0. -1.
         24    2    1    2    0    0  0.96058114531E+01 -0.76438948409E+01 -0.82375332636E+03  0.82767073843E+03  0.79489671119E+02 0.  0.
         25    2    1    2    0    0 -0.33671559988E+02 -0.11891687636E+03  0.63267818377E+02  0.18688182323E+03  0.12508797536E+03 0.  0.
        -24    2    1    2    0    0  0.24065748535E+02  0.12656077120E+03  0.31839668808E+03  0.35233250873E+03  0.78517238014E+02 0.  0.
        -11    1    3    3    0    0 -0.20970635353E+02 -0.26057150295E+02 -0.61336012917E+03  0.61427143079E+03  0.00000000000E+00 0.  1.
         12    1    3    3    0    0  0.30576446806E+02  0.18413255454E+02 -0.21039319719E+03  0.21339930764E+03  0.00000000000E+00 0. -1.
         11    1    5    5    0    0 -0.54794425801E+01  0.39480167369E+02  0.19159567231E+03  0.19569775051E+03  0.00000000000E+00 0. -1.
        -12    1    5    5    0    0  0.29545191115E+02  0.87080603827E+02  0.12680101577E+03  0.15663475822E+03  0.00000000000E+00 0.  1.
          5    1    4    4  501    0 -0.60436427564E+02 -0.12908281192E+03  0.67286337446E+02  0.15767009138E+03  0.41800000000E+01 0. -1.
         -5    1    4    4    0  501  0.26764867576E+02  0.10165935563E+02 -0.40185190698E+01  0.29211731851E+02  0.41800000000E+01 0. -1.
</event>
<event>
11    1  0.8039394E-009  0.1284664E+03  0.7561462E-02  0.1121168E+00
         22   -1    0    0    0    0  0.00000000000E+00  0.00000000000E+00  0.19329433992E+04  0.19329433992E+04  0.00000000000E+00 0.  1.
         22   -1    0    0    0    0 -0.00000000000E+00 -0.00000000000E+00 -0.47590999585E+02  0.47590999585E+02  0.00000000000E+00 0. -1.
         24    2    1    2    0    0 -0.29722799580E+02 -0.77803257420E+01  0.48295801788E+02  0.98266874059E+02  0.79874375012E+02 0.  0.
         25    2    1    2    0    0  0.22695849680E+02  0.13036438752E+02  0.16641454558E+03  0.20982516691E+03  0.12509096435E+03 0.  0.
        -24    2    1    2    0    0  0.70269499003E+01 -0.52561130099E+01  0.16706420522E+04  0.16724423578E+04  0.77081571862E+02 0.  0.
        -11    1    3    3    0    0 -0.16780294028E+02 -0.14920908035E+02  0.69150493222E+02  0.72704899952E+02  0.00000000000E+00 0.  1.
         12    1    3    3    0    0 -0.12942505552E+02  0.71405822927E+01 -0.20854691434E+02  0.25561974107E+02  0.00000000000E+00 0. -1.
         13    1    5    5    0    0  0.14248482831E+02 -0.37594768928E+02  0.63574607523E+03  0.63701605795E+03  0.00000000000E+00 0. -1.
        -14    1    5    5    0    0 -0.72215329311E+01  0.32338655919E+02  0.10348959770E+04  0.10354262998E+04  0.00000000000E+00 0.  1.
          5    1    4    4  501    0  0.44909390359E+02  0.34968507605E+02  0.16885194217E+03  0.17823608120E+03  0.41800000000E+01 0.  1.
         -5    1    4    4    0  501 -0.22213540680E+02 -0.21932068853E+02 -0.24373965956E+01  0.31589085708E+02  0.41800000000E+01 0.  1.
</event>
<event>
11    1  0.8039394E-009  0.1681388E+03  0.7561462E-02  0.1079663E+00
         22   -1    0    0    0    0  0.00000000000E+00  0.00000000000E+00  0.25323474684E+03  0.25323474684E+03  0.00000000000E+00 0. -1.
         22   -1    0    0    0    0 -0.00000000000E+00 -0.00000000000E+00 -0.49318340381E+03  0.49318340381E+03  0.00000000000E+00 0. -1.
         24    2    1    2    0    0  0.70491947686E+01 -0.26677180915E+02 -0.37850558586E+03  0.38814340943E+03  0.81409241685E+02 0.  0.
         25    2    1    2    0    0 -0.96670919808E+02  0.84470712987E+02  0.20884536324E+02  0.18046727530E+03  0.12510677643E+03 0.  0.
        -24    2    1    2    0    0  0.89621725040E+02 -0.57793532072E+02  0.11767239257E+03  0.17780746592E+03  0.79978478466E+02 0.  0.
        -11    1    3    3    0    0  0.25632969947E+02 -0.24068259260E+02 -0.63545791716E+02  0.72625050065E+02  0.00000000000E+00 0.  1.
         12    1    3    3    0    0 -0.18583775179E+02 -0.26089216548E+01 -0.31495979414E+03  0.31551835937E+03  0.00000000000E+00 0. -1.
         13    1    5    5    0    0  0.68315099863E+02 -0.39216166145E+02  0.27700952366E+02  0.83499720469E+02  0.00000000000E+00 0. -1.
        -14    1    5    5    0    0  0.21306625176E+02 -0.18577365928E+02  0.89971440200E+02  0.94307745455E+02  0.00000000000E+00 0.  1.
          5    1    4    4  501    0  0.16003726666E+00  0.77795877744E+02 -0.99491240810E+01  0.78540955404E+02  0.41800000000E+01 0.  1.
         -5    1    4    4    0  501 -0.96830957075E+02  0.66748352431E+01  0.30833660405E+02  0.10192631990E+03  0.41800000000E+01 0.  1.
</event>
<event>
11    1  0.8039394E-009  0.1354590E+03  0.7561462E-02  0.1112738E+00
         22   -1    0    0    0    0  0.00000000000E+00  0.00000000000E+00  0.58816652806E+02  0.58816652806E+02  0.00000000000E+00 0.  1.
         22   -1    0    0    0    0 -0.00000000000E+00 -0.00000000000E+00 -0.20706167602E+04  0.20706167602E+04  0.00000000000E+00 0.  1.
         24    2    1    2    0    0  0.42122568486E+02  0.33506081434E+02 -0.17030962133E+04  0.17057736400E+04  0.78930544578E+02 0.  0.
         25    2    1    2    0    0 -0.64372118145E+01 -0.43923880131E+02 -0.30934837912E+03  0.33662238485E+03  0.12508982923E+03 0.  0.
        -24    2    1    2    0    0 -0.35685356672E+02  0.10417798697E+02  0.64448502310E+00  0.87037388165E+02  0.78696355489E+02 0.  0.
        -11    1    3    3    0    0  0.62657833807E+02  0.20692719399E+02 -0.14560633203E+04  0.14575577469E+04  0.00000000000E+00 0.  1.
         12    1    3    3    0    0 -0.20535265320E+02  0.12813362035E+02 -0.24703289294E+03  0.24821589305E+03  0.00000000000E+00 0. -1.
         13    1    5    5    0    0  0.18680331810E+02  0.16623292799E+02 -0.16187944816E+02  0.29788222796E+02  0.00000000000E+00 0. -1.
        -14    1    5    5    0    0 -0.54365688482E+02 -0.62054941017E+01  0.16832429839E+02  0.57249165369E+02  0.00000000000E+00 0.  1.
          5    1    4    4  501    0 -0.59173114199E+02 -0.17779325678E+02 -0.88423308132E+02  0.10795237694E+03  0.41800000000E+01 0.  1.
         -5    1    4    4    0  501  0.52735902384E+02 -0.26144554453E+02 -0.22092507099E+03  0.22867000791E+03  0.41800000000E+01 0.  1.
</event>
<event>
11    1  0.8039394E-009  0.2439897E+03  0.7561462E-02  0.1027151E+00
         22   -1    0    0    0    0  0.00000000000E+00  0.00000000000E+00  0.36619786487E+03  0.36619786487E+03  0.00000000000E+00 0.  1.
         22   -1    0    0    0    0 -0.00000000000E+00 -0.00000000000E+00 -0.90642265877E+03  0.90642265877E+03  0.00000000000E+00 0. -1.
         24    2    1    2    0    0 -0.17528400751E+03 -0.12463483972E+03 -0.68037414702E+03  0.71806402647E+03  0.80303422117E+02 0.  0.
         25    2    1    2    0    0  0.99145418558E+02  0.17777730268E+03 -0.11935085307E+03  0.26707426515E+03  0.12509777620E+03 0.  0.
        -24    2    1    2    0    0  0.76138588955E+02 -0.53142462954E+02  0.25950020619E+03  0.28748223201E+03  0.81758611861E+02 0.  0.
        -11    1    3    3    0    0 -0.41455814606E+01 -0.10028696323E+02 -0.12933357908E+03  0.12978803979E+03  0.00000000000E+00 0.  1.
         12    1    3    3    0    0 -0.17113842605E+03 -0.11460614340E+03 -0.55104056794E+03  0.58827598667E+03  0.00000000000E+00 0. -1.
         11    1    5    5    0    0  0.20275625405E+02 -0.11894854888E+01  0.38237988842E+01  0.20667300240E+02  0.00000000000E+00 0. -1.
        -12    1    5    5    0    0  0.55862963550E+02 -0.51952977466E+02  0.25567640731E+03  0.26681493177E+03  0.00000000000E+00 0.  1.
          5    1    4    4  501    0  0.35440059895E+02 -0.11766823649E+01  0.10171369126E+02  0.37125618872E+02  0.41800000000E+01 0. -1.
         -5    1    4    4    0  501  0.63705358664E+02  0.17895398504E+03 -0.12952222220E+03  0.22994864628E+03  0.41800000000E+01 0. -1.
</event>
<event>
11    1  0.8039394E-009  0.1725672E+03  0.7561462E-02  0.1075819E+00
         22   -1    0    0    0    0  0.00000000000E+00  0.00000000000E+00  0.41138525959E+03  0.41138525959E+03  0.00000000000E+00 0. -1.
         22   -1    0    0    0    0 -0.00000000000E+00 -0.00000000000E+00 -0.59248972591E+03  0.59248972591E+03  0.00000000000E+00 0.  1.
        -24    2    1    2    0    0 -0.22814552458E+02 -0.33313461563E+02 -0.45285192376E+03  0.46205032709E+03  0.82373232213E+02 0.  0.
         25    2    1    2    0    0  0.35378778176E+02  0.14746443193E+03 -0.39141848580E+02  0.20044039525E+03  0.12508737390E+03 0.  0.
         24    2    1    2    0    0 -0.12564225717E+02 -0.11415097037E+03  0.31088930602E+03  0.34138426315E+03  0.81870328742E+02 0.  0.
        -11    1    5    5    0    0  0.21909558931E+02 -0.12374136801E+01  0.65371630248E+02  0.68956580588E+02  0.00000000000E+00 0.  1.
         12    1    5    5    0    0 -0.34473784648E+02 -0.11291355669E+03  0.24551767577E+03  0.27242768256E+03  0.00000000000E+00 0. -1.
         11    1    3    3    0    0  0.31592101410E+01  0.26398737471E+02 -0.12573715784E+03  0.12851734051E+03  0.00000000000E+00 0. -1.
        -12    1    3    3    0    0 -0.25973762599E+02 -0.59712199035E+02 -0.32711476592E+03  0.33353298658E+03  0.00000000000E+00 0.  1.
          5    1    4    4  501    0  0.79666327741E+02  0.65217703473E+02 -0.22379518122E+02  0.10544376631E+03  0.41800000000E+01 0.  1.
         -5    1    4    4    0  501 -0.44287549565E+02  0.82246728459E+02 -0.16762330457E+02  0.94996628946E+02  0.41800000000E+01 0.  1.
</event>
<event>
11    1  0.8039394E-009  0.1555354E+03  0.7561462E-02  0.1091353E+00
         22   -1    0    0    0    0  0.00000000000E+00  0.00000000000E+00  0.38211757805E+02  0.38211757805E+02  0.00000000000E+00 0. -1.
         22   -1    0    0    0    0 -0.00000000000E+00 -0.00000000000E+00 -0.38447517388E+04  0.38447517388E+04  0.00000000000E+00 0. -1.
        -24    2    1    2    0    0  0.46876302931E+01  0.46266666827E+01 -0.28514157823E+04  0.28525290472E+04  0.79414242691E+02 0.  0.
         25    2    1    2    0    0 -0.88272125107E+02  0.34155300599E+02 -0.86547941522E+03  0.87958054340E+03  0.12509500995E+03 0.  0.
         24    2    1    2    0    0  0.83584494814E+02 -0.38781967282E+02 -0.89644783454E+02  0.15085390594E+03  0.78932280961E+02 0.  0.
        -11    1    5    5    0    0  0.53920500362E+02  0.18107105883E+02 -0.36929967871E+02  0.67816739598E+02  0.00000000000E+00 0.  1.
         12    1    5    5    0    0  0.29663994452E+02 -0.56889073165E+02 -0.52714815583E+02  0.83037166344E+02  0.00000000000E+00 0. -1.
         13    1    3    3    0    0  0.34086084999E+02 -0.14809189471E+02 -0.20523663645E+04  0.20527028200E+04  0.00000000000E+00 0. -1.
        -14    1    3    3    0    0 -0.29398454706E+02  0.19435856153E+02 -0.79904941779E+03  0.79982622720E+03  0.00000000000E+00 0.  1.
          5    1    4    4  501    0 -0.77466386426E+02  0.78872326621E+02 -0.61972654874E+03  0.62952390944E+03  0.41800000000E+01 0. -1.
         -5    1    4    4    0  501 -0.10805738681E+02 -0.44717026022E+02 -0.24575286648E+03  0.25005663396E+03  0.41800000000E+01 0. -1.
</event>
<event>
11    1  0.8039394E-009  0.2136050E+03  0.7561462E-02  0.1045299E+00
         22   -1    0    0    0    0  0.00000000000E+00  0.00000000000E+00  0.14077309666E+04  0.14077309666E+04  0.00000000000E+00 0. -1.
         22   -1    0    0    0    0 -0.00000000000E+00 -0.00000000000E+00 -0.14266008180E+04  0.14266008180E+04  0.00000000000E+00 0. -1.
         24    2    1    2    0    0 -0.55265436223E+02  0.16474129153E+03 -0.13308746368E+04  0.13446895367E+04  0.82272047743E+02 0.  0.
         25    2    1    2    0    0  0.14037754063E+03 -0.12050243457E+03  0.59773914092E+02  0.23118849512E+03  0.12509399993E+03 0.  0.
        -24    2    1    2    0    0 -0.85112104411E+02 -0.44238856958E+02  0.12522308713E+04  0.12584537527E+04  0.80140788083E+02 0.  0.
        -11    1    3    3    0    0 -0.51329440655E+02  0.13552640290E+03 -0.80161348537E+03  0.81460806361E+03  0.00000000000E+00 0.  1.
         12    1    3    3    0    0 -0.39359955682E+01  0.29214888623E+02 -0.52926115140E+03  0.53008147314E+03  0.00000000000E+00 0. -1.
         11    1    5    5    0    0 -0.53215087702E+02 -0.66539763619E+02  0.92528928181E+03  0.92920376707E+03  0.00000000000E+00 0. -1.
        -12    1    5    5    0    0 -0.31897016709E+02  0.22300906661E+02  0.32694158944E+03  0.32924998560E+03  0.00000000000E+00 0.  1.
          5    1    4    4  501    0  0.60878693440E+01  0.20024804273E+02  0.26361577665E+02  0.33918433282E+02  0.41800000000E+01 0.  1.
         -5    1    4    4    0  501  0.13428967129E+03 -0.14052723884E+03  0.33412336427E+02  0.19727006184E+03  0.41800000000E+01 0.  1.
</event>
<event>
11    1  0.8039394E-009  0.1663936E+03  0.7561462E-02  0.1081213E+00
         22   -1    0    0    0    0  0.00000000000E+00  0.00000000000E+00  0.20105047091E+04  0.20105047091E+04  0.00000000000E+00 0.  1.
         22   -1    0    0    0    0 -0.00000000000E+00 -0.00000000000E+00 -0.79386523755E+02  0.79386523755E+02  0.00000000000E+00 0.  1.
         24    2    1    2    0    0 -0.19748573768E+02 -0.88263516354E+01 -0.19638459026E+02  0.85107151801E+02  0.79935271100E+02 0.  0.
         25    2    1    2    0    0 -0.42713303787E+02  0.99437011241E+02  0.25750603878E+03  0.30607104308E+03  0.12513184200E+03 0.  0.
        -24    2    1    2    0    0  0.62461877555E+02 -0.90610659605E+02  0.16932506056E+04  0.16987130380E+04  0.80103646930E+02 0.  0.
        -13    1    3    3    0    0  0.11638609392E+02 -0.66932669397E+00 -0.43377783978E+02  0.44917005350E+02  0.00000000000E+00 0.  1.
         14    1    3    3    0    0 -0.31387183160E+02 -0.81570249414E+01  0.23739324952E+02  0.40190146451E+02  0.00000000000E+00 0. -1.
         11    1    5    5    0    0 -0.15657913650E+02 -0.71182811127E+01  0.41578290422E+03  0.41613851495E+03  0.00000000000E+00 0. -1.
        -12    1    5    5    0    0  0.78119791205E+02 -0.83492378493E+02  0.12774677014E+04  0.12825745231E+04  0.00000000000E+00 0.  1.
          5    1    4    4  501    0  0.31221595778E+02  0.44183380760E+01  0.11575010323E+03  0.12004111192E+03  0.41800000000E+01 0.  1.
         -5    1    4    4    0  501 -0.73934899565E+02  0.95018673165E+02  0.14175593555E+03  0.18602993116E+03  0.41800000000E+01 0.  1.
</event>
<event>
11    1  0.8039394E-009  0.1849198E+03  0.7561462E-02  0.1065731E+00
         22   -1    0    0    0    0  0.00000000000E+00  0.00000000000E+00  0.11819136928E+04  0.11819136928E+04  0.00000000000E+00 0.  1.
         22   -1    0    0    0    0 -0.00000000000E+00 -0.00000000000E+00 -0.25799019917E+03  0.25799019917E+03  0.00000000000E+00 0.  1.
        -24    2    1    2    0    0  0.10571118333E+03 -0.58999505398E+02 -0.13509898331E+03  0.19873678968E+03  0.81171302577E+02 0.  0.
         25    2    1    2    0    0 -0.21821187961E+03  0.90554116120E+02  0.12206162457E+03  0.29387818075E+03  0.12509545388E+03 0.  0.
         24    2    1    2    0    0  0.11250069628E+03 -0.31554610722E+02  0.93696085233E+03  0.94728892148E+03  0.76213921592E+02 0.  0.
        -13    1    5    5    0    0  0.96269529034E+02 -0.30463488677E+02  0.91149277138E+03  0.91706865536E+03  0.00000000000E+00 0.  1.
         14    1    5    5    0    0  0.16231167243E+02 -0.10911220443E+01  0.25468080955E+02  0.30220266129E+02  0.00000000000E+00 0. -1.
         13    1    3    3    0    0  0.11076738101E+00 -0.44135520521E+01  0.10135823444E+02  0.11055615225E+02  0.00000000000E+00 0. -1.
        -14    1    3    3    0    0  0.10560041595E+03 -0.54585953346E+02 -0.14523480675E+03  0.18768117446E+03  0.00000000000E+00 0.  1.
          5    1    4    4  501    0 -0.14240489400E+03  0.12639947978E+02  0.19467904829E+02  0.14434470492E+03  0.41800000000E+01 0. -1.
         -5    1    4    4    0  501 -0.75806985609E+02  0.77914168142E+02  0.10259371974E+03  0.14953347583E+03  0.41800000000E+01 0. -1.
</event>
<event>
11    1  0.8039394E-009  0.1581746E+03  0.7561462E-02  0.1088807E+00
         22   -1    0    0    0    0  0.00000000000E+00  0.00000000000E+00  0.24178294567E+04  0.24178294567E+04  0.00000000000E+00 0. -1.
         22   -1    0    0    0    0 -0.00000000000E+00 -0.00000000000E+00 -0.13355460851E+03  0.13355460851E+03  0.00000000000E+00 0.  1.
        -24    2    1    2    0    0 -0.97028136040E+02  0.10888939841E+02 -0.77851054304E+02  0.14947111157E+03  0.82144983672E+02 0.  0.
         25    2    1    2    0    0  0.91098890202E+02  0.10744831432E+02  0.29677435571E+03  0.33486655244E+03  0.12508449358E+03 0.  0.
         24    2    1    2    0    0  0.59292458384E+01 -0.21633771273E+02  0.20653515468E+04  0.20670464012E+04  0.80626527614E+02 0.  0.
        -13    1    5    5    0    0  0.43333835704E+02 -0.10310997884E+02  0.10596042588E+04  0.10605401092E+04  0.00000000000E+00 0.  1.
         14    1    5    5    0    0 -0.37404589866E+02 -0.11322773388E+02  0.10057472880E+04  0.10065062920E+04  0.00000000000E+00 0. -1.
         13    1    3    3    0    0 -0.93708141086E+00  0.22189713614E+02  0.42090428313E+01  0.22604812616E+02  0.00000000000E+00 0. -1.
        -14    1    3    3    0    0 -0.96091054629E+02 -0.11300773773E+02 -0.82060097136E+02  0.12686629895E+03  0.00000000000E+00 0.  1.
          5    1    4    4  501    0 -0.27714783870E+02  0.13772501353E+02  0.10182116473E+03  0.10650264328E+03  0.41800000000E+01 0.  1.
         -5    1    4    4    0  501  0.11881367407E+03 -0.30276699206E+01  0.19495319098E+03  0.22836390915E+03  0.41800000000E+01 0.  1.
</event>
<event>
11    1  0.8039394E-009  0.1960441E+03  0.7561462E-02  0.1057357E+00
         22   -1    0    0    0    0  0.00000000000E+00  0.00000000000E+00  0.11721951888E+04  0.11721951888E+04  0.00000000000E+00 0.  1.
         22   -1    0    0    0    0 -0.00000000000E+00 -0.00000000000E+00 -0.66820547361E+03  0.66820547361E+03  0.00000000000E+00 0.  1.
        -24    2    1    2    0    0  0.21596315447E+02 -0.46525041598E+02 -0.61759503956E+03  0.62507480044E+03  0.81632670619E+02 0.  0.
         25    2    1    2    0    0 -0.64834414464E+01 -0.11201776094E+03  0.14304767575E+03  0.22066600223E+03  0.12506331686E+03 0.  0.
         24    2    1    2    0    0 -0.15112874001E+02  0.15854280254E+03  0.97853707905E+03  0.99465985978E+03  0.80306926195E+02 0.  0.
        -13    1    5    5    0    0 -0.89945260175E+01  0.15704149214E+03  0.97464064751E+03  0.98725241126E+03  0.00000000000E+00 0.  1.
         14    1    5    5    0    0 -0.61183479834E+01  0.15013104012E+01  0.38964315388E+01  0.74074485286E+01  0.00000000000E+00 0. -1.
         13    1    3    3    0    0 -0.12625573540E+02  0.17361345235E+02 -0.20923065080E+03  0.21032899622E+03  0.00000000000E+00 0. -1.
        -14    1    3    3    0    0  0.34221888987E+02 -0.63886386834E+02 -0.40836438876E+03  0.41474580422E+03  0.00000000000E+00 0.  1.
          5    1    4    4  501    0 -0.59634812868E+02 -0.27762707981E+02  0.75547220176E+02  0.10025933242E+03  0.41800000000E+01 0.  1.
         -5    1    4    4    0  501  0.53151371422E+02 -0.84255052962E+02  0.67500455575E+02  0.12040666982E+03  0.41800000000E+01 0.  1.
</event>
<event>
11    1  0.8039394E-009  0.2024638E+03  0.7561462E-02  0.1052795E+00
         22   -1    0    0    0    0  0.00000000000E+00  0.00000000000E+00  0.16307727745E+03  0.16307727745E+03  0.00000000000E+00 0. -1.
         22   -1    0    0    0    0 -0.00000000000E+00 -0.00000000000E+00 -0.92157028867E+03  0.92157028867E+03  0.00000000000E+00 0.  1.
        -24    2    1    2    0    0 -0.72005652865E+00 -0.99931411800E+02 -0.33783367981E+03  0.36089073538E+03  0.78254214715E+02 0.  0.
         25    2    1    2    0    0 -0.32215186861E+02  0.24474802345E+03 -0.47189495804E+03  0.54705697739E+03  0.12508825619E+03 0.  0.
         24    2    1    2    0    0  0.32935243390E+02 -0.14481661166E+03  0.51235626625E+02  0.17669985335E+03  0.80877484319E+02 0.  0.
        -11    1    5    5    0    0  0.33862200906E+02 -0.17430530338E+02  0.27850393118E+02  0.47181738363E+02  0.00000000000E+00 0.  1.
         12    1    5    5    0    0 -0.92695751643E+00 -0.12738608132E+03  0.23385233507E+02  0.12951811499E+03  0.00000000000E+00 0. -1.
         11    1    3    3    0    0 -0.28257298839E+02 -0.45199801302E+02 -0.81855005626E+02  0.97681824929E+02  0.00000000000E+00 0. -1.
        -12    1    3    3    0    0  0.27537242311E+02 -0.54731610498E+02 -0.25597867418E+03  0.26320891045E+03  0.00000000000E+00 0.  1.
          5    1    4    4  501    0 -0.69575823936E+02  0.77170202965E+02 -0.15573512603E+03  0.18726168157E+03  0.41800000000E+01 0. -1.
         -5    1    4    4    0  501  0.37360637074E+02  0.16757782049E+03 -0.31615983201E+03  0.35979529582E+03  0.41800000000E+01 0. -1.
</event>
<event>
11    1  0.8039394E-009  0.1489399E+03  0.7561462E-02  0.1097967E+00
         22   -1    0    0    0    0  0.00000000000E+00  0.00000000000E+00  0.28271192262E+03  0.28271192262E+03  0.00000000000E+00 0. -1.
         22   -1    0    0    0    0 -0.00000000000E+00 -0.00000000000E+00 -0.56806776744E+03  0.56806776744E+03  0.00000000000E+00 0.  1.
         24    2    1    2    0    0 -0.91775716935E+01 -0.26879905863E+02 -0.28944553554E+03  0.30187048207E+03  0.80872200031E+02 0.  0.
         25    2    1    2    0    0 -0.13146389538E+02  0.10349162752E+03 -0.23463414383E+03  0.28562751554E+03  0.12508617691E+03 0.  0.
        -24    2    1    2    0    0  0.22323961232E+02 -0.76611721658E+02  0.23872383456E+03  0.26328169246E+03  0.77204049493E+02 0.  0.
        -13    1    3    3    0    0  0.22311180210E+02 -0.44385333812E+02 -0.16547772524E+03  0.17277362116E+03  0.00000000000E+00 0.  1.
         14    1    3    3    0    0 -0.31488751903E+02  0.17505427949E+02 -0.12396781031E+03  0.12909686091E+03  0.00000000000E+00 0. -1.
         11    1    5    5    0    0  0.24126261066E+02 -0.87776643237E+02  0.23389323854E+03  0.25098378953E+03  0.00000000000E+00 0. -1.
        -12    1    5    5    0    0 -0.18022998339E+01  0.11164921579E+02  0.48305960114E+01  0.12297902926E+02  0.00000000000E+00 0.  1.
          5    1    4    4  501    0  0.30269849119E+02  0.10067583919E+03 -0.10425177121E+03  0.14811412007E+03  0.41800000000E+01 0. -1.
         -5    1    4    4    0  501 -0.43416238657E+02  0.28157883288E+01 -0.13038237262E+03  0.13751339547E+03  0.41800000000E+01 0. -1.
</event>
<event>
11    1  0.8039394E-009  0.1754350E+03  0.7561462E-02  0.1073396E+00
         22   -1    0    0    0    0  0.00000000000E+00  0.00000000000E+00  0.36644609163E+03  0.36644609163E+03  0.00000000000E+00 0.  1.
         22   -1    0    0    0    0 -0.00000000000E+00 -0.00000000000E+00 -0.14141120892E+04  0.14141120892E+04  0.00000000000E+00 0. -1.
         24    2    1    2    0    0 -0.12535086347E+03  0.14881064326E+02 -0.13265130725E+04  0.13349192129E+04  0.80237700920E+02 0.  0.
         25    2    1    2    0    0  0.70840531375E+02  0.25232932745E+02 -0.16656647163E+01  0.14596281899E+03  0.12508912146E+03 0.  0.
        -24    2    1    2    0    0  0.54510332093E+02 -0.40113997070E+02  0.28051273958E+03  0.29967614892E+03  0.80857208058E+02 0.  0.
        -11    1    3    3    0    0 -0.74427903591E+02  0.27571741129E+02 -0.45835324395E+03  0.46517460161E+03  0.00000000000E+00 0.  1.
         12    1    3    3    0    0 -0.50922959877E+02 -0.12690676803E+02 -0.86815982850E+03  0.86974461133E+03  0.00000000000E+00 0. -1.
         13    1    5    5    0    0  0.44733479688E+02 -0.10980535052E+02  0.53516624894E+02  0.70609386735E+02  0.00000000000E+00 0. -1.
        -14    1    5    5    0    0  0.97768524052E+01 -0.29133462018E+02  0.22699611469E+03  0.22906676218E+03  0.00000000000E+00 0.  1.
          5    1    4    4  501    0 -0.32000629066E+02 -0.86518977384E+01  0.14464294067E+02  0.36408567645E+02  0.41800000000E+01 0.  1.
         -5    1    4    4    0  501  0.10284116044E+03  0.33884830483E+02 -0.16129958784E+02  0.10955425135E+03  0.41800000000E+01 0.  1.
</event>
<event>
11    1  0.8039394E-009  0.1385050E+03  0.7561462E-02  0.1109239E+00
         22   -1    0    0    0    0  0.00000000000E+00  0.00000000000E+00  0.18886759304E+04  0.18886759304E+04  0.00000000000E+00 0.  1.
         22   -1    0    0    0    0 -0.00000000000E+00 -0.00000000000E+00 -0.15422004668E+04  0.15422004668E+04  0.00000000000E+00 0. -1.
        -24    2    1    2    0    0  0.26402085676E+02 -0.39848929943E+01 -0.14485687709E+04  0.14512884061E+04  0.84697132158E+02 0.  0.
         25    2    1    2    0    0  0.29812833568E+02 -0.16579561432E+02 -0.44657601219E+02  0.13713200083E+03  0.12508875810E+03 0.  0.
         24    2    1    2    0    0 -0.56214919244E+02  0.20564454427E+02  0.18397018357E+04  0.18424559903E+04  0.80982823538E+02 0.  0.
        -11    1    5    5    0    0  0.17600864886E+02  0.20130459247E+02  0.44652966904E+03  0.44732960015E+03  0.00000000000E+00 0.  1.
         12    1    5    5    0    0 -0.73815784130E+02  0.43399517923E+00  0.13931721667E+04  0.13951263901E+04  0.00000000000E+00 0. -1.
         13    1    3    3    0    0 -0.27515281746E+02  0.18777731346E+01 -0.79320978494E+03  0.79368909510E+03  0.00000000000E+00 0. -1.
        -14    1    3    3    0    0  0.53917367422E+02 -0.58626661289E+01 -0.65535898596E+03  0.65759931101E+03  0.00000000000E+00 0.  1.
          5    1    4    4  501    0  0.78727030491E+02 -0.13377906797E+02 -0.21791857855E+02  0.82881066528E+02  0.41800000000E+01 0. -1.
         -5    1    4    4    0  501 -0.48914196923E+02 -0.32016546355E+01 -0.22865743365E+02  0.54250934302E+02  0.41800000000E+01 0. -1.
</event>
<event>
11    1  0.8039394E-009  0.1647781E+03  0.7561462E-02  0.1082667E+00
         22   -1    0    0    0    0  0.00000000000E+00  0.00000000000E+00  0.53297227095E+03  0.53297227095E+03  0.00000000000E+00 0. -1.
         22   -1    0    0    0    0 -0.00000000000E+00 -0.00000000000E+00 -0.35146626343E+03  0.35146626343E+03  0.00000000000E+00 0. -1.
         24    2    1    2    0    0 -0.55968236493E+01  0.10449134678E+03 -0.24497824906E+03  0.27789269258E+03  0.79121679006E+02 0.  0.
         25    2    1    2    0    0  0.32175572253E+02 -0.11961388150E+03  0.49131465965E+01  0.17611025731E+03  0.12509170885E+03 0.  0.
        -24    2    1    2    0    0 -0.26578748604E+02  0.15122534721E+02  0.42157110999E+03  0.43043558448E+03  0.81347837577E+02 0.  0.
        -13    1    3    3    0    0  0.11213172077E+02 -0.13807428338E+01 -0.92683284276E+00  0.11335814833E+02  0.00000000000E+00 0.  1.
         14    1    3    3    0    0 -0.16809995726E+02  0.10587208962E+03 -0.24405141622E+03  0.26655687775E+03  0.00000000000E+00 0. -1.
         11    1    5    5    0    0 -0.53428200609E+02  0.26187474998E+01  0.20567735227E+03  0.21251965484E+03  0.00000000000E+00 0. -1.
        -12    1    5    5    0    0  0.26849452006E+02  0.12503787221E+02  0.21589375772E+03  0.21791592964E+03  0.00000000000E+00 0.  1.
          5    1    4    4  501    0 -0.14118527294E+02  0.11843819966E+02  0.28998128227E+02  0.34611742589E+02  0.41800000000E+01 0.  1.
         -5    1    4    4    0  501  0.46294099547E+02 -0.13145770147E+03 -0.24084981631E+02  0.14149851472E+03  0.41800000000E+01 0.  1.
</event>
<event>
11    1  0.8039394E-009  0.3169808E+03  0.7561462E-02  0.9932501E-01
         22   -1    0    0    0    0  0.00000000000E+00  0.00000000000E+00  0.12731048661E+04  0.12731048661E+04  0.00000000000E+00 0.  1.
         22   -1    0    0    0    0 -0.00000000000E+00 -0.00000000000E+00 -0.15007460788E+04  0.15007460788E+04  0.00000000000E+00 0.  1.
        -24    2    1    2    0    0 -0.11950163829E+03 -0.26605148324E+03 -0.14483458019E+04  0.14796049183E+04  0.80381087868E+02 0.  0.
         25    2    1    2    0    0  0.89857016579E+02  0.25965534494E+03  0.64581857888E+03  0.71289903963E+03  0.12509285470E+03 0.  0.
         24    2    1    2    0    0  0.29644621707E+02  0.63961382970E+01  0.57488601035E+03  0.58134698690E+03  0.80936271874E+02 0.  0.
        -13    1    5    5    0    0  0.48526802720E+02 -0.19189674062E+02  0.28654457244E+03  0.29125742251E+03  0.00000000000E+00 0.  1.
         14    1    5    5    0    0 -0.18882181012E+02  0.25585812359E+02  0.28834143790E+03  0.29008956439E+03  0.00000000000E+00 0. -1.
         11    1    3    3    0    0 -0.93233838744E+01 -0.58575561629E+02 -0.45552716004E+03  0.45937241476E+03  0.00000000000E+00 0. -1.
        -12    1    3    3    0    0 -0.11017825441E+03 -0.20747592161E+03 -0.99281864183E+03  0.10202325036E+04  0.00000000000E+00 0.  1.
          5    1    4    4  501    0  0.71672061950E+02  0.23292120537E+03  0.63221846861E+03  0.67757422975E+03  0.41800000000E+01 0. -1.
         -5    1    4    4    0  501  0.18184954628E+02  0.26734139579E+02  0.13600110274E+02  0.35324809884E+02  0.41800000000E+01 0. -1.
</event>
<event>
11    1  0.8039394E-009  0.1516874E+03  0.7561462E-02  0.1095167E+00
         22   -1    0    0    0    0  0.00000000000E+00  0.00000000000E+00  0.16806538512E+03  0.16806538512E+03  0.00000000000E+00 0. -1.
         22   -1    0    0    0    0 -0.00000000000E+00 -0.00000000000E+00 -0.18412893842E+04  0.18412893842E+04  0.00000000000E+00 0.  1.
         24    2    1    2    0    0  0.22979378762E+02  0.78564244688E+02 -0.13030231977E+04  0.13100935017E+04  0.10851330331E+03 0.  0.
         25    2    1    2    0    0  0.29286930595E+02 -0.10969368712E+03 -0.50274889761E+03  0.53037209544E+03  0.12509067221E+03 0.  0.
        -24    2    1    2    0    0 -0.52266309357E+02  0.31129442429E+02  0.13254809629E+03  0.16888917214E+03  0.85168922484E+02 0.  0.
        -11    1    3    3    0    0  0.23300333014E+02  0.83262814792E+02 -0.13024869655E+04  0.13053535526E+04  0.00000000000E+00 0.  1.
         12    1    3    3    0    0 -0.32095425175E+00 -0.46985701048E+01 -0.53623218587E+00  0.47399491156E+01  0.00000000000E+00 0. -1.
         13    1    5    5    0    0 -0.64508535754E+02  0.47117896055E+02  0.82006427074E+02  0.11448362938E+03  0.00000000000E+00 0. -1.
        -14    1    5    5    0    0  0.12242226397E+02 -0.15988453626E+02  0.50541669215E+02  0.54405542765E+02  0.00000000000E+00 0.  1.
          5    1    4    4  501    0  0.39711802702E+02  0.15743197831E+02 -0.13458948490E+03  0.14126810468E+03  0.41800000000E+01 0. -1.
         -5    1    4    4    0  501 -0.10424872107E+02 -0.12543688495E+03 -0.36815941271E+03  0.38910399077E+03  0.41800000000E+01 0. -1.
</event>
<event>
11    1  0.8039394E-009  0.1684453E+03  0.7561462E-02  0.1079393E+00
         22   -1    0    0    0    0  0.00000000000E+00  0.00000000000E+00  0.22272972546E+04  0.22272972546E+04  0.00000000000E+00 0.  1.
         22   -1    0    0    0    0 -0.00000000000E+00 -0.00000000000E+00 -0.63372611427E+03  0.63372611427E+03  0.00000000000E+00 0. -1.
        -24    2    1    2    0    0 -0.35606668372E+02 -0.10455898199E+03 -0.53117489676E+03  0.55094616041E+03  0.95887878165E+02 0.  0.
         25    2    1    2    0    0  0.36519688921E+02  0.12987789900E+03  0.31430525153E+00  0.18398416996E+03  0.12509244454E+03 0.  0.
         24    2    1    2    0    0 -0.91302054881E+00 -0.25318917011E+02  0.21244317318E+04  0.21260930385E+04  0.80122056281E+02 0.  0.
        -13    1    5    5    0    0 -0.29538208070E+02 -0.39082137888E+02  0.15593833990E+04  0.15601527182E+04  0.00000000000E+00 0.  1.
         14    1    5    5    0    0  0.28625187521E+02  0.13763220878E+02  0.56504833285E+03  0.56594032023E+03  0.00000000000E+00 0. -1.
         11    1    3    3    0    0 -0.15760727697E+02  0.50541030708E+00 -0.24405148918E+03  0.24456039202E+03  0.00000000000E+00 0. -1.
        -12    1    3    3    0    0 -0.19845940675E+02 -0.10506439230E+03 -0.28712340758E+03  0.30638576839E+03  0.00000000000E+00 0.  1.
          5    1    4    4  501    0 -0.40591083785E+02  0.41112193835E+02 -0.25886526385E+02  0.63446301808E+02  0.41800000000E+01 0. -1.
         -5    1    4    4    0  501  0.77110772706E+02  0.88765705165E+02  0.26200831637E+02  0.12053786815E+03  0.41800000000E+01 0. -1.
</event>
<event>
11    1  0.8039394E-009  0.1931769E+03  0.7561462E-02  0.1059456E+00
         22   -1    0    0    0    0  0.00000000000E+00  0.00000000000E+00  0.52230229272E+03  0.52230229272E+03  0.00000000000E+00 0.  1.
         22   -1    0    0    0    0 -0.00000000000E+00 -0.00000000000E+00 -0.18642357691E+04  0.18642357691E+04  0.00000000000E+00 0. -1.
         24    2    1    2    0    0  0.72446925111E+02  0.34184410454E+02 -0.17631728615E+04  0.17669534821E+04  0.83240239979E+02 0.  0.
         25    2    1    2    0    0 -0.70168762636E+02 -0.17476325700E+03  0.76344574921E+02  0.23863078002E+03  0.12510117428E+03 0.  0.
        -24    2    1    2    0    0 -0.22781624751E+01  0.14057884655E+03  0.34489481022E+03  0.38095379965E+03  0.80036024574E+02 0.  0.
        -13    1    3    3    0    0  0.45718449479E+02 -0.48460426931E+01 -0.35221665094E+03  0.35520449033E+03  0.00000000000E+00 0.  1.
         14    1    3    3    0    0  0.26728475632E+02  0.39030453148E+02 -0.14109562106E+04  0.14117489918E+04  0.00000000000E+00 0. -1.
         11    1    5    5    0    0  0.13679855949E+02 -0.26726143596E+00  0.73593946695E+02  0.74855052452E+02  0.00000000000E+00 0. -1.
        -12    1    5    5    0    0 -0.15958018425E+02  0.14084610798E+03  0.27130086353E+03  0.30609874720E+03  0.00000000000E+00 0.  1.
          5    1    4    4  501    0 -0.93604787058E+02 -0.15779833361E+03  0.33174346355E+02  0.18649445007E+03  0.41800000000E+01 0. -1.
         -5    1    4    4    0  501  0.23436024422E+02 -0.16964923391E+02  0.43170228567E+02  0.52136329952E+02  0.41800000000E+01 0. -1.
</event>
<event>
11    1  0.8039394E-009  0.1717683E+03  0.7561462E-02  0.1076503E+00
         22   -1    0    0    0    0  0.00000000000E+00  0.00000000000E+00  0.27200903607E+03  0.27200903607E+03  0.00000000000E+00 0.  1.
         22   -1    0    0    0    0 -0.00000000000E+00 -0.00000000000E+00 -0.86222050763E+03  0.86222050763E+03  0.00000000000E+00 0. -1.
         24    2    1    2    0    0  0.12558181677E+03  0.29396116402E+02 -0.61805582134E+03  0.63650620811E+03  0.80698390960E+02 0.  0.
         25    2    1    2    0    0 -0.90352996660E+02  0.33394283469E+02 -0.19313398816E+03  0.24945472090E+03  0.12509227881E+03 0.  0.
        -24    2    1    2    0    0 -0.35228820115E+02 -0.62790399871E+02  0.22097833794E+03  0.24826861470E+03  0.87305069290E+02 0.  0.
        -11    1    3    3    0    0  0.23542674969E+02  0.35110716042E+02 -0.10173705887E+03  0.11017009155E+03  0.00000000000E+00 0.  1.
         12    1    3    3    0    0  0.10203914181E+03 -0.57145996399E+01 -0.51631876247E+03  0.52633611655E+03  0.00000000000E+00 0. -1.
         11    1    5    5    0    0 -0.44105988997E+02  0.35260320707E+01  0.65944362034E+02  0.79413034520E+02  0.00000000000E+00 0. -1.
        -12    1    5    5    0    0  0.88771688822E+01 -0.66316431941E+02  0.15503397591E+03  0.16885558018E+03  0.00000000000E+00 0.  1.
          5    1    4    4  501    0  0.31805347566E+02  0.67476677651E+01 -0.40480972733E+02  0.52089276319E+02  0.41800000000E+01 0.  1.
         -5    1    4    4    0  501 -0.12215834423E+03  0.26646615704E+02 -0.15265301543E+03  0.19736544458E+03  0.41800000000E+01 0.  1.
</event>
<event>
11    1  0.8039394E-009  0.1337577E+03  0.7561462E-02  0.1114736E+00
         22   -1    0    0    0    0  0.00000000000E+00  0.00000000000E+00  0.44359230580E+03  0.44359230580E+03  0.00000000000E+00 0.  1.
         22   -1    0    0    0    0 -0.00000000000E+00 -0.00000000000E+00 -0.78376761412E+03  0.78376761412E+03  0.00000000000E+00 0. -1.
         24    2    1    2    0    0  0.32443235238E+01  0.25563739586E+02 -0.63779722031E+03  0.64329953857E+03  0.79906017727E+02 0.  0.
         25    2    1    2    0    0  0.32791327685E+02  0.63092613877E+01 -0.10723279440E+03  0.16811244639E+03  0.12509134457E+03 0.  0.
        -24    2    1    2    0    0 -0.36035651209E+02 -0.31873000973E+02  0.40485470639E+03  0.41594793496E+03  0.82406886585E+02 0.  0.
        -13    1    3    3    0    0  0.25539095784E+02 -0.17631037617E+02 -0.15603489046E+03  0.15909112464E+03  0.00000000000E+00 0.  1.
         14    1    3    3    0    0 -0.22294772260E+02  0.43194777202E+02 -0.48176232986E+03  0.48420841392E+03  0.00000000000E+00 0. -1.
         13    1    5    5    0    0  0.66822906663E+01 -0.22932371146E+02  0.29012395430E+02  0.37580124315E+02  0.00000000000E+00 0. -1.
        -14    1    5    5    0    0 -0.42717941876E+02 -0.89406298276E+01  0.37584231096E+03  0.37836781064E+03  0.00000000000E+00 0.  1.
          5    1    4    4  501    0  0.35158978794E+00  0.12346620386E+02  0.26912576219E+02  0.29905213744E+02  0.41800000000E+01 0.  1.
         -5    1    4    4    0  501  0.32439737898E+02 -0.60373589986E+01 -0.13414537062E+03  0.13820723265E+03  0.41800000000E+01 0.  1.
</event>
<event>
11    1  0.8039394E-009  0.1945491E+03  0.7561462E-02  0.1058447E+00
         22   -1    0    0    0    0  0.00000000000E+00  0.00000000000E+00  0.22819176470E+03  0.22819176470E+03  0.00000000000E+00 0. -1.
         22   -1    0    0    0    0 -0.00000000000E+00 -0.00000000000E+00 -0.98640599238E+03  0.98640599238E+03  0.00000000000E+00 0. -1.
         24    2    1    2    0    0  0.66417140606E+00  0.57682951229E+01 -0.21918035976E+03  0.23394039582E+03  0.81574287250E+02 0.  0.
         25    2    1    2    0    0 -0.97592075622E+02  0.10762235214E+03 -0.71248492540E+03  0.73782939637E+03  0.12510261916E+03 0.  0.
        -24    2    1    2    0    0  0.96927904216E+02 -0.11339064726E+03  0.17345105747E+03  0.24282796489E+03  0.81410648532E+02 0.  0.
        -13    1    3    3    0    0  0.34487740147E+02 -0.12114450260E+02 -0.60265459305E+02  0.70484677135E+02  0.00000000000E+00 0.  1.
         14    1    3    3    0    0 -0.33823568741E+02  0.17882745383E+02 -0.15891490045E+03  0.16345571869E+03  0.00000000000E+00 0. -1.
         11    1    5    5    0    0  0.82665971992E+02 -0.51188012509E+02  0.14089197289E+03  0.17118534860E+03  0.00000000000E+00 0. -1.
        -12    1    5    5    0    0  0.14261932224E+02 -0.62202634751E+02  0.32559084580E+02  0.71642616293E+02  0.00000000000E+00 0.  1.
          5    1    4    4  501    0 -0.92409340889E+02  0.13146235463E+03 -0.66645143784E+03  0.68556314688E+03  0.41800000000E+01 0.  1.
         -5    1    4    4    0  501 -0.51827347336E+01 -0.23840002493E+02 -0.46033487562E+02  0.52266249486E+02  0.41800000000E+01 0.  1.
</event>
<event>
11    1  0.8039394E-009  0.1420975E+03  0.7561462E-02  0.1105239E+00
         22   -1    0    0    0    0  0.00000000000E+00  0.00000000000E+00  0.20732156383E+03  0.20732156383E+03  0.00000000000E+00 0. -1.
         22   -1    0    0    0    0 -0.00000000000E+00 -0.00000000000E+00 -0.10992095444E+04  0.10992095444E+04  0.00000000000E+00 0. -1.
         24    2    1    2    0    0 -0.67744396992E+02 -0.14222500041E+02 -0.97862621527E+03  0.98447971284E+03  0.81850185962E+02 0.  0.
         25    2    1    2    0    0  0.35498458441E+02  0.30301224608E+02 -0.62359779511E+02  0.14735599191E+03  0.12508693572E+03 0.  0.
        -24    2    1    2    0    0  0.32245938551E+02 -0.16078724567E+02  0.14909801417E+03  0.17469540353E+03  0.83605862525E+02 0.  0.
        -11    1    3    3    0    0 -0.17349404738E+02  0.12141333772E+02 -0.52513766833E+02  0.56622517937E+02  0.00000000000E+00 0.  1.
         12    1    3    3    0    0 -0.50394992255E+02 -0.26363833812E+02 -0.92611244844E+03  0.92785719490E+03  0.00000000000E+00 0. -1.
         13    1    5    5    0    0  0.39811338816E+02  0.18363731218E+02  0.12369424351E+03  0.13123427601E+03  0.00000000000E+00 0. -1.
        -14    1    5    5    0    0 -0.75654002644E+01 -0.34442455785E+02  0.25403770663E+02  0.43461127523E+02  0.00000000000E+00 0.  1.
          5    1    4    4  501    0  0.56411062615E+00  0.67779683288E+02 -0.18192744241E+01  0.67935159136E+02  0.41800000000E+01 0. -1.
         -5    1    4    4    0  501  0.34934347815E+02 -0.37478458680E+02 -0.60540505087E+02  0.79420832774E+02  0.41800000000E+01 0. -1.
</event>
<event>
11    1  0.8039394E-009  0.1592995E+03  0.7561462E-02  0.1087738E+00
         22   -1    0    0    0    0  0.00000000000E+00  0.00000000000E+00  0.25458975162E+03  0.25458975162E+03  0.00000000000E+00 0. -1.
         22   -1    0    0    0    0 -0.00000000000E+00 -0.00000000000E+00 -0.12628560261E+04  0.12628560261E+04  0.00000000000E+00 0.  1.
         24    2    1    2    0    0  0.96330222235E+02  0.18053112020E+02 -0.10806555832E+04  0.10879863232E+04  0.79324165841E+02 0.  0.
         25    2    1    2    0    0 -0.95135585863E+02 -0.63739642856E+02 -0.12548093481E+03  0.21096151696E+03  0.12508307186E+03 0.  0.
        -24    2    1    2    0    0 -0.11946363716E+01  0.45686530836E+02  0.19787024353E+03  0.21849793762E+03  0.80622758671E+02 0.  0.
        -11    1    3    3    0    0  0.60991031454E+02 -0.24369579011E+02 -0.73731423624E+03  0.74023379095E+03  0.00000000000E+00 0.  1.
         12    1    3    3    0    0  0.35339190780E+02  0.42422691031E+02 -0.34334134698E+03  0.34775253222E+03  0.00000000000E+00 0. -1.
         11    1    5    5    0    0  0.33150748592E+02  0.42793254098E+02  0.15032071610E+03  0.15977031144E+03  0.00000000000E+00 0. -1.
        -12    1    5    5    0    0 -0.34345384964E+02  0.28932767375E+01  0.47549527432E+02  0.58727626188E+02  0.00000000000E+00 0.  1.
          5    1    4    4  501    0 -0.92103106319E+02  0.10961971913E+02 -0.84800458604E+02  0.12574473031E+03  0.41800000000E+01 0.  1.
         -5    1    4    4    0  501 -0.30324795439E+01 -0.74701614769E+02 -0.40680476208E+02  0.85216786643E+02  0.41800000000E+01 0.  1.
</event>
<event>
11    1  0.8039394E-009  0.1325328E+03  0.7561462E-02  0.1116196E+00
         22   -1    0    0    0    0  0.00000000000E+00  0.00000000000E+00  0.52726870450E+03  0.52726870450E+03  0.00000000000E+00 0.  1.
         22   -1    0    0    0    0 -0.00000000000E+00 -0.00000000000E+00 -0.30709067747E+03  0.30709067747E+03  0.00000000000E+00 0.  1.
         24    2    1    2    0    0 -0.17376090969E+02 -0.37540290140E+02 -0.20829403615E+03  0.22725838000E+03  0.80924433031E+02 0.  0.
         25    2    1    2    0    0  0.19834355746E+02  0.54803989256E+02 -0.30187378103E+02  0.14125838543E+03  0.12508307140E+03 0.  0.
        -24    2    1    2    0    0 -0.24582647766E+01 -0.17263699116E+02  0.45865944129E+03  0.46584261655E+03  0.79603906582E+02 0.  0.
        -13    1    3    3    0    0 -0.25302328542E+02 -0.56821460344E+02 -0.10634369001E+03  0.12319848453E+03  0.00000000000E+00 0.  1.
         14    1    3    3    0    0  0.79262375729E+01  0.19281170204E+02 -0.10195034614E+03  0.10405989547E+03  0.00000000000E+00 0. -1.
         11    1    5    5    0    0  0.54666336314E+01 -0.26874290635E+02  0.50277557873E+02  0.57270798895E+02  0.00000000000E+00 0. -1.
        -12    1    5    5    0    0 -0.79248984080E+01  0.96105915190E+01  0.40838188341E+03  0.40857181766E+03  0.00000000000E+00 0.  1.
          5    1    4    4  501    0 -0.46435017866E+02  0.13561855088E+02  0.15189281517E+02  0.50875548848E+02  0.41800000000E+01 0. -1.
         -5    1    4    4    0  501  0.66269373611E+02  0.41242134169E+02 -0.45376659619E+02  0.90382836578E+02  0.41800000000E+01 0. -1.
</event>
<event>
11    1  0.8039394E-009  0.1404609E+03  0.7561462E-02  0.1107045E+00
         22   -1    0    0    0    0  0.00000000000E+00  0.00000000000E+00  0.13954973092E+03  0.13954973092E+03  0.00000000000E+00 0.  1.
         22   -1    0    0    0    0 -0.00000000000E+00 -0.00000000000E+00 -0.66645704966E+03  0.66645704966E+03  0.00000000000E+00 0.  1.
        -24    2    1    2    0    0 -0.52229325324E+02 -0.35307088134E+02 -0.49116887532E+03  0.50173526008E+03  0.80727406907E+02 0.  0.
         25    2    1    2    0    0  0.73509723714E+02  0.13728896547E+02 -0.11605725739E+03  0.18630377232E+03  0.12509055322E+03 0.  0.
         24    2    1    2    0    0 -0.21280398390E+02  0.21578191587E+02  0.80318813971E+02  0.11796774819E+03  0.80912323084E+02 0.  0.
        -13    1    5    5    0    0 -0.19501286250E+02  0.97442294796E+01  0.95885696068E+02  0.98332684719E+02  0.00000000000E+00 0.  1.
         14    1    5    5    0    0 -0.17791121399E+01  0.11833962108E+02 -0.15566882097E+02  0.19635063468E+02  0.00000000000E+00 0. -1.
         11    1    3    3    0    0 -0.59949311373E+02 -0.90421533857E+00 -0.21088375958E+03  0.21924118590E+03  0.00000000000E+00 0. -1.
        -12    1    3    3    0    0  0.77199860486E+01 -0.34402872796E+02 -0.28028511574E+03  0.28249407418E+03  0.00000000000E+00 0.  1.
          5    1    4    4  501    0  0.10986685900E+02  0.17007251656E+02  0.24689921081E+02  0.32202771293E+02  0.41800000000E+01 0. -1.
         -5    1    4    4    0  501  0.62523037814E+02 -0.32783551095E+01 -0.14074717847E+03  0.15410100102E+03  0.41800000000E+01 0. -1.
</event>
<event>
11    1  0.8039394E-009  0.1609518E+03  0.7561462E-02  0.1086186E+00
         22   -1    0    0    0    0  0.00000000000E+00  0.00000000000E+00  0.81470208806E+02  0.81470208806E+02  0.00000000000E+00 0.  1.
         22   -1    0    0    0    0 -0.00000000000E+00 -0.00000000000E+00 -0.12075326694E+04  0.12075326694E+04  0.00000000000E+00 0. -1.
        -24    2    1    2    0    0  0.55051233349E+01  0.52044740514E+02 -0.87410012142E+03  0.87956119506E+03  0.82691669477E+02 0.  0.
         25    2    1    2    0    0 -0.17062633439E+02 -0.13952245746E+03 -0.21259926058E+03  0.28390763194E+03  0.12508976090E+03 0.  0.
         24    2    1    2    0    0  0.11557510104E+02  0.87477716943E+02 -0.39363078631E+02  0.12553405124E+03  0.80146235465E+02 0.  0.
        -11    1    5    5    0    0 -0.31718387044E+02  0.22052759610E+02 -0.20937604573E+01  0.38688035824E+02  0.00000000000E+00 0.  1.
         12    1    5    5    0    0  0.43275897147E+02  0.65424957332E+02 -0.37269318174E+02  0.86846015412E+02  0.00000000000E+00 0. -1.
         13    1    3    3    0    0  0.31355054298E+01  0.70287625100E+02 -0.49051616573E+03  0.49553636646E+03  0.00000000000E+00 0. -1.
        -14    1    3    3    0    0  0.23696179051E+01 -0.18242884587E+02 -0.38358395568E+03  0.38402482860E+03  0.00000000000E+00 0.  1.
          5    1    4    4  501    0 -0.33123223001E+02  0.12082728239E+02 -0.44636585959E+02  0.57035405054E+02  0.41800000000E+01 0.  1.
         -5    1    4    4    0  501  0.16060589562E+02 -0.15160518570E+03 -0.16796267463E+03  0.22687222689E+03  0.41800000000E+01 0.  1.
</event>
<event>
11    1  0.8039394E-009  0.1296080E+03  0.7561462E-02  0.1119752E+00
         22   -1    0    0    0    0  0.00000000000E+00  0.00000000000E+00  0.12087556190E+04  0.12087556190E+04  0.00000000000E+00 0.  1.
         22   -1    0    0    0    0 -0.00000000000E+00 -0.00000000000E+00 -0.31597428485E+03  0.31597428485E+03  0.00000000000E+00 0.  1.
         24    2    1    2    0    0  0.10326813174E+02 -0.27979988452E+01 -0.29514358941E+03  0.30604944314E+03  0.80262391013E+02 0.  0.
         25    2    1    2    0    0 -0.33220731663E+02  0.26038630940E+02  0.31569398793E+03  0.34218790725E+03  0.12509293561E+03 0.  0.
        -24    2    1    2    0    0  0.22893918488E+02 -0.23240632095E+02  0.87223093565E+03  0.87649255349E+03  0.79925795183E+02 0.  0.
        -13    1    3    3    0    0 -0.16422403878E+02  0.28991872470E+02 -0.75715885390E+02  0.82723148628E+02  0.00000000000E+00 0.  1.
         14    1    3    3    0    0  0.26749217052E+02 -0.31789871315E+02 -0.21942770402E+03  0.22332629451E+03  0.00000000000E+00 0. -1.
         13    1    5    5    0    0  0.48591991803E+02 -0.18408592350E+02  0.37604466415E+03  0.37961776483E+03  0.00000000000E+00 0. -1.
        -14    1    5    5    0    0 -0.25698073315E+02 -0.48320397446E+01  0.49618627151E+03  0.49687478867E+03  0.00000000000E+00 0.  1.
          5    1    4    4  501    0 -0.94120089706E+00  0.32290650497E+02  0.30589672825E+03  0.30762615741E+03  0.41800000000E+01 0.  1.
         -5    1    4    4    0  501 -0.32279530766E+02 -0.62520195573E+01  0.97972596858E+01  0.34561749845E+02  0.41800000000E+01 0.  1.
</event>
<event>
11    1  0.8039394E-009  0.1989338E+03  0.7561462E-02  0.1055280E+00
         22   -1    0    0    0    0  0.00000000000E+00  0.00000000000E+00  0.11111059096E+03  0.11111059096E+03  0.00000000000E+00 0.  1.
         22   -1    0    0    0    0 -0.00000000000E+00 -0.00000000000E+00 -0.28633557796E+04  0.28633557796E+04  0.00000000000E+00 0. -1.
         24    2    1    2    0    0 -0.13085539513E+03  0.10511587008E+03 -0.22705794306E+04  0.22781774174E+04  0.79930682191E+02 0.  0.
         25    2    1    2    0    0  0.10542580082E+03 -0.43910587467E+02 -0.54880710802E+03  0.57435090469E+03  0.12508789208E+03 0.  0.
        -24    2    1    2    0    0  0.25429594312E+02 -0.61205282614E+02  0.67141350030E+02  0.12193804839E+03  0.77253969966E+02 0.  0.
        -13    1    3    3    0    0 -0.50831070020E+02  0.43125554303E+02 -0.46395886667E+03  0.46872320305E+03  0.00000000000E+00 0.  1.
         14    1    3    3    0    0 -0.80024325111E+02  0.61990315777E+02 -0.18066205640E+04  0.18094542144E+04  0.00000000000E+00 0. -1.
         11    1    5    5    0    0  0.13357790219E+02 -0.71466620616E+02  0.24943850491E+02  0.76864192568E+02  0.00000000000E+00 0. -1.
        -12    1    5    5    0    0  0.12071804093E+02  0.10261338002E+02  0.42197499539E+02  0.45073855826E+02  0.00000000000E+00 0.  1.
          5    1    4    4  501    0  0.11992743592E+03  0.17858492489E+01 -0.42145328047E+03  0.43820784927E+03  0.41800000000E+01 0. -1.
         -5    1    4    4    0  501 -0.14501635103E+02 -0.45696436716E+02 -0.12735382755E+03  0.13614305543E+03  0.41800000000E+01 0. -1.
</event>
<event>
11    1  0.8039394E-009  0.2297253E+03  0.7561462E-02  0.1035291E+00
         22   -1    0    0    0    0  0.00000000000E+00  0.00000000000E+00  0.13575998559E+03  0.13575998559E+03  0.00000000000E+00 0.  1.
         22   -1    0    0    0    0 -0.00000000000E+00 -0.00000000000E+00 -0.12473583480E+04  0.12473583480E+04  0.00000000000E+00 0.  1.
         24    2    1    2    0    0 -0.87521301115E-01  0.12426513362E+03 -0.61667450405E+03  0.63422889629E+03  0.80728048719E+02 0.  0.
         25    2    1    2    0    0 -0.17287197170E+03 -0.16281363621E+02 -0.48406976720E+03  0.52926359001E+03  0.12508639730E+03 0.  0.
        -24    2    1    2    0    0  0.17295949300E+03 -0.10798377000E+03 -0.10854091157E+02  0.21962584728E+03  0.80883995306E+02 0.  0.
        -11    1    3    3    0    0 -0.56378914346E+00  0.13357215821E+03 -0.51187758024E+03  0.52901842733E+03  0.00000000000E+00 0.  1.
         12    1    3    3    0    0  0.47626784235E+00 -0.93070245900E+01 -0.10479692381E+03  0.10521046895E+03  0.00000000000E+00 0. -1.
         13    1    5    5    0    0  0.81059563666E+02 -0.65625354333E+01 -0.15009992477E+02  0.82698365203E+02  0.00000000000E+00 0. -1.
        -14    1    5    5    0    0  0.91899929337E+02 -0.10142123456E+03  0.41559013196E+01  0.13692748208E+03  0.00000000000E+00 0.  1.
          5    1    4    4  501    0 -0.18896305241E+03  0.17708119115E+00 -0.44838803726E+03  0.48659672306E+03  0.41800000000E+01 0.  1.
         -5    1    4    4    0  501  0.16091080704E+02 -0.16458444812E+02 -0.35681729946E+02  0.42666866955E+02  0.41800000000E+01 0.  1.
</event>
<event>
11    1  0.8039394E-009  0.2019297E+03  0.7561462E-02  0.1053167E+00
         22   -1    0    0    0    0  0.00000000000E+00  0.00000000000E+00  0.26341307624E+03  0.26341307624E+03  0.00000000000E+00 0. -1.
         22   -1    0    0    0    0 -0.00000000000E+00 -0.00000000000E+00 -0.18825125478E+04  0.18825125478E+04  0.00000000000E+00 0.  1.
        -24    2    1    2    0    0 -0.12154508120E+03  0.98604086717E+02 -0.17209491915E+04  0.17298452261E+04  0.78755407379E+02 0.  0.
         25    2    1    2    0    0  0.12937435586E+03 -0.17454055738E+03 -0.20035832989E+02  0.25149649852E+03  0.12508766541E+03 0.  0.
         24    2    1    2    0    0 -0.78292746670E+01  0.75936470660E+02  0.12188555283E+03  0.16458389942E+03  0.80025788591E+02 0.  0.
        -11    1    5    5    0    0  0.25944916745E+02  0.37903054072E+02  0.98330694850E+02  0.10852974598E+03  0.00000000000E+00 0.  1.
         12    1    5    5    0    0 -0.33774191412E+02  0.38033416588E+02  0.23554857984E+02  0.56054153437E+02  0.00000000000E+00 0. -1.
         13    1    3    3    0    0  0.73032884144E+01  0.57921814639E+01 -0.29014179153E+02  0.30474743308E+02  0.00000000000E+00 0. -1.
        -14    1    3    3    0    0 -0.12884836961E+03  0.92811905253E+02 -0.16919350123E+04  0.16993704828E+04  0.00000000000E+00 0.  1.
          5    1    4    4  501    0  0.14233285940E+03 -0.10937738948E+03  0.68923026619E+01  0.17968592719E+03  0.41800000000E+01 0.  1.
         -5    1    4    4    0  501 -0.12958503539E+02 -0.65163167897E+02 -0.26928135651E+02  0.71810571325E+02  0.41800000000E+01 0.  1.
</event>
<event>
11    1  0.8039394E-009  0.2103445E+03  0.7561462E-02  0.1047440E+00
         22   -1    0    0    0    0  0.00000000000E+00  0.00000000000E+00  0.27199059232E+04  0.27199059232E+04  0.00000000000E+00 0.  1.
         22   -1    0    0    0    0 -0.00000000000E+00 -0.00000000000E+00 -0.21128697749E+03  0.21128697749E+03  0.00000000000E+00 0. -1.
         24    2    1    2    0    0  0.57596451587E+02 -0.62177414337E+01 -0.17164208481E+03  0.19914643608E+03  0.82718112790E+02 0.  0.
         25    2    1    2    0    0 -0.20992318097E+03  0.56120180788E+02  0.69677678610E+03  0.74051463105E+03  0.12508721977E+03 0.  0.
        -24    2    1    2    0    0  0.15232672938E+03 -0.49902439354E+02  0.19834842444E+04  0.19915318336E+04  0.79344882017E+02 0.  0.
        -11    1    3    3    0    0  0.19782381879E+02 -0.12172766504E+02  0.61326148563E-01  0.23227626612E+02  0.00000000000E+00 0.  1.
         12    1    3    3    0    0  0.37814069708E+02  0.59550250700E+01 -0.17170341096E+03  0.17591880947E+03  0.00000000000E+00 0. -1.
         13    1    5    5    0    0  0.46692387562E+02 -0.52045168860E+02  0.61125426877E+03  0.61524032682E+03  0.00000000000E+00 0. -1.
        -14    1    5    5    0    0  0.10563434182E+03  0.21427295064E+01  0.13722299756E+04  0.13762915067E+04  0.00000000000E+00 0.  1.
          5    1    4    4  501    0 -0.16221373738E+03  0.93984643556E+02  0.48078698109E+03  0.51606201508E+03  0.41800000000E+01 0.  1.
         -5    1    4    4    0  501 -0.47709443587E+02 -0.37864462768E+02  0.21598980501E+03  0.22445261597E+03  0.41800000000E+01 0.  1.
</event>
<event>
11    1  0.8039394E-009  0.2921940E+03  0.7561462E-02  0.1003550E+00
         22   -1    0    0    0    0  0.00000000000E+00  0.00000000000E+00  0.27397671165E+03  0.27397671165E+03  0.00000000000E+00 0.  1.
         22   -1    0    0    0    0 -0.00000000000E+00 -0.00000000000E+00 -0.61524030445E+03  0.61524030445E+03  0.00000000000E+00 0.  1.
        -24    2    1    2    0    0 -0.25494056128E+03 -0.15765644605E+02 -0.24443260829E+03  0.36122422294E+03  0.74110686858E+02 0.  0.
         25    2    1    2    0    0  0.26987171802E+03  0.68572200849E+02 -0.21588729544E+03  0.37388075347E+03  0.12508638043E+03 0.  0.
         24    2    1    2    0    0 -0.14931156735E+02 -0.52806556244E+02  0.11905631094E+03  0.15411203969E+03  0.81022489343E+02 0.  0.
        -11    1    5    5    0    0 -0.26015335098E+02 -0.35462539183E+02  0.12694775245E+02  0.45777141283E+02  0.00000000000E+00 0.  1.
         12    1    5    5    0    0  0.11084178363E+02 -0.17344017061E+02  0.10636153569E+03  0.10833489841E+03  0.00000000000E+00 0. -1.
         11    1    3    3    0    0 -0.39321762795E+01  0.11888180144E+02 -0.18748987295E+02  0.22545850217E+02  0.00000000000E+00 0. -1.
        -12    1    3    3    0    0 -0.25100838500E+03 -0.27653824749E+02 -0.22568362100E+03  0.33867837273E+03  0.00000000000E+00 0.  1.
          5    1    4    4  501    0  0.12187268939E+03  0.99555358180E+00 -0.27654546679E+02  0.12504475158E+03  0.41800000000E+01 0.  1.
         -5    1    4    4    0  501  0.14799902863E+03  0.67576647267E+02 -0.18823274876E+03  0.24883600189E+03  0.41800000000E+01 0.  1.
</event>
<event>
11    1  0.8039394E-009  0.1396325E+03  0.7561462E-02  0.1107969E+00
         22   -1    0    0    0    0  0.00000000000E+00  0.00000000000E+00  0.29589898046E+04  0.29589898046E+04  0.00000000000E+00 0.  1.
         22   -1    0    0    0    0 -0.00000000000E+00 -0.00000000000E+00 -0.38524069731E+03  0.38524069731E+03  0.00000000000E+00 0. -1.
         24    2    1    2    0    0  0.67576359981E+02 -0.46177007552E+01 -0.30806080232E+03  0.32520260511E+03  0.79166841880E+02 0.  0.
         25    2    1    2    0    0 -0.22029958033E+02  0.64217088686E+01 -0.82656003912E+01  0.12744924773E+03  0.12509369768E+03 0.  0.
        -24    2    1    2    0    0 -0.45546401947E+02 -0.18040081135E+01  0.28900755100E+04  0.28915786491E+04  0.81319746327E+02 0.  0.
        -13    1    3    3    0    0  0.48677640679E+00  0.21063558061E+02 -0.22837420662E+02  0.31071823441E+02  0.00000000000E+00 0.  1.
         14    1    3    3    0    0  0.67089583574E+02 -0.25681258816E+02 -0.28522338166E+03  0.29413078167E+03  0.00000000000E+00 0. -1.
         11    1    5    5    0    0  0.17020915623E+02 -0.94031954348E+01  0.25155354710E+03  0.25230402040E+03  0.00000000000E+00 0. -1.
        -12    1    5    5    0    0 -0.62567317570E+02  0.75991873213E+01  0.26385219629E+04  0.26392746287E+04  0.00000000000E+00 0.  1.
          5    1    4    4  501    0 -0.48545869342E+02 -0.45489578287E+02 -0.15850868635E+02  0.68518067685E+02  0.41800000000E+01 0.  1.
         -5    1    4    4    0  501  0.26515911309E+02  0.51911287155E+02  0.75852682435E+01  0.58931180041E+02  0.41800000000E+01 0.  1.
</event>
<event>
11    1  0.8039394E-009  0.1409492E+03  0.7561462E-02  0.1106503E+00
         22   -1    0    0    0    0  0.00000000000E+00  0.00000000000E+00  0.18284510476E+03  0.18284510476E+03  0.00000000000E+00 0. -1.
         22   -1    0    0    0    0 -0.00000000000E+00 -0.00000000000E+00 -0.22216177820E+04  0.22216177820E+04  0.00000000000E+00 0.  1.
        -24    2    1    2    0    0 -0.51647194673E+02  0.26562123256E+02 -0.21151858137E+04  0.21173938059E+04  0.77282103784E+02 0.  0.
         25    2    1    2    0    0  0.72452604558E+02 -0.77003164168E+02  0.14879472052E-01  0.16378849565E+03  0.12509118229E+03 0.  0.
         24    2    1    2    0    0 -0.20805409885E+02  0.50441040912E+02  0.76398257018E+02  0.12328058521E+03  0.79901472614E+02 0.  0.
        -13    1    5    5    0    0  0.15322912566E+02  0.49965793523E+02  0.19303287756E+02  0.55713455198E+02  0.00000000000E+00 0.  1.
         14    1    5    5    0    0 -0.36128322451E+02  0.47524738848E+00  0.57094969262E+02  0.67567130013E+02  0.00000000000E+00 0. -1.
         13    1    3    3    0    0 -0.28651846250E+02 -0.10369848679E+02 -0.27314919476E+03  0.27484349119E+03  0.00000000000E+00 0. -1.
        -14    1    3    3    0    0 -0.22995348423E+02  0.36931971935E+02 -0.18420366190E+04  0.18425503147E+04  0.00000000000E+00 0.  1.
          5    1    4    4  501    0  0.45338951721E+02 -0.64555378168E+02 -0.58280642935E+02  0.98168850123E+02  0.41800000000E+01 0. -1.
         -5    1    4    4    0  501  0.27113652837E+02 -0.12447786000E+02  0.58295522407E+02  0.65619645528E+02  0.41800000000E+01 0. -1.
</event>
<event>
11    1  0.8039394E-009  0.1434898E+03  0.7561462E-02  0.1103723E+00
         22   -1    0    0    0    0  0.00000000000E+00  0.00000000000E+00  0.39684977918E+03  0.39684977918E+03  0.00000000000E+00 0.  1.
         22   -1    0    0    0    0 -0.00000000000E+00 -0.00000000000E+00 -0.25154256387E+03  0.25154256387E+03  0.00000000000E+00 0. -1.
         24    2    1    2    0    0 -0.65178799746E+02 -0.21468102192E+01 -0.78788832817E+02  0.13184913443E+03  0.83208348993E+02 0.  0.
         25    2    1    2    0    0  0.72839175237E+02  0.39374202150E+02 -0.99883346743E+02  0.18022115517E+03  0.12508840301E+03 0.  0.
        -24    2    1    2    0    0 -0.76603754916E+01 -0.37227391930E+02  0.32397939487E+03  0.33632205346E+03  0.81885989502E+02 0.  0.
        -13    1    3    3    0    0  0.13922013487E+02  0.10017439902E+02  0.30077685838E+01  0.17413162653E+02  0.00000000000E+00 0.  1.
         14    1    3    3    0    0 -0.79100813233E+02 -0.12164250121E+02 -0.81796601400E+02  0.11443597177E+03  0.00000000000E+00 0. -1.
         13    1    5    5    0    0  0.19710709738E+02  0.19111817955E+02  0.10891706196E+03  0.11232408491E+03  0.00000000000E+00 0. -1.
        -14    1    5    5    0    0 -0.27371085230E+02 -0.56339209885E+02  0.21506233291E+03  0.22399796855E+03  0.00000000000E+00 0.  1.
          5    1    4    4  501    0  0.80257014518E+02 -0.25695374986E+02 -0.55052258407E+02  0.10074554199E+03  0.41800000000E+01 0.  1.
         -5    1    4    4    0  501 -0.74178392813E+01  0.65069577136E+02 -0.44831088335E+02  0.79475613175E+02  0.41800000000E+01 0.  1.
</event>
<event>
11    1  0.8039394E-009  0.3018053E+03  0.7561462E-02  0.9994300E-01
         22   -1    0    0    0    0  0.00000000000E+00  0.00000000000E+00  0.22598476867E+04  0.22598476867E+04  0.00000000000E+00 0. -1.
         22   -1    0    0    0    0 -0.00000000000E+00 -0.00000000000E+00 -0.38790032788E+03  0.38790032788E+03  0.00000000000E+00 0.  1.
         24    2    1    2    0    0  0.24834667274E+02  0.20665439173E+02 -0.11691865581E+03  0.14470909753E+03  0.78910897579E+02 0.  0.
         25    2    1    2    0    0 -0.29330704509E+03  0.33672495713E+02 -0.14385142438E+03  0.35143095152E+03  0.12509045419E+03 0.  0.
        -24    2    1    2    0    0  0.26847237781E+03 -0.54337934886E+02  0.21327174390E+04  0.21516079655E+04  0.76831854793E+02 0.  0.
        -11    1    3    3    0    0  0.40423910513E+02 -0.17480263428E+02 -0.61926823139E+02  0.75990680841E+02  0.00000000000E+00 0.  1.
         12    1    3    3    0    0 -0.15589243239E+02  0.38145702601E+02 -0.54991832668E+02  0.68718416687E+02  0.00000000000E+00 0. -1.
         11    1    5    5    0    0  0.23201595932E+03 -0.56128675875E+02  0.19912741437E+04  0.20055309893E+04  0.00000000000E+00 0. -1.
        -12    1    5    5    0    0  0.36456418493E+02  0.17907409891E+01  0.14144329528E+03  0.14607697623E+03  0.00000000000E+00 0.  1.
          5    1    4    4  501    0 -0.14583777495E+03  0.55060584859E+02 -0.12756871582E+03  0.20147350760E+03  0.41800000000E+01 0. -1.
         -5    1    4    4    0  501 -0.14746927013E+03 -0.21388089147E+02 -0.16282708555E+02  0.14995744392E+03  0.41800000000E+01 0. -1.
</event>
<event>
11    1  0.8039394E-009  0.1459992E+03  0.7561462E-02  0.1101038E+00
         22   -1    0    0    0    0  0.00000000000E+00  0.00000000000E+00  0.10864805566E+03  0.10864805566E+03  0.00000000000E+00 0.  1.
         22   -1    0    0    0    0 -0.00000000000E+00 -0.00000000000E+00 -0.50408649072E+03  0.50408649072E+03  0.00000000000E+00 0.  1.
        -24    2    1    2    0    0  0.61319419416E+02  0.30434814170E+02 -0.18708628196E+03  0.21537539584E+03  0.81847022716E+02 0.  0.
         25    2    1    2    0    0 -0.75903824127E+02  0.45752886460E+02 -0.23028279548E+03  0.27662862563E+03  0.12505404227E+03 0.  0.
         24    2    1    2    0    0  0.14584404712E+02 -0.76187700630E+02  0.21930642375E+02  0.12073052491E+03  0.89875669571E+02 0.  0.
        -11    1    5    5    0    0  0.39135791722E+02 -0.32049622260E+02  0.42624597356E+02  0.66148656679E+02  0.00000000000E+00 0.  1.
         12    1    5    5    0    0 -0.24551387010E+02 -0.44138078370E+02 -0.20693954980E+02  0.54581868226E+02  0.00000000000E+00 0. -1.
         11    1    3    3    0    0 -0.61850549403E+01  0.33598594034E+02 -0.96429504464E+02  0.10230234483E+03  0.00000000000E+00 0. -1.
        -12    1    3    3    0    0  0.67504474356E+02 -0.31637798642E+01 -0.90656777491E+02  0.11307305102E+03  0.00000000000E+00 0.  1.
          5    1    4    4  501    0 -0.47989324250E+02 -0.39603932019E+02 -0.11019213525E+03  0.12661447684E+03  0.41800000000E+01 0. -1.
         -5    1    4    4    0  501 -0.27914499877E+02  0.85356818479E+02 -0.12009066023E+03  0.15001414879E+03  0.41800000000E+01 0. -1.
</event>
<event>
11    1  0.8039394E-009  0.1516857E+03  0.7561462E-02  0.1095169E+00
         22   -1    0    0    0    0  0.00000000000E+00  0.00000000000E+00  0.26028947935E+03  0.26028947935E+03  0.00000000000E+00 0.  1.
         22   -1    0    0    0    0 -0.00000000000E+00 -0.00000000000E+00 -0.96161699828E+03  0.96161699828E+03  0.00000000000E+00 0.  1.
         24    2    1    2    0    0  0.20583103900E+02 -0.86094430336E+02 -0.88478467249E+03  0.89361141350E+03  0.88665250018E+02 0.  0.
         25    2    1    2    0    0  0.68910591964E+01  0.43422509172E+02  0.12803771298E+02  0.13320856726E+03  0.12509030671E+03 0.  0.
        -24    2    1    2    0    0 -0.27474163096E+02  0.42671921164E+02  0.17065338225E+03  0.19508649687E+03  0.79752378610E+02 0.  0.
        -13    1    3    3    0    0  0.52684098944E+02 -0.70058091111E+02 -0.69039281564E+03  0.69593533485E+03  0.00000000000E+00 0.  1.
         14    1    3    3    0    0 -0.32100995044E+02 -0.16036339225E+02 -0.19439185685E+03  0.19767607864E+03  0.00000000000E+00 0. -1.
         13    1    5    5    0    0  0.21108581603E+02 -0.95680575815E+01  0.40310357520E+02  0.46497794212E+02  0.00000000000E+00 0. -1.
        -14    1    5    5    0    0 -0.48582744699E+02  0.52239978746E+02  0.13034302473E+03  0.14858870266E+03  0.00000000000E+00 0.  1.
          5    1    4    4  501    0  0.16419511174E+02  0.70212242221E+02 -0.32782573512E+02  0.79319158032E+02  0.41800000000E+01 0.  1.
         -5    1    4    4    0  501 -0.95284519777E+01 -0.26789733049E+02  0.45586344810E+02  0.53889409230E+02  0.41800000000E+01 0.  1.
</event>
<event>
11    1  0.1137555E-008  0.1692572E+03  0.7561462E-02  0.1078680E+00
         22   -1    0    0    0    0  0.00000000000E+00  0.00000000000E+00  0.59184443034E+03  0.59184443034E+03  0.00000000000E+00 0.  1.
         22   -1    0    0    0    0 -0.00000000000E+00 -0.00000000000E+00 -0.11247536726E+04  0.11247536726E+04  0.00000000000E+00 0.  1.
         24    2    1    2    0    0  0.12144720335E+03 -0.28083304329E+02 -0.66258210411E+03  0.67885124157E+03  0.79283468037E+02 0.  0.
         25    2    1    2    0    0 -0.46680389754E+02  0.12342869177E+03 -0.42581321137E+03  0.46300935174E+03  0.12508824119E+03 0.  0.
        -24    2    1    2    0    0 -0.74766813593E+02 -0.95345387443E+02  0.55548607326E+03  0.57473750959E+03  0.84128520887E+02 0.  0.
        -11    1    3    3    0    0  0.90254870224E+02 -0.52644369623E+02 -0.53948576369E+03  0.54951092844E+03  0.00000000000E+00 0.  1.
         12    1    3    3    0    0  0.31192333123E+02  0.24561065295E+02 -0.12309634043E+03  0.12934031313E+03  0.00000000000E+00 0. -1.
         13    1    5    5    0    0 -0.65912762790E+02 -0.60596793945E+02  0.22269148030E+03  0.24001658096E+03  0.00000000000E+00 0. -1.
        -14    1    5    5    0    0 -0.88540508034E+01 -0.34748593498E+02  0.33279459295E+03  0.33472092863E+03  0.00000000000E+00 0.  1.
          5    1    4    4  501    0  0.25727622684E+01  0.97084059143E+02 -0.13214918289E+03  0.16405124987E+03  0.41800000000E+01 0.  1.
         -5    1    4    4    0  501 -0.49253152023E+02  0.26344632628E+02 -0.29366402848E+03  0.29895810187E+03  0.41800000000E+01 0.  1.
</event>
<event>
11    1  0.8039394E-009  0.1330115E+03  0.7561462E-02  0.1115623E+00
         22   -1    0    0    0    0  0.00000000000E+00  0.00000000000E+00  0.39265490112E+03  0.39265490112E+03  0.00000000000E+00 0.  1.
         22   -1    0    0    0    0 -0.00000000000E+00 -0.00000000000E+00 -0.17594815428E+03  0.17594815428E+03  0.00000000000E+00 0. -1.
        -24    2    1    2    0    0  0.60424027310E+02 -0.18817861787E+01 -0.77757708252E+02  0.12682494876E+03  0.79898074064E+02 0.  0.
         25    2    1    2    0    0 -0.81789911270E+01 -0.43156099961E+01 -0.63246162279E+01  0.12559817445E+03  0.12509748307E+03 0.  0.
         24    2    1    2    0    0 -0.52245036183E+02  0.61973961748E+01  0.30078907132E+03  0.31617993220E+03  0.82022756450E+02 0.  0.
        -13    1    5    5    0    0 -0.33425403422E+02  0.11772310939E+02  0.29288355914E+03  0.29501970123E+03  0.00000000000E+00 0.  1.
         14    1    5    5    0    0 -0.18819632761E+02 -0.55749147641E+01  0.79055121778E+01  0.21160230970E+02  0.00000000000E+00 0. -1.
         13    1    3    3    0    0  0.26648670619E+02 -0.55541129650E+01 -0.87373695892E+02  0.91515914193E+02  0.00000000000E+00 0. -1.
        -14    1    3    3    0    0  0.33775356691E+02  0.36723267862E+01  0.96159876403E+01  0.35309034565E+02  0.00000000000E+00 0.  1.
          5    1    4    4  501    0 -0.47563696640E+02  0.10495742936E+02 -0.46355491226E+02  0.67370392790E+02  0.41800000000E+01 0.  1.
         -5    1    4    4    0  501  0.39384705513E+02 -0.14811352932E+02  0.40030874999E+02  0.58227781661E+02  0.41800000000E+01 0.  1.
</event>
<event>
11    1  0.8039394E-009  0.2941840E+03  0.7561462E-02  0.1002683E+00
         22   -1    0    0    0    0  0.00000000000E+00  0.00000000000E+00  0.87184700842E+03  0.87184700842E+03  0.00000000000E+00 0. -1.
         22   -1    0    0    0    0 -0.00000000000E+00 -0.00000000000E+00 -0.26957945035E+03  0.26957945035E+03  0.00000000000E+00 0.  1.
        -24    2    1    2    0    0  0.19365069102E+03  0.14778155691E+03 -0.55141591327E+02  0.26218158170E+03  0.79740880307E+02 0.  0.
         25    2    1    2    0    0 -0.31264561779E+03 -0.14946499565E+03  0.24426383482E+03  0.44203966071E+03  0.12508866212E+03 0.  0.
         24    2    1    2    0    0  0.11899492678E+03  0.16834387389E+01  0.41314531458E+03  0.43720521636E+03  0.79351897819E+02 0.  0.
        -13    1    5    5    0    0 -0.16854774305E+01  0.17309227784E+02  0.95060289727E+02  0.96638030214E+02  0.00000000000E+00 0.  1.
         14    1    5    5    0    0  0.12068040421E+03 -0.15625789045E+02  0.31808502485E+03  0.34056718614E+03  0.00000000000E+00 0. -1.
         11    1    3    3    0    0  0.16404285562E+03  0.12655189950E+03 -0.14634336382E+02  0.20770075962E+03  0.00000000000E+00 0. -1.
        -12    1    3    3    0    0  0.29607835401E+02  0.21229657415E+02 -0.40507254945E+02  0.54480822077E+02  0.00000000000E+00 0.  1.
          5    1    4    4  501    0 -0.20163582796E+03 -0.10030430700E+03  0.22620557383E+03  0.31922467817E+03  0.41800000000E+01 0.  1.
         -5    1    4    4    0  501 -0.11100978983E+03 -0.49160688653E+02  0.18058260990E+02  0.12281498254E+03  0.41800000000E+01 0.  1.
</event>
<event>
11    1  0.8039394E-009  0.5835769E+03  0.7561462E-02  0.9224000E-01
         22   -1    0    0    0    0  0.00000000000E+00  0.00000000000E+00  0.60929644139E+03  0.60929644139E+03  0.00000000000E+00 0.  1.
         22   -1    0    0    0    0 -0.00000000000E+00 -0.00000000000E+00 -0.16028249423E+04  0.16028249423E+04  0.00000000000E+00 0.  1.
        -24    2    1    2    0    0  0.43929269868E+03  0.36720286642E+03 -0.12545132667E+04  0.13813597852E+04  0.80841199456E+02 0.  0.
         25    2    1    2    0    0 -0.51317810626E+03 -0.24138939208E+03  0.30892319867E+03  0.65780061746E+03  0.12508997682E+03 0.  0.
         24    2    1    2    0    0  0.73885407581E+02 -0.12581347434E+03 -0.47938432847E+02  0.17296098102E+03  0.79557047670E+02 0.  0.
        -13    1    5    5    0    0  0.82695837757E+02 -0.99290238767E+02 -0.15500819425E+02  0.13014387615E+03  0.00000000000E+00 0.  1.
         14    1    5    5    0    0 -0.88104301765E+01 -0.26523235569E+02 -0.32437613422E+02  0.42817104870E+02  0.00000000000E+00 0. -1.
         13    1    3    3    0    0  0.15681818145E+03  0.11243348593E+03 -0.51034097018E+03  0.54560162814E+03  0.00000000000E+00 0. -1.
        -14    1    3    3    0    0  0.28247451724E+03  0.25476938049E+03 -0.74417229656E+03  0.83575815706E+03  0.00000000000E+00 0.  1.
          5    1    4    4  501    0 -0.34607166678E+03 -0.16919187558E+03  0.14137725282E+03  0.41036141305E+03  0.41800000000E+01 0. -1.
         -5    1    4    4    0  501 -0.16710643949E+03 -0.72197516503E+02  0.16754594586E+03  0.24743920441E+03  0.41800000000E+01 0. -1.
</event>
<event>
11    1  0.8039394E-009  0.1429872E+03  0.7561462E-02  0.1104268E+00
         22   -1    0    0    0    0  0.00000000000E+00  0.00000000000E+00  0.10808312422E+04  0.10808312422E+04  0.00000000000E+00 0.  1.
         22   -1    0    0    0    0 -0.00000000000E+00 -0.00000000000E+00 -0.50337456098E+03  0.50337456098E+03  0.00000000000E+00 0. -1.
         24    2    1    2    0    0  0.46890135201E+02 -0.58517552438E+02 -0.47771907586E+03  0.49035846842E+03  0.81319883082E+02 0.  0.
         25    2    1    2    0    0 -0.42385854677E+02  0.10970388798E+03  0.52928597671E+03  0.55643720369E+03  0.12508881964E+03 0.  0.
        -24    2    1    2    0    0 -0.45042805240E+01 -0.51186335537E+02  0.52588978037E+03  0.53741013105E+03  0.98026824755E+02 0.  0.
        -13    1    3    3    0    0  0.23052633125E+02 -0.24872627058E+02 -0.48597118175E+02  0.59260031773E+02  0.00000000000E+00 0.  1.
         14    1    3    3    0    0  0.23837502075E+02 -0.33644925380E+02 -0.42912195769E+03  0.43109843665E+03  0.00000000000E+00 0. -1.
         13    1    5    5    0    0 -0.11162998237E+02  0.19316665976E+02  0.29649281968E+03  0.29733102468E+03  0.00000000000E+00 0. -1.
        -14    1    5    5    0    0  0.66587177133E+01 -0.70503001513E+02  0.22939696069E+03  0.24007910637E+03  0.00000000000E+00 0.  1.
          5    1    4    4  501    0 -0.49523987893E+02  0.15712608566E+02  0.68428909596E+02  0.86020343601E+02  0.41800000000E+01 0. -1.
         -5    1    4    4    0  501  0.71381332165E+01  0.93991279410E+02  0.46085706711E+03  0.47041686009E+03  0.41800000000E+01 0. -1.
</event>
<event>
11    1  0.8039394E-009  0.1655416E+03  0.7561462E-02  0.1081978E+00
         22   -1    0    0    0    0  0.00000000000E+00  0.00000000000E+00  0.90422315538E+03  0.90422315538E+03  0.00000000000E+00 0. -1.
         22   -1    0    0    0    0 -0.00000000000E+00 -0.00000000000E+00 -0.10429637498E+03  0.10429637498E+03  0.00000000000E+00 0. -1.
         24    2    1    2    0    0  0.68858211299E+02  0.38093570690E+01 -0.17992878834E+02  0.10911909126E+03  0.82627283173E+02 0.  0.
         25    2    1    2    0    0 -0.10154191081E+03 -0.10172062873E+03  0.23847022156E+03  0.30524241637E+03  0.12508812983E+03 0.  0.
        -24    2    1    2    0    0  0.32683699509E+02  0.97911271661E+02  0.57944943768E+03  0.59415802272E+03  0.81285077392E+02 0.  0.
        -11    1    3    3    0    0 -0.98054004951E+01 -0.22531162655E+02 -0.21793213593E+01  0.24668778061E+02  0.00000000000E+00 0.  1.
         12    1    3    3    0    0  0.78663611794E+02  0.26340519724E+02 -0.15813557475E+02  0.84450313201E+02  0.00000000000E+00 0. -1.
         13    1    5    5    0    0  0.38907646452E+02  0.64898519159E+02  0.21058584277E+03  0.22376778123E+03  0.00000000000E+00 0. -1.
        -14    1    5    5    0    0 -0.62239469434E+01  0.33012752502E+02  0.36886359491E+03  0.37039024149E+03  0.00000000000E+00 0.  1.
          5    1    4    4  501    0 -0.48134593358E+02 -0.12333849699E+03  0.17385824149E+03  0.21857146303E+03  0.41800000000E+01 0.  1.
         -5    1    4    4    0  501 -0.53407317450E+02  0.21617868260E+02  0.64611980064E+02  0.86670953341E+02  0.41800000000E+01 0.  1.
</event>
<event>
11    1  0.8039394E-009  0.1951417E+03  0.7561462E-02  0.1058013E+00
         22   -1    0    0    0    0  0.00000000000E+00  0.00000000000E+00  0.57787172307E+03  0.57787172307E+03  0.00000000000E+00 0.  1.
         22   -1    0    0    0    0 -0.00000000000E+00 -0.00000000000E+00 -0.30636837997E+03  0.30636837997E+03  0.00000000000E+00 0. -1.
        -24    2    1    2    0    0  0.85745836205E+00  0.56525206904E+02 -0.17731698861E+03  0.20284148298E+03  0.80669191882E+02 0.  0.
         25    2    1    2    0    0  0.13517228066E+03 -0.11184799340E+03  0.14665400294E+02  0.21597431793E+03  0.12509321705E+03 0.  0.
         24    2    1    2    0    0 -0.13602973903E+03  0.55322786498E+02  0.43415493142E+03  0.46542430213E+03  0.81022070671E+02 0.  0.
        -11    1    5    5    0    0 -0.14051306533E+03  0.66660357000E+02  0.40326535071E+03  0.43221576534E+03  0.00000000000E+00 0.  1.
         12    1    5    5    0    0  0.44833263067E+01 -0.11337570502E+02  0.30889580708E+02  0.33208536793E+02  0.00000000000E+00 0. -1.
         11    1    3    3    0    0 -0.32314476428E+01  0.72849804475E+02 -0.16901758374E+03  0.18407737471E+03  0.00000000000E+00 0. -1.
        -12    1    3    3    0    0  0.40889060049E+01 -0.16324597570E+02 -0.82994048664E+01  0.18764108273E+02  0.00000000000E+00 0.  1.
          5    1    4    4  501    0  0.15295455973E+03 -0.10608475302E+03  0.33422160927E+02  0.18916549740E+03  0.41800000000E+01 0.  1.
         -5    1    4    4    0  501 -0.17782279071E+02 -0.57632403856E+01 -0.18756760633E+02  0.26808820529E+02  0.41800000000E+01 0.  1.
</event>
<event>
11    1  0.8039394E-009  0.2230381E+03  0.7561462E-02  0.1039331E+00
         22   -1    0    0    0    0  0.00000000000E+00  0.00000000000E+00  0.14235528662E+04  0.14235528662E+04  0.00000000000E+00 0. -1.
         22   -1    0    0    0    0 -0.00000000000E+00 -0.00000000000E+00 -0.60421578168E+03  0.60421578168E+03  0.00000000000E+00 0.  1.
         24    2    1    2    0    0  0.25384243011E+02  0.47471183139E+01 -0.52790598955E+03  0.53446355189E+03  0.79370394808E+02 0.  0.
         25    2    1    2    0    0 -0.71603942996E+02 -0.18219755058E+03  0.14378746682E+03  0.27322422976E+03  0.12511423590E+03 0.  0.
        -24    2    1    2    0    0  0.46219699985E+02  0.17745043226E+03  0.12034556072E+04  0.12200808662E+04  0.81651729545E+02 0.  0.
        -11    1    3    3    0    0 -0.16105124029E+01  0.11547404839E+02 -0.47069324315E+03  0.47083762111E+03  0.00000000000E+00 0.  1.
         12    1    3    3    0    0  0.26994755414E+02 -0.68002865248E+01 -0.57212746395E+02  0.63625930773E+02  0.00000000000E+00 0. -1.
         11    1    5    5    0    0  0.53903172800E+02  0.16162215318E+03  0.11694266347E+04  0.11817723666E+04  0.00000000000E+00 0. -1.
        -12    1    5    5    0    0 -0.76834728145E+01  0.15828279086E+02  0.34028972529E+02  0.38308499640E+02  0.00000000000E+00 0.  1.
          5    1    4    4  501    0  0.69509942848E+01 -0.86340362805E+02  0.46461349739E+01  0.86844882066E+02  0.41800000000E+01 0. -1.
         -5    1    4    4    0  501 -0.78554937281E+02 -0.95857187772E+02  0.13914133185E+03  0.18637934770E+03  0.41800000000E+01 0. -1.
</event>
<event>
11    1  0.8039394E-009  0.2119760E+03  0.7561462E-02  0.1046364E+00
         22   -1    0    0    0    0  0.00000000000E+00  0.00000000000E+00  0.59751076378E+03  0.59751076378E+03  0.00000000000E+00 0. -1.
         22   -1    0    0    0    0 -0.00000000000E+00 -0.00000000000E+00 -0.23299796226E+04  0.23299796226E+04  0.00000000000E+00 0. -1.
        -24    2    1    2    0    0  0.23034164321E+02  0.11574830633E+02 -0.22168792054E+04  0.22185213172E+04  0.81356462286E+02 0.  0.
         25    2    1    2    0    0 -0.80700257240E+02  0.15004290634E+03  0.24789347720E+02  0.21280742334E+03  0.12508829845E+03 0.  0.
         24    2    1    2    0    0  0.57666092919E+02 -0.16161773697E+03  0.45962099890E+03  0.49616164584E+03  0.74021922386E+02 0.  0.
        -13    1    5    5    0    0  0.26877742709E+02 -0.84569061459E+01  0.10378219726E+03  0.10753918720E+03  0.00000000000E+00 0.  1.
         14    1    5    5    0    0  0.30788350211E+02 -0.15316083082E+03  0.35583880164E+03  0.38862245864E+03  0.00000000000E+00 0. -1.
         13    1    3    3    0    0  0.30939750265E+02  0.18201207245E+02 -0.21780347556E+04  0.21783305417E+04  0.00000000000E+00 0. -1.
        -14    1    3    3    0    0 -0.79055859450E+01 -0.66263766119E+01 -0.38844449784E+02  0.40190775498E+02  0.00000000000E+00 0.  1.
          5    1    4    4  501    0  0.17392745146E+02 -0.12167470784E+02  0.46779368604E+01  0.22133920174E+02  0.41800000000E+01 0. -1.
         -5    1    4    4    0  501 -0.98093002386E+02  0.16221037712E+03  0.20111410859E+02  0.19067350317E+03  0.41800000000E+01 0. -1.
</event>
<event>
11    1  0.8039394E-009  0.1611902E+03  0.7561462E-02  0.1085963E+00
         22   -1    0    0    0    0  0.00000000000E+00  0.00000000000E+00  0.22267985461E+04  0.22267985461E+04  0.00000000000E+00 0.  1.
         22   -1    0    0    0    0 -0.00000000000E+00 -0.00000000000E+00 -0.22187037253E+03  0.22187037253E+03  0.00000000000E+00 0. -1.
        -24    2    1    2    0    0 -0.12378973396E+02 -0.52829495926E+02 -0.19053017280E+03  0.21533239049E+03  0.84392517595E+02 0.  0.
         25    2    1    2    0    0 -0.51615227256E+02  0.12642724985E+03  0.50100920749E+03  0.53414085317E+03  0.12509294085E+03 0.  0.
         24    2    1    2    0    0  0.63994200651E+02 -0.73597753928E+02  0.16944491389E+04  0.16991956750E+04  0.81216811450E+02 0.  0.
        -11    1    5    5    0    0  0.49209343588E+02 -0.33139697823E+02  0.14325418736E+04  0.14337698625E+04  0.00000000000E+00 0.  1.
         12    1    5    5    0    0  0.14784857063E+02 -0.40458056105E+02  0.26190726533E+03  0.26542581248E+03  0.00000000000E+00 0. -1.
         11    1    3    3    0    0  0.96407308982E+01 -0.69997873732E+02 -0.15325327836E+03  0.16875785418E+03  0.00000000000E+00 0. -1.
        -12    1    3    3    0    0 -0.22019704294E+02  0.17168377806E+02 -0.37276894442E+02  0.46574536314E+02  0.00000000000E+00 0.  1.
          5    1    4    4  501    0 -0.53046612721E+02  0.13696180455E+03  0.31287161959E+03  0.34565676873E+03  0.41800000000E+01 0. -1.
         -5    1    4    4    0  501  0.14313854653E+01 -0.10534554692E+02  0.18813758790E+03  0.18848408444E+03  0.41800000000E+01 0. -1.
</event>
<event>
11    1  0.8039394E-009  0.1346391E+03  0.7561462E-02  0.1113697E+00
         22   -1    0    0    0    0  0.00000000000E+00  0.00000000000E+00  0.51489516768E+03  0.51489516768E+03  0.00000000000E+00 0.  1.
         22   -1    0    0    0    0 -0.00000000000E+00 -0.00000000000E+00 -0.12988921754E+03  0.12988921754E+03  0.00000000000E+00 0. -1.
        -24    2    1    2    0    0  0.46543013012E+01 -0.13543659624E+02 -0.78406494053E+02  0.11359142989E+03  0.80934179418E+02 0.  0.
         25    2    1    2    0    0 -0.12718283698E+02  0.59806644997E+02  0.15181297416E+03  0.20599370288E+03  0.12509051514E+03 0.  0.
         24    2    1    2    0    0  0.80639823968E+01 -0.46262985373E+02  0.31159947004E+03  0.32519925245E+03  0.80343216497E+02 0.  0.
        -11    1    5    5    0    0  0.68797433952E+01  0.17595359694E+02  0.15392506805E+03  0.15508015387E+03  0.00000000000E+00 0.  1.
         12    1    5    5    0    0  0.11842390016E+01 -0.63858345068E+02  0.15767440199E+03  0.17011909857E+03  0.00000000000E+00 0. -1.
         13    1    3    3    0    0 -0.98951112568E+01 -0.17721268615E+02 -0.91409704079E+02  0.93635947093E+02  0.00000000000E+00 0. -1.
        -14    1    3    3    0    0  0.14549412558E+02  0.41776089909E+01  0.13003210026E+02  0.19955482797E+02  0.00000000000E+00 0.  1.
          5    1    4    4  501    0  0.34078146119E+02  0.36848805651E+02  0.55569092691E+01  0.50670565040E+02  0.41800000000E+01 0. -1.
         -5    1    4    4    0  501 -0.46796429817E+02  0.22957839347E+02  0.14625606490E+03  0.15532313784E+03  0.41800000000E+01 0. -1.
</event>
<event>
11    1  0.8039394E-009  0.1553042E+03  0.7561462E-02  0.1091579E+00
         22   -1    0    0    0    0  0.00000000000E+00  0.00000000000E+00  0.79333790142E+03  0.79333790142E+03  0.00000000000E+00 0.  1.
         22   -1    0    0    0    0 -0.00000000000E+00 -0.00000000000E+00 -0.68841338462E+03  0.68841338462E+03  0.00000000000E+00 0. -1.
         24    2    1    2    0    0 -0.38649532532E+02  0.97560539833E+02 -0.51747195772E+03  0.53417555883E+03  0.80959590752E+02 0.  0.
         25    2    1    2    0    0  0.93851891183E+01 -0.48141653322E+02 -0.13090907684E+03  0.18758819322E+03  0.12508574370E+03 0.  0.
        -24    2    1    2    0    0  0.29264343413E+02 -0.49418886511E+02  0.75330555136E+03  0.75998753398E+03  0.82541928519E+02 0.  0.
        -11    1    3    3    0    0 -0.73374054328E+01  0.20228855509E+02 -0.30725952766E+03  0.30801211250E+03  0.00000000000E+00 0.  1.
         12    1    3    3    0    0 -0.31312127099E+02  0.77331684323E+02 -0.21021243006E+03  0.22616344633E+03  0.00000000000E+00 0. -1.
         13    1    5    5    0    0  0.15994113047E+02 -0.10561648982E+02  0.30537684447E+02  0.36054268163E+02  0.00000000000E+00 0. -1.
        -14    1    5    5    0    0  0.13270230367E+02 -0.38857237529E+02  0.72276786691E+03  0.72393326582E+03  0.00000000000E+00 0.  1.
          5    1    4    4  501    0 -0.46404407887E+02 -0.14910778045E+00 -0.94531049630E+02  0.10538967240E+03  0.41800000000E+01 0. -1.
         -5    1    4    4    0  501  0.55789597005E+02 -0.47992545541E+02 -0.36378027214E+02  0.82198520823E+02  0.41800000000E+01 0. -1.
</event>
<event>
11    1  0.8039394E-009  0.1728454E+03  0.7561462E-02  0.1075582E+00
         22   -1    0    0    0    0  0.00000000000E+00  0.00000000000E+00  0.64432672638E+02  0.64432672638E+02  0.00000000000E+00 0.  1.
         22   -1    0    0    0    0 -0.00000000000E+00 -0.00000000000E+00 -0.23498143303E+04  0.23498143303E+04  0.00000000000E+00 0.  1.
        -24    2    1    2    0    0  0.96633662691E+02 -0.64824170900E+02 -0.19035236417E+04  0.19089048604E+04  0.83518105336E+02 0.  0.
         25    2    1    2    0    0 -0.12966064452E+03  0.65970691825E+02 -0.37196901981E+03  0.41853547643E+03  0.12508788277E+03 0.  0.
         24    2    1    2    0    0  0.33026981830E+02 -0.11465209258E+01 -0.98889962356E+01  0.86806666121E+02  0.79658703213E+02 0.  0.
        -13    1    5    5    0    0  0.32509907488E+02 -0.25818304670E+02  0.21601842130E+02  0.46798702165E+02  0.00000000000E+00 0.  1.
         14    1    5    5    0    0  0.51707434201E+00  0.24671783744E+02 -0.31490838365E+02  0.40007963957E+02  0.00000000000E+00 0. -1.
         11    1    3    3    0    0  0.32287708089E+01  0.17837864540E+02 -0.19916133585E+03  0.19998462959E+03  0.00000000000E+00 0. -1.
        -12    1    3    3    0    0  0.93404891882E+02 -0.82662035440E+02 -0.17043623058E+04  0.17089202309E+04  0.00000000000E+00 0.  1.
          5    1    4    4  501    0 -0.70274296016E+02  0.10062087661E+03 -0.22959595908E+03  0.26037437339E+03  0.41800000000E+01 0.  1.
         -5    1    4    4    0  501 -0.59386348505E+02 -0.34650184785E+02 -0.14237306073E+03  0.15816110304E+03  0.41800000000E+01 0.  1.
</event>
<event>
11    1  0.8039394E-009  0.2628919E+03  0.7561462E-02  0.1017247E+00
         22   -1    0    0    0    0  0.00000000000E+00  0.00000000000E+00  0.92649383048E+02  0.92649383048E+02  0.00000000000E+00 0. -1.
         22   -1    0    0    0    0 -0.00000000000E+00 -0.00000000000E+00 -0.11232801983E+04  0.11232801983E+04  0.00000000000E+00 0. -1.
         24    2    1    2    0    0  0.25423941857E+02  0.34019083163E+01 -0.21263992218E+03  0.22868866468E+03  0.80154968955E+02 0.  0.
         25    2    1    2    0    0  0.14689924374E+03  0.15960610972E+03 -0.61689471273E+03  0.66577785532E+03  0.12509023929E+03 0.  0.
        -24    2    1    2    0    0 -0.17232318559E+03 -0.16300801803E+03 -0.20109618034E+03  0.32146306135E+03  0.81436673740E+02 0.  0.
        -11    1    3    3    0    0 -0.17699134910E+02 -0.25846699512E+02 -0.65762898206E+02  0.72842776119E+02  0.00000000000E+00 0.  1.
         12    1    3    3    0    0  0.43123076767E+02  0.29248607828E+02 -0.14687702397E+03  0.15584588856E+03  0.00000000000E+00 0. -1.
         11    1    5    5    0    0 -0.32295161402E+02 -0.83989661508E+02 -0.74425702991E+02  0.11677510846E+03  0.00000000000E+00 0. -1.
        -12    1    5    5    0    0 -0.14002802419E+03 -0.79018356524E+02 -0.12667047735E+03  0.20468795289E+03  0.00000000000E+00 0.  1.
          5    1    4    4  501    0 -0.21117540544E+02  0.29335610959E+02 -0.67812294737E+02  0.76957834601E+02  0.41800000000E+01 0. -1.
         -5    1    4    4    0  501  0.16801678428E+03  0.13027049876E+03 -0.54908241799E+03  0.58882002072E+03  0.41800000000E+01 0. -1.
</event>
<event>
11    1  0.8039394E-009  0.1535953E+03  0.7561462E-02  0.1093261E+00
         22   -1    0    0    0    0  0.00000000000E+00  0.00000000000E+00  0.87760433571E+03  0.87760433571E+03  0.00000000000E+00 0.  1.
         22   -1    0    0    0    0 -0.00000000000E+00 -0.00000000000E+00 -0.25807592287E+03  0.25807592287E+03  0.00000000000E+00 0. -1.
        -24    2    1    2    0    0  0.20772808926E+02 -0.84628306548E+02 -0.17256895088E+03  0.20947511552E+03  0.80661771349E+02 0.  0.
         25    2    1    2    0    0 -0.73460600473E+02  0.83651132799E+02  0.44913552461E+02  0.17337397670E+03  0.12508931514E+03 0.  0.
         24    2    1    2    0    0  0.52687791547E+02  0.97717374913E+00  0.74718381126E+03  0.75283116635E+03  0.75459651285E+02 0.  0.
        -13    1    5    5    0    0  0.45517808586E+02 -0.21899745082E+02  0.67248622862E+03  0.67438060279E+03  0.00000000000E+00 0.  1.
         14    1    5    5    0    0  0.71699829610E+01  0.22876918831E+02  0.74697582634E+02  0.78450563556E+02  0.00000000000E+00 0. -1.
         13    1    3    3    0    0 -0.23765334337E+02 -0.63774413974E+02 -0.83416410093E+02  0.10765809058E+03  0.00000000000E+00 0. -1.
        -14    1    3    3    0    0  0.44538143263E+02 -0.20853892574E+02 -0.89152540783E+02  0.10181702495E+03  0.00000000000E+00 0.  1.
          5    1    4    4  501    0 -0.35915476167E+02  0.67880122281E+01  0.74233163257E+02  0.82849462674E+02  0.41800000000E+01 0.  1.
         -5    1    4    4    0  501 -0.37545124305E+02  0.76863120571E+02 -0.29319610796E+02  0.90524514029E+02  0.41800000000E+01 0.  1.
</event>
<event>
11    1  0.8039394E-009  0.1301454E+03  0.7561462E-02  0.1119090E+00
         22   -1    0    0    0    0  0.00000000000E+00  0.00000000000E+00  0.19992127568E+04  0.19992127568E+04  0.00000000000E+00 0. -1.
         22   -1    0    0    0    0 -0.00000000000E+00 -0.00000000000E+00 -0.24352040607E+03  0.24352040607E+03  0.00000000000E+00 0. -1.
        -24    2    1    2    0    0 -0.40499170754E+02 -0.55458658013E+01 -0.20607337498E+03  0.22457282039E+03  0.79345928200E+02 0.  0.
         25    2    1    2    0    0  0.11032106079E+02 -0.17291636998E+02  0.12113046935E+03  0.17533223434E+03  0.12509234076E+03 0.  0.
         24    2    1    2    0    0  0.29467064675E+02  0.22837502799E+02  0.18406352564E+04  0.18428281082E+04  0.81776706930E+02 0.  0.
        -11    1    5    5    0    0 -0.23259985375E+02  0.13796728998E+02  0.10683347635E+04  0.10686770062E+04  0.00000000000E+00 0.  1.
         12    1    5    5    0    0  0.52727050050E+02  0.90407738010E+01  0.77230049288E+03  0.77415110198E+03  0.00000000000E+00 0. -1.
         11    1    3    3    0    0 -0.28901110720E+02 -0.19815156465E+02 -0.20291113124E+03  0.20591464690E+03  0.00000000000E+00 0. -1.
        -12    1    3    3    0    0 -0.11598060034E+02  0.14269290663E+02 -0.31622437453E+01  0.18658173493E+02  0.00000000000E+00 0.  1.
          5    1    4    4  501    0 -0.20908299006E+02  0.34698601561E+02  0.12428670330E+01  0.40745147393E+02  0.41800000000E+01 0. -1.
         -5    1    4    4    0  501  0.31940405086E+02 -0.51990238559E+02  0.11988760232E+03  0.13458708694E+03  0.41800000000E+01 0. -1.
</event>
<event>
11    1  0.9622517E-009  0.1806718E+03  0.7561462E-02  0.1069101E+00
         22   -1    0    0    0    0  0.00000000000E+00  0.00000000000E+00  0.34451985209E+03  0.34451985209E+03  0.00000000000E+00 0. -1.
         22   -1    0    0    0    0 -0.00000000000E+00 -0.00000000000E+00 -0.60517538697E+03  0.60517538697E+03  0.00000000000E+00 0. -1.
         24    2    1    2    0    0 -0.18978822574E+02  0.35909372946E+02 -0.38278681315E+03  0.39320156635E+03  0.80200054142E+02 0.  0.
         25    2    1    2    0    0  0.13622216573E+03  0.20632328508E+02 -0.15305500402E+03  0.24095003428E+03  0.12509561682E+03 0.  0.
        -24    2    1    2    0    0 -0.11724334316E+03 -0.56541701453E+02  0.27518628230E+03  0.31554363842E+03  0.83050179214E+02 0.  0.
        -11    1    3    3    0    0  0.26749863083E+02  0.13441512247E+02 -0.67724940040E+02  0.74046586213E+02  0.00000000000E+00 0.  1.
         12    1    3    3    0    0 -0.45728685657E+02  0.22467860698E+02 -0.31506187311E+03  0.31915498014E+03  0.00000000000E+00 0. -1.
         13    1    5    5    0    0 -0.12502190720E+03 -0.32612425934E+02  0.22777831210E+03  0.26187211969E+03  0.00000000000E+00 0. -1.
        -14    1    5    5    0    0  0.77785640444E+01 -0.23929275519E+02  0.47407970195E+02  0.53671518737E+02  0.00000000000E+00 0.  1.
          5    1    4    4  501    0  0.61835495664E+02  0.60824857088E+02 -0.12413305294E+03  0.15149184465E+03  0.41800000000E+01 0.  1.
         -5    1    4    4    0  501  0.74386670066E+02 -0.40192528580E+02 -0.28921951077E+02  0.89458189626E+02  0.41800000000E+01 0.  1.
</event>
<event>
11    1  0.9575099E-009  0.2178244E+03  0.7561462E-02  0.1042589E+00
         22   -1    0    0    0    0  0.00000000000E+00  0.00000000000E+00  0.14204720272E+04  0.14204720272E+04  0.00000000000E+00 0. -1.
         22   -1    0    0    0    0 -0.00000000000E+00 -0.00000000000E+00 -0.12834936131E+04  0.12834936131E+04  0.00000000000E+00 0. -1.
        -24    2    1    2    0    0 -0.40309370225E+02 -0.17750316029E+02 -0.95439433668E+03  0.95898013377E+03  0.82670599582E+02 0.  0.
         25    2    1    2    0    0 -0.49353085104E+02  0.17201080148E+03 -0.28262804717E+03  0.35714158123E+03  0.12509217865E+03 0.  0.
         24    2    1    2    0    0  0.89662455329E+02 -0.15426048545E+03  0.13740007979E+04  0.13878439253E+04  0.79980716913E+02 0.  0.
        -11    1    5    5    0    0 -0.14694170082E+02 -0.25891293596E+02  0.23995303992E+03  0.24179276062E+03  0.00000000000E+00 0.  1.
         12    1    5    5    0    0  0.10435662541E+03 -0.12836919186E+03  0.11340477580E+04  0.11460511647E+04  0.00000000000E+00 0. -1.
         11    1    3    3    0    0  0.58450308257E+01 -0.14497973282E+02 -0.71414014475E+03  0.71431120806E+03  0.00000000000E+00 0. -1.
        -12    1    3    3    0    0 -0.46154401051E+02 -0.32523427467E+01 -0.24025419192E+03  0.24466892571E+03  0.00000000000E+00 0.  1.
          5    1    4    4  501    0 -0.70269799667E+02  0.33088864790E+02 -0.99518974379E+02  0.12631000111E+03  0.41800000000E+01 0. -1.
         -5    1    4    4    0  501  0.20916714563E+02  0.13892193669E+03 -0.18310907279E+03  0.23083158012E+03  0.41800000000E+01 0. -1.
</event>
<event>
11    1  0.8039394E-009  0.1272244E+03  0.7561462E-02  0.1122727E+00
         22   -1    0    0    0    0  0.00000000000E+00  0.00000000000E+00  0.28041045612E+03  0.28041045612E+03  0.00000000000E+00 0.  1.
         22   -1    0    0    0    0 -0.00000000000E+00 -0.00000000000E+00 -0.68055619708E+03  0.68055619708E+03  0.00000000000E+00 0. -1.
         24    2    1    2    0    0 -0.22473283815E+02 -0.74575083257E+01 -0.57957593533E+03  0.58606631499E+03  0.83694670263E+02 0.  0.
         25    2    1    2    0    0  0.23382941549E+02 -0.21174434420E+02 -0.43874936427E+02  0.13626198530E+03  0.12508876833E+03 0.  0.
        -24    2    1    2    0    0 -0.90965773348E+00  0.28631942746E+02  0.22330513080E+03  0.23863835291E+03  0.79135746761E+02 0.  0.
        -11    1    3    3    0    0  0.30449874627E+02  0.85356899083E+01 -0.22225221126E+03  0.22449075321E+03  0.00000000000E+00 0.  1.
         12    1    3    3    0    0 -0.52923158443E+02 -0.15993198234E+02 -0.35732372407E+03  0.36157556177E+03  0.00000000000E+00 0. -1.
         13    1    5    5    0    0  0.39006979730E+02  0.13644849929E+02  0.11811385964E+03  0.12513436873E+03  0.00000000000E+00 0. -1.
        -14    1    5    5    0    0 -0.39916637464E+02  0.14987092817E+02  0.10519127116E+03  0.11350398418E+03  0.00000000000E+00 0.  1.
          5    1    4    4  501    0  0.51914243913E+02  0.23073198590E+02  0.13227511309E+02  0.58479916806E+02  0.41800000000E+01 0.  1.
         -5    1    4    4    0  501 -0.28531302364E+02 -0.44247633011E+02 -0.57102447736E+02  0.77782068493E+02  0.41800000000E+01 0.  1.
</event>
<event>
11    1  0.8039394E-009  0.1351819E+03  0.7561462E-02  0.1113061E+00
         22   -1    0    0    0    0  0.00000000000E+00  0.00000000000E+00  0.13328494850E+04  0.13328494850E+04  0.00000000000E+00 0. -1.
         22   -1    0    0    0    0 -0.00000000000E+00 -0.00000000000E+00 -0.10291130842E+03  0.10291130842E+03  0.00000000000E+00 0. -1.
        -24    2    1    2    0    0 -0.27437903927E+02  0.48973912025E+02 -0.57410519107E+02  0.11396393593E+03  0.80873533106E+02 0.  0.
         25    2    1    2    0    0  0.41980049071E+02  0.26089691336E+02  0.28457467246E+03  0.31475434615E+03  0.12507820634E+03 0.  0.
         24    2    1    2    0    0 -0.14542145143E+02 -0.75063603361E+02  0.10027740232E+04  0.10070425113E+04  0.52276758389E+02 0.  0.
        -11    1    5    5    0    0  0.11784216285E+02 -0.19630054825E+02  0.12176907855E+03  0.12390284620E+03  0.00000000000E+00 0.  1.
         12    1    5    5    0    0 -0.26326361429E+02 -0.55433548535E+02  0.88100494467E+03  0.88313966514E+03  0.00000000000E+00 0. -1.
         11    1    3    3    0    0 -0.35001809917E+02  0.44105773742E+02 -0.75250530030E+02  0.93984510664E+02  0.00000000000E+00 0. -1.
        -12    1    3    3    0    0  0.75639059895E+01  0.48681382825E+01  0.17840010923E+02  0.19979425264E+02  0.00000000000E+00 0.  1.
          5    1    4    4  501    0 -0.42979662271E+02 -0.18350444392E+01  0.70240350596E+02  0.82473013822E+02  0.41800000000E+01 0. -1.
         -5    1    4    4    0  501  0.84959711341E+02  0.27924735775E+02  0.21433432186E+03  0.23228133233E+03  0.41800000000E+01 0. -1.
</event>
<event>
11    1  0.8039394E-009  0.1724444E+03  0.7561462E-02  0.1075924E+00
         22   -1    0    0    0    0  0.00000000000E+00  0.00000000000E+00  0.10365075620E+03  0.10365075620E+03  0.00000000000E+00 0. -1.
         22   -1    0    0    0    0 -0.00000000000E+00 -0.00000000000E+00 -0.97815105972E+03  0.97815105972E+03  0.00000000000E+00 0.  1.
        -24    2    1    2    0    0 -0.58117264361E+02  0.11044051072E+03 -0.72943297745E+03  0.74422732419E+03  0.78912094470E+02 0.  0.
         25    2    1    2    0    0 -0.64490433771E+01 -0.10392505456E+03 -0.16559736639E+03  0.23219269227E+03  0.12509576916E+03 0.  0.
         24    2    1    2    0    0  0.64566307738E+02 -0.65154561569E+01  0.20530040324E+02  0.10538179946E+03  0.80452357567E+02 0.  0.
        -13    1    5    5    0    0  0.59185681114E+02 -0.56201609320E+01 -0.21334049703E+02  0.63163856236E+02  0.00000000000E+00 0.  1.
         14    1    5    5    0    0  0.53806266240E+01 -0.89529522487E+00  0.41864090027E+02  0.42217943225E+02  0.00000000000E+00 0. -1.
         13    1    3    3    0    0  0.17858132730E+02  0.38203849320E+02 -0.17908657871E+03  0.18398491700E+03  0.00000000000E+00 0. -1.
        -14    1    3    3    0    0 -0.75975397091E+02  0.72236661401E+02 -0.55034639874E+03  0.56024240719E+03  0.00000000000E+00 0.  1.
          5    1    4    4  501    0  0.45198087648E+02 -0.99510982630E+02 -0.12586562841E+03  0.16674810826E+03  0.41800000000E+01 0.  1.
         -5    1    4    4    0  501 -0.51647131025E+02 -0.44140719348E+01 -0.39731737971E+02  0.65444584011E+02  0.41800000000E+01 0.  1.
</event>
<event>
11    1  0.8039394E-009  0.2594635E+03  0.7561462E-02  0.1018975E+00
         22   -1    0    0    0    0  0.00000000000E+00  0.00000000000E+00  0.74457880189E+03  0.74457880189E+03  0.00000000000E+00 0. -1.
         22   -1    0    0    0    0 -0.00000000000E+00 -0.00000000000E+00 -0.33947586746E+03  0.33947586746E+03  0.00000000000E+00 0. -1.
         24    2    1    2    0    0 -0.23903657033E+03  0.96174734659E+01 -0.19461774428E+03  0.31840194932E+03  0.79200739845E+02 0.  0.
         25    2    1    2    0    0  0.19485948693E+03  0.98887695319E+01  0.91869488098E+02  0.24931014498E+03  0.12509012006E+03 0.  0.
        -24    2    1    2    0    0  0.44177083395E+02 -0.19506242998E+02  0.50785119061E+03  0.51634257505E+03  0.79779162634E+02 0.  0.
        -13    1    3    3    0    0 -0.12422939933E+03 -0.23787364949E+02 -0.13428042074E+03  0.18447225749E+03  0.00000000000E+00 0.  1.
         14    1    3    3    0    0 -0.11480717100E+03  0.33404838415E+02 -0.60337323541E+02  0.13392969183E+03  0.00000000000E+00 0. -1.
         11    1    5    5    0    0  0.40105310653E+02  0.57659405520E+01  0.46245509064E+03  0.46422666110E+03  0.00000000000E+00 0. -1.
        -12    1    5    5    0    0  0.40717727423E+01 -0.25272183550E+02  0.45396099967E+02  0.52115913950E+02  0.00000000000E+00 0.  1.
          5    1    4    4  501    0 -0.15543658018E+02  0.12349010439E+02  0.17328745235E+01  0.20361203735E+02  0.41800000000E+01 0. -1.
         -5    1    4    4    0  501  0.21040314495E+03 -0.24602409074E+01  0.90136613575E+02  0.22894894124E+03  0.41800000000E+01 0. -1.
</event>
<event>
11    1  0.8039394E-009  0.1382819E+03  0.7561462E-02  0.1109492E+00
         22   -1    0    0    0    0  0.00000000000E+00  0.00000000000E+00  0.47920216470E+03  0.47920216470E+03  0.00000000000E+00 0. -1.
         22   -1    0    0    0    0 -0.00000000000E+00 -0.00000000000E+00 -0.10680788892E+04  0.10680788892E+04  0.00000000000E+00 0.  1.
        -24    2    1    2    0    0 -0.46852195228E+02 -0.34112740164E+02 -0.94419537219E+03  0.94946783717E+03  0.81396963862E+02 0.  0.
         25    2    1    2    0    0  0.61856964357E+02  0.45369941223E+02 -0.71358845357E+02  0.16315868192E+03  0.12507579730E+03 0.  0.
         24    2    1    2    0    0 -0.15004769129E+02 -0.11257201059E+02  0.42667749305E+03  0.43465453479E+03  0.80740410333E+02 0.  0.
        -11    1    5    5    0    0 -0.45129246550E+02 -0.10216529792E+02  0.16899645169E+03  0.17521651480E+03  0.00000000000E+00 0.  1.
         12    1    5    5    0    0  0.30124477421E+02 -0.10406712675E+01  0.25768104136E+03  0.25943801998E+03  0.00000000000E+00 0. -1.
         11    1    3    3    0    0  0.40576408290E+01 -0.36811854747E+02 -0.19152227663E+03  0.19507014006E+03  0.00000000000E+00 0. -1.
        -12    1    3    3    0    0 -0.50909836057E+02  0.26991145835E+01 -0.75267309556E+03  0.75439769711E+03  0.00000000000E+00 0.  1.
          5    1    4    4  501    0  0.42459557937E+02  0.60970764940E+02  0.12611241706E+02  0.75476910741E+02  0.41800000000E+01 0. -1.
         -5    1    4    4    0  501  0.19397406420E+02 -0.15600823717E+02 -0.83970087063E+02  0.87681771184E+02  0.41800000000E+01 0. -1.
</event>
<event>
11    1  0.8039394E-009  0.1734525E+03  0.7561462E-02  0.1075066E+00
         22   -1    0    0    0    0  0.00000000000E+00  0.00000000000E+00  0.19163293941E+03  0.19163293941E+03  0.00000000000E+00 0.  1.
         22   -1    0    0    0    0 -0.00000000000E+00 -0.00000000000E+00 -0.41544989385E+03  0.41544989385E+03  0.00000000000E+00 0.  1.
         24    2    1    2    0    0 -0.83903076391E+02 -0.77806554010E+02 -0.20513438386E+03  0.24736873430E+03  0.77573121582E+02 0.  0.
         25    2    1    2    0    0  0.44181167852E+02  0.14372770365E+03 -0.10072555753E+03  0.22000681318E+03  0.12509089302E+03 0.  0.
        -24    2    1    2    0    0  0.39721908539E+02 -0.65921149637E+02  0.82042986950E+02  0.13970728579E+03  0.82847124316E+02 0.  0.
        -13    1    3    3    0    0 -0.28670113326E+02 -0.75066142067E+02 -0.14423094194E+03  0.16510440847E+03  0.00000000000E+00 0.  1.
         14    1    3    3    0    0 -0.55232963064E+02 -0.27404119431E+01 -0.60903441922E+02  0.82264325831E+02  0.00000000000E+00 0. -1.
         13    1    5    5    0    0  0.12355568689E+02 -0.79677476908E+02  0.47669448123E+02  0.93667159070E+02  0.00000000000E+00 0. -1.
        -14    1    5    5    0    0  0.27366339850E+02  0.13756327271E+02  0.34373538827E+02  0.46040126719E+02  0.00000000000E+00 0.  1.
          5    1    4    4  501    0  0.37542930159E+02  0.12718726167E+03 -0.12982444677E+03  0.18562847442E+03  0.41800000000E+01 0. -1.
         -5    1    4    4    0  501  0.66382376930E+01  0.16540441976E+02  0.29098889244E+02  0.34378338757E+02  0.41800000000E+01 0. -1.
</event>
<event>
11    1  0.8039394E-009  0.1774978E+03  0.7561462E-02  0.1071685E+00
         22   -1    0    0    0    0  0.00000000000E+00  0.00000000000E+00  0.44670004671E+03  0.44670004671E+03  0.00000000000E+00 0. -1.
         22   -1    0    0    0    0 -0.00000000000E+00 -0.00000000000E+00 -0.25166856682E+03  0.25166856682E+03  0.00000000000E+00 0. -1.
         24    2    1    2    0    0  0.48018076874E+02 -0.75981615075E+01 -0.15782642329E+03  0.18158200571E+03  0.75494219279E+02 0.  0.
         25    2    1    2    0    0 -0.13425375449E+03 -0.74449274984E+02  0.90361984222E+02  0.21766843929E+03  0.12508995217E+03 0.  0.
        -24    2    1    2    0    0  0.86235677614E+02  0.82047436492E+02  0.26249591895E+03  0.29911816853E+03  0.79994983277E+02 0.  0.
        -11    1    3    3    0    0  0.29159869691E+02  0.51994525465E+01 -0.89088417694E+01  0.30930563669E+02  0.00000000000E+00 0.  1.
         12    1    3    3    0    0  0.18858207183E+02 -0.12797614054E+02 -0.14891758152E+03  0.15065144204E+03  0.00000000000E+00 0. -1.
         11    1    5    5    0    0  0.73029901564E+02  0.62642549754E+02  0.11579851180E+03  0.15055481028E+03  0.00000000000E+00 0. -1.
        -12    1    5    5    0    0  0.13205776050E+02  0.19404886738E+02  0.14669740715E+03  0.14856335825E+03  0.00000000000E+00 0.  1.
          5    1    4    4  501    0 -0.82940438378E+02  0.13955600513E+02  0.77707813896E+02  0.11458556560E+03  0.41800000000E+01 0. -1.
         -5    1    4    4    0  501 -0.51313316110E+02 -0.88404875498E+02  0.12654170326E+02  0.10308287369E+03  0.41800000000E+01 0. -1.
</event>
<event>
11    1  0.8039394E-009  0.1358653E+03  0.7561462E-02  0.1112265E+00
         22   -1    0    0    0    0  0.00000000000E+00  0.00000000000E+00  0.29014959066E+03  0.29014959066E+03  0.00000000000E+00 0. -1.
         22   -1    0    0    0    0 -0.00000000000E+00 -0.00000000000E+00 -0.25534649939E+03  0.25534649939E+03  0.00000000000E+00 0.  1.
         24    2    1    2    0    0  0.35331632941E+01 -0.20532776306E+01 -0.19510744495E+03  0.21098017997E+03  0.80181182789E+02 0.  0.
         25    2    1    2    0    0 -0.53030730339E+02 -0.14708202436E+02  0.87040271480E+02  0.16202509297E+03  0.12509009678E+03 0.  0.
        -24    2    1    2    0    0  0.49497567044E+02  0.16761480067E+02  0.14287026474E+03  0.17249081711E+03  0.81303216933E+02 0.  0.
        -13    1    3    3    0    0 -0.76264528479E+01 -0.38741359993E+02 -0.73020887651E+02  0.83012684516E+02  0.00000000000E+00 0.  1.
         14    1    3    3    0    0  0.11159616142E+02  0.36688082362E+02 -0.12208655730E+03  0.12796749545E+03  0.00000000000E+00 0. -1.
         11    1    5    5    0    0  0.56824504275E+02 -0.11131739214E+02  0.12698902269E+03  0.13956773190E+03  0.00000000000E+00 0. -1.
        -12    1    5    5    0    0 -0.73269372302E+01  0.27893219281E+02  0.15881242058E+02  0.32923085219E+02  0.00000000000E+00 0.  1.
          5    1    4    4  501    0 -0.72479945672E+02 -0.44133340883E+02  0.93047835569E+02  0.12600185081E+03  0.41800000000E+01 0. -1.
         -5    1    4    4    0  501  0.19449215334E+02  0.29425138447E+02 -0.60075640893E+01  0.36023242164E+02  0.41800000000E+01 0. -1.
</event>
<event>
11    1  0.8039394E-009  0.4247308E+03  0.7561462E-02  0.9579481E-01
         22   -1    0    0    0    0  0.00000000000E+00  0.00000000000E+00  0.26702477988E+04  0.26702477988E+04  0.00000000000E+00 0. -1.
         22   -1    0    0    0    0 -0.00000000000E+00 -0.00000000000E+00 -0.12006611470E+03  0.12006611470E+03  0.00000000000E+00 0. -1.
        -24    2    1    2    0    0 -0.15576282581E+03  0.94578645157E+02  0.55405517683E+03  0.58892066882E+03  0.81506055965E+02 0.  0.
         25    2    1    2    0    0  0.18278558521E+03 -0.41248060361E+03  0.56954384791E+03  0.73727670584E+03  0.12508368304E+03 0.  0.
         24    2    1    2    0    0 -0.27022759400E+02  0.31790195846E+03  0.14265826594E+04  0.14641165389E+04  0.81897927930E+02 0.  0.
        -13    1    5    5    0    0 -0.38982306460E+02  0.30995959258E+03  0.13141993635E+04  0.13508199496E+04  0.00000000000E+00 0.  1.
         14    1    5    5    0    0  0.11959547060E+02  0.79423658769E+01  0.11238329592E+03  0.11329658928E+03  0.00000000000E+00 0. -1.
         13    1    3    3    0    0 -0.11492296473E+03  0.93198490473E+02  0.33699200671E+03  0.36804464272E+03  0.00000000000E+00 0. -1.
        -14    1    3    3    0    0 -0.40839861085E+02  0.13801546845E+01  0.21706317013E+03  0.22087602610E+03  0.00000000000E+00 0.  1.
          5    1    4    4  501    0  0.11043186879E+01 -0.26205052424E+02  0.13576299873E+01  0.26593981490E+02  0.41800000000E+01 0. -1.
         -5    1    4    4    0  501  0.18168126653E+03 -0.38627555119E+03  0.56818621793E+03  0.71068272435E+03  0.41800000000E+01 0. -1.
</event>
<event>
11    1  0.8039394E-009  0.1662266E+03  0.7561462E-02  0.1081363E+00
         22   -1    0    0    0    0  0.00000000000E+00  0.00000000000E+00  0.29238685571E+04  0.29238685571E+04  0.00000000000E+00 0. -1.
         22   -1    0    0    0    0 -0.00000000000E+00 -0.00000000000E+00 -0.12428575278E+03  0.12428575278E+03  0.00000000000E+00 0.  1.
         24    2    1    2    0    0  0.10203610332E+03  0.24173061081E+02 -0.65432317049E+02  0.14081081172E+03  0.67458085649E+02 0.  0.
         25    2    1    2    0    0 -0.19319324390E+03 -0.22862090970E+02  0.66707252773E+03  0.70603140619E+03  0.12509310362E+03 0.  0.
        -24    2    1    2    0    0  0.91157140583E+02 -0.13109701113E+01  0.21979425937E+04  0.22013120920E+04  0.80696582683E+02 0.  0.
        -13    1    3    3    0    0  0.99770115243E+02  0.23171018246E+01 -0.64483213896E+02  0.11881721142E+03  0.00000000000E+00 0.  1.
         14    1    3    3    0    0  0.22659880759E+01  0.21855959257E+02 -0.94910315261E+00  0.21993600292E+02  0.00000000000E+00 0. -1.
         11    1    5    5    0    0  0.28850807643E+02  0.35347978610E+02  0.11332180933E+04  0.11341362773E+04  0.00000000000E+00 0. -1.
        -12    1    5    5    0    0  0.62306332939E+02 -0.36658948721E+02  0.10647245004E+04  0.10671758147E+04  0.00000000000E+00 0.  1.
          5    1    4    4  501    0 -0.13115290497E+02 -0.47471315032E+02  0.14941987293E+03  0.15738267828E+03  0.41800000000E+01 0.  1.
         -5    1    4    4    0  501 -0.18007795340E+03  0.24609224062E+02  0.51765265480E+03  0.54864872791E+03  0.41800000000E+01 0.  1.
</event>
<event>
11    1  0.8039394E-009  0.1433756E+03  0.7561462E-02  0.1103846E+00
         22   -1    0    0    0    0  0.00000000000E+00  0.00000000000E+00  0.65661471714E+03  0.65661471714E+03  0.00000000000E+00 0. -1.
         22   -1    0    0    0    0 -0.00000000000E+00 -0.00000000000E+00 -0.33679949464E+03  0.33679949464E+03  0.00000000000E+00 0.  1.
         24    2    1    2    0    0  0.26731121939E+02  0.29563228370E+02 -0.19621806717E+03  0.21625741810E+03  0.81714158169E+02 0.  0.
         25    2    1    2    0    0  0.43398953496E+02 -0.16753556422E+02 -0.89992117408E+02  0.16096588177E+03  0.12508910057E+03 0.  0.
        -24    2    1    2    0    0 -0.70130075436E+02 -0.12809671948E+02  0.60602540708E+03  0.61619091191E+03  0.85686234108E+02 0.  0.
        -13    1    3    3    0    0  0.85699065255E+01  0.25037408755E+02 -0.19575436921E+03  0.19753503031E+03  0.00000000000E+00 0.  1.
         14    1    3    3    0    0  0.18161215414E+02  0.45258196152E+01 -0.46369795895E+00  0.18722387783E+02  0.00000000000E+00 0. -1.
         11    1    5    5    0    0 -0.33992436066E+02 -0.75656440000E+01  0.53676815056E+03  0.53789661844E+03  0.00000000000E+00 0. -1.
        -12    1    5    5    0    0 -0.36137639369E+02 -0.52440279483E+01  0.69257256525E+02  0.78294293468E+02  0.00000000000E+00 0.  1.
          5    1    4    4  501    0  0.16458012076E+02 -0.34639452450E+02  0.21940743514E+02  0.44380473786E+02  0.41800000000E+01 0. -1.
         -5    1    4    4    0  501  0.26940941421E+02  0.17885896028E+02 -0.11193286092E+03  0.11658540799E+03  0.41800000000E+01 0. -1.
</event>
<event>
11    1  0.8039394E-009  0.2483188E+03  0.7561462E-02  0.1024799E+00
         22   -1    0    0    0    0  0.00000000000E+00  0.00000000000E+00  0.61069530061E+03  0.61069530061E+03  0.00000000000E+00 0.  1.
         22   -1    0    0    0    0 -0.00000000000E+00 -0.00000000000E+00 -0.90051045774E+03  0.90051045774E+03  0.00000000000E+00 0.  1.
        -24    2    1    2    0    0  0.74698243110E+02  0.17382258493E+01 -0.66606868680E+03  0.67523984548E+03  0.81966483644E+02 0.  0.
         25    2    1    2    0    0 -0.26793574848E+03  0.72419780092E+02 -0.91797508538E+02  0.31797665314E+03  0.12509268368E+03 0.  0.
         24    2    1    2    0    0  0.19323750537E+03 -0.74158005942E+02  0.46805103821E+03  0.51798925973E+03  0.80005971657E+02 0.  0.
        -11    1    5    5    0    0  0.14805462346E+03 -0.46194367638E+02  0.25542606880E+03  0.29882531311E+03  0.00000000000E+00 0.  1.
         12    1    5    5    0    0  0.45182881910E+02 -0.27963638304E+02  0.21262496940E+03  0.21916394662E+03  0.00000000000E+00 0. -1.
         13    1    3    3    0    0  0.59000170031E+02  0.31190821058E+02 -0.28487303253E+03  0.29258593959E+03  0.00000000000E+00 0. -1.
        -14    1    3    3    0    0  0.15698073078E+02 -0.29452595209E+02 -0.38119565427E+03  0.38265390589E+03  0.00000000000E+00 0.  1.
          5    1    4    4  501    0 -0.42940329236E+02 -0.17139594515E+02  0.20814669531E+02  0.50875931861E+02  0.41800000000E+01 0.  1.
         -5    1    4    4    0  501 -0.22499541924E+03  0.89559374608E+02 -0.11261217807E+03  0.26710072128E+03  0.41800000000E+01 0.  1.
</event>
<event>
11    1  0.8039394E-009  0.2425023E+03  0.7561462E-02  0.1027971E+00
         22   -1    0    0    0    0  0.00000000000E+00  0.00000000000E+00  0.11109105864E+04  0.11109105864E+04  0.00000000000E+00 0.  1.
         22   -1    0    0    0    0 -0.00000000000E+00 -0.00000000000E+00 -0.29171410900E+03  0.29171410900E+03  0.00000000000E+00 0.  1.
        -24    2    1    2    0    0  0.11431496642E+03 -0.16834997352E+03 -0.11446287638E+03  0.24729198431E+03  0.81498161358E+02 0.  0.
         25    2    1    2    0    0 -0.42207510335E+02  0.22770738636E+03  0.55790849332E+02  0.26905773600E+03  0.12508924295E+03 0.  0.
         24    2    1    2    0    0 -0.72107456085E+02 -0.59357412839E+02  0.87786850446E+03  0.88627497509E+03  0.78150065084E+02 0.  0.
        -13    1    5    5    0    0 -0.39934734148E+02 -0.72676720425E+02  0.50268170742E+03  0.50947579693E+03  0.00000000000E+00 0.  1.
         14    1    5    5    0    0 -0.32172721937E+02  0.13319307587E+02  0.37518679704E+03  0.37679917816E+03  0.00000000000E+00 0. -1.
         11    1    3    3    0    0  0.59515357874E+02 -0.23323292995E+02 -0.28102997752E+02  0.69827160200E+02  0.00000000000E+00 0. -1.
        -12    1    3    3    0    0  0.54799608546E+02 -0.14502668052E+03 -0.86359878627E+02  0.17746482411E+03  0.00000000000E+00 0.  1.
          5    1    4    4  501    0  0.17453793570E+02 -0.46462621776E+01 -0.88963517065E+01  0.20563077004E+02  0.41800000000E+01 0. -1.
         -5    1    4    4    0  501 -0.59661303905E+02  0.23235364854E+03  0.64687201038E+02  0.24849465900E+03  0.41800000000E+01 0. -1.
</event>
<event>
11    1  0.8039394E-009  0.1604487E+03  0.7561462E-02  0.1086656E+00
         22   -1    0    0    0    0  0.00000000000E+00  0.00000000000E+00  0.14781089430E+03  0.14781089430E+03  0.00000000000E+00 0.  1.
         22   -1    0    0    0    0 -0.00000000000E+00 -0.00000000000E+00 -0.92695164809E+03  0.92695164809E+03  0.00000000000E+00 0. -1.
         24    2    1    2    0    0  0.48846369225E+02 -0.88501137504E+02 -0.67991955172E+03  0.69161336108E+03  0.76289090241E+02 0.  0.
         25    2    1    2    0    0 -0.56472080539E+02  0.80236270374E+02 -0.19889652782E+03  0.25462301153E+03  0.12508434858E+03 0.  0.
        -24    2    1    2    0    0  0.76257113138E+01  0.82648671294E+01  0.99675325747E+02  0.12852616978E+03  0.80357614789E+02 0.  0.
        -13    1    3    3    0    0 -0.12158475776E+02 -0.33618883043E+02 -0.10621610256E+03  0.11207104119E+03  0.00000000000E+00 0.  1.
         14    1    3    3    0    0  0.61004845001E+02 -0.54882254461E+02 -0.57370344916E+03  0.57954231989E+03  0.00000000000E+00 0. -1.
         11    1    5    5    0    0  0.27175395931E+02 -0.16561196589E+02  0.98636646226E+01  0.33317671831E+02  0.00000000000E+00 0. -1.
        -12    1    5    5    0    0 -0.19549684617E+02  0.24826063719E+02  0.89811661124E+02  0.95208497952E+02  0.00000000000E+00 0.  1.
          5    1    4    4  501    0 -0.65221437760E+02  0.56414006446E+02 -0.20966094821E+03  0.22674117772E+03  0.41800000000E+01 0.  1.
         -5    1    4    4    0  501  0.87493572217E+01  0.23822263928E+02  0.10764420393E+02  0.27881833815E+02  0.41800000000E+01 0.  1.
</event>
<event>
11    1  0.8039394E-009  0.1539432E+03  0.7561462E-02  0.1092916E+00
         22   -1    0    0    0    0  0.00000000000E+00  0.00000000000E+00  0.45918473942E+02  0.45918473942E+02  0.00000000000E+00 0. -1.
         22   -1    0    0    0    0 -0.00000000000E+00 -0.00000000000E+00 -0.16021717941E+04  0.16021717941E+04  0.00000000000E+00 0. -1.
        -24    2    1    2    0    0 -0.24361273188E+02 -0.47702782403E+02 -0.72711896325E+03  0.73335042584E+03  0.78941961453E+02 0.  0.
         25    2    1    2    0    0  0.66701096207E+02 -0.35555060898E+02 -0.75879748206E+03  0.77274462434E+03  0.12508971612E+03 0.  0.
         24    2    1    2    0    0 -0.42339823019E+02  0.83257843302E+02 -0.70336874832E+02  0.14199521785E+03  0.80565729968E+02 0.  0.
        -13    1    5    5    0    0  0.85545038345E+01  0.85602616308E+01 -0.47153337756E+02  0.48681566086E+02  0.00000000000E+00 0.  1.
         14    1    5    5    0    0 -0.50894326853E+02  0.74697581671E+02 -0.23183537076E+02  0.93313651759E+02  0.00000000000E+00 0. -1.
         11    1    3    3    0    0 -0.53079035146E+02 -0.36976638234E+02 -0.48166109117E+03  0.48598566079E+03  0.00000000000E+00 0. -1.
        -12    1    3    3    0    0  0.28717761958E+02 -0.10726144169E+02 -0.24545787208E+03  0.24736476505E+03  0.00000000000E+00 0.  1.
          5    1    4    4  501    0 -0.37143511081E+02 -0.14625783085E+02 -0.20867519183E+03  0.21250026360E+03  0.41800000000E+01 0.  1.
         -5    1    4    4    0  501  0.10384460729E+03 -0.20929277814E+02 -0.55012229023E+03  0.56024436074E+03  0.41800000000E+01 0.  1.
</event>
<event>
11    1  0.8039394E-009  0.4107594E+03  0.7561462E-02  0.9618534E-01
         22   -1    0    0    0    0  0.00000000000E+00  0.00000000000E+00  0.35980774366E+04  0.35980774366E+04  0.00000000000E+00 0. -1.
         22   -1    0    0    0    0 -0.00000000000E+00 -0.00000000000E+00 -0.42478483315E+03  0.42478483315E+03  0.00000000000E+00 0. -1.
        -24    2    1    2    0    0  0.25264724336E+01 -0.53018759958E+02  0.66594478050E+02  0.11628708827E+03  0.79186428263E+02 0.  0.
         25    2    1    2    0    0 -0.71351574777E+02  0.43658094425E+03 -0.25193256289E+03  0.52422473052E+03  0.12509030235E+03 0.  0.
         24    2    1    2    0    0  0.68825102344E+02 -0.38356218429E+03  0.33586306883E+04  0.33823504510E+04  0.89652824245E+02 0.  0.
        -11    1    5    5    0    0  0.31646388178E+01  0.38919828920E+01  0.97238171946E+02  0.97367471740E+02  0.00000000000E+00 0.  1.
         12    1    5    5    0    0  0.65660463526E+02 -0.38745416718E+03  0.32613925163E+04  0.32849829792E+04  0.00000000000E+00 0. -1.
         11    1    3    3    0    0  0.36975637549E+02 -0.21911186055E+02  0.52352672222E+02  0.67735516055E+02  0.00000000000E+00 0. -1.
        -12    1    3    3    0    0 -0.34449165115E+02 -0.31107573902E+02  0.14241805828E+02  0.48551572214E+02  0.00000000000E+00 0.  1.
          5    1    4    4  501    0  0.71935855743E+01  0.48687405867E+02  0.89411970493E+01  0.50195901906E+02  0.41800000000E+01 0.  1.
         -5    1    4    4    0  501 -0.78545160351E+02  0.38789353838E+03 -0.26087375994E+03  0.47402882861E+03  0.41800000000E+01 0.  1.
</event>
<event>
11    1  0.8039394E-009  0.1542030E+03  0.7561462E-02  0.1092660E+00
         22   -1    0    0    0    0  0.00000000000E+00  0.00000000000E+00  0.37871777411E+03  0.37871777411E+03  0.00000000000E+00 0.  1.
         22   -1    0    0    0    0 -0.00000000000E+00 -0.00000000000E+00 -0.13833950082E+04  0.13833950082E+04  0.00000000000E+00 0. -1.
        -24    2    1    2    0    0 -0.52056654988E+02 -0.73254863397E+02 -0.13192120174E+04  0.13251883377E+04  0.87906844133E+02 0.  0.
         25    2    1    2    0    0  0.21466904723E+02  0.11230506749E+03  0.85744171525E+02  0.18992838530E+03  0.12508985734E+03 0.  0.
         24    2    1    2    0    0  0.30589750264E+02 -0.39050204095E+02  0.22879061179E+03  0.24699605927E+03  0.78748066598E+02 0.  0.
        -13    1    5    5    0    0  0.77397277002E+01 -0.57680152550E+02  0.18704326747E+03  0.19588794575E+03  0.00000000000E+00 0.  1.
         14    1    5    5    0    0  0.22850022564E+02  0.18629948454E+02  0.41747344317E+02  0.51108113525E+02  0.00000000000E+00 0. -1.
         13    1    3    3    0    0 -0.61336701817E+02 -0.81528589839E+02 -0.12798363731E+04  0.12838965082E+04  0.00000000000E+00 0. -1.
        -14    1    3    3    0    0  0.92800468295E+01  0.82737264420E+01 -0.39375644308E+02  0.41291829495E+02  0.00000000000E+00 0.  1.
          5    1    4    4  501    0  0.20189108547E+02  0.14585942734E+02  0.88540147464E+02  0.92071602258E+02  0.41800000000E+01 0.  1.
         -5    1    4    4    0  501  0.12777961759E+01  0.97719124758E+02 -0.27959759385E+01  0.97856783046E+02  0.41800000000E+01 0.  1.
</event>
<event>
11    1  0.8039394E-009  0.3555391E+03  0.7561462E-02  0.9790894E-01
         22   -1    0    0    0    0  0.00000000000E+00  0.00000000000E+00  0.16898455837E+04  0.16898455837E+04  0.00000000000E+00 0. -1.
         22   -1    0    0    0    0 -0.00000000000E+00 -0.00000000000E+00 -0.17580786920E+04  0.17580786920E+04  0.00000000000E+00 0. -1.
        -24    2    1    2    0    0  0.79989248650E+01  0.17691325422E+02 -0.82499395032E+03  0.82916304421E+03  0.80742615895E+02 0.  0.
         25    2    1    2    0    0  0.23615900290E+03  0.20896494952E+03 -0.88183288540E+03  0.94483580153E+03  0.12509208333E+03 0.  0.
         24    2    1    2    0    0 -0.24415792776E+03 -0.22665627494E+03  0.16385937274E+04  0.16739254299E+04  0.77786763872E+02 0.  0.
        -13    1    5    5    0    0 -0.14414677580E+03 -0.84532783701E+02  0.87385734101E+03  0.88969137173E+03  0.00000000000E+00 0.  1.
         14    1    5    5    0    0 -0.10001115196E+03 -0.14212349124E+03  0.76473638642E+03  0.78423405817E+03  0.00000000000E+00 0. -1.
         13    1    3    3    0    0 -0.10522742985E+02  0.18338814360E+02 -0.54668957468E+02  0.58615144312E+02  0.00000000000E+00 0. -1.
        -14    1    3    3    0    0  0.18521667850E+02 -0.64748893770E+00 -0.77032499285E+03  0.77054789990E+03  0.00000000000E+00 0.  1.
          5    1    4    4  501    0  0.23239566878E+03  0.22269516604E+03 -0.81268635343E+03  0.87411524715E+03  0.41800000000E+01 0. -1.
         -5    1    4    4    0  501  0.37633341189E+01 -0.13730216521E+02 -0.69146531967E+02  0.70720554384E+02  0.41800000000E+01 0. -1.
</event>
<event>
11    1  0.8039394E-009  0.1725126E+03  0.7561462E-02  0.1075866E+00
         22   -1    0    0    0    0  0.00000000000E+00  0.00000000000E+00  0.96579925255E+02  0.96579925255E+02  0.00000000000E+00 0.  1.
         22   -1    0    0    0    0 -0.00000000000E+00 -0.00000000000E+00 -0.89100650449E+03  0.89100650449E+03  0.00000000000E+00 0.  1.
         24    2    1    2    0    0 -0.11508170731E+03 -0.54448068795E+02 -0.70992352547E+03  0.72563599806E+03  0.79673070243E+02 0.  0.
         25    2    1    2    0    0  0.64649510582E+02  0.29166101163E+02 -0.72819319988E+02  0.16118489128E+03  0.12509074761E+03 0.  0.
        -24    2    1    2    0    0  0.50432196726E+02  0.25281967632E+02 -0.11683733783E+02  0.10076554040E+03  0.82671640505E+02 0.  0.
        -11    1    3    3    0    0 -0.59043022481E+02 -0.66732860018E+02 -0.34972340646E+03  0.36089584943E+03  0.00000000000E+00 0.  1.
         12    1    3    3    0    0 -0.56038684827E+02  0.12284791223E+02 -0.36020011901E+03  0.36474014864E+03  0.00000000000E+00 0. -1.
         11    1    5    5    0    0  0.57167961779E+02  0.25729097553E+02 -0.38193905232E+02  0.73409377546E+02  0.00000000000E+00 0. -1.
        -12    1    5    5    0    0 -0.67357650537E+01 -0.44712992133E+00  0.26510171449E+02  0.27356162857E+02  0.00000000000E+00 0.  1.
          5    1    4    4  501    0 -0.19842827129E+02 -0.97675163934E+01  0.19701662290E+02  0.29912707366E+02  0.41800000000E+01 0.  1.
         -5    1    4    4    0  501  0.84492337711E+02  0.38933617556E+02 -0.92520982278E+02  0.13127218391E+03  0.41800000000E+01 0.  1.
</event>
<event>
11    1  0.8039394E-009  0.1633816E+04  0.7561462E-02  0.8236294E-01
         22   -1    0    0    0    0  0.00000000000E+00  0.00000000000E+00  0.56136919123E+03  0.56136919123E+03  0.00000000000E+00 0. -1.
         22   -1    0    0    0    0 -0.00000000000E+00 -0.00000000000E+00 -0.11887702879E+04  0.11887702879E+04  0.00000000000E+00 0.  1.
         24    2    1    2    0    0 -0.47494090608E+02  0.10873488351E+03 -0.44870195092E+01  0.14340917566E+03  0.80418249077E+02 0.  0.
         25    2    1    2    0    0  0.17413056586E+03 -0.64811348814E+03 -0.76917626400E+03  0.10284215229E+04  0.12508459651E+03 0.  0.
        -24    2    1    2    0    0 -0.12663647525E+03  0.53937860463E+03  0.14626218686E+03  0.57830878051E+03  0.77989373044E+02 0.  0.
        -11    1    3    3    0    0 -0.14537651502E+02  0.10782090693E+03  0.55735454169E+01  0.10893922935E+03  0.00000000000E+00 0.  1.
         12    1    3    3    0    0 -0.32956439106E+02  0.91397657359E+00 -0.10060564926E+02  0.34469946306E+02  0.00000000000E+00 0. -1.
         13    1    5    5    0    0 -0.47227605351E+02  0.28053487143E+03  0.11057491960E+03  0.30521643736E+03  0.00000000000E+00 0. -1.
        -14    1    5    5    0    0 -0.79408869899E+02  0.25884373321E+03  0.35687267264E+02  0.27309234315E+03  0.00000000000E+00 0.  1.
          5    1    4    4  501    0  0.27903385527E+02 -0.34284757439E+03 -0.37720504535E+03  0.51051364020E+03  0.41800000000E+01 0. -1.
         -5    1    4    4    0  501  0.14622718033E+03 -0.30526591375E+03 -0.39197121865E+03  0.51790788275E+03  0.41800000000E+01 0. -1.
</event>
<event>
11    1  0.8039394E-009  0.1472384E+03  0.7561462E-02  0.1099734E+00
         22   -1    0    0    0    0  0.00000000000E+00  0.00000000000E+00  0.11663145482E+04  0.11663145482E+04  0.00000000000E+00 0. -1.
         22   -1    0    0    0    0 -0.00000000000E+00 -0.00000000000E+00 -0.30057118085E+03  0.30057118085E+03  0.00000000000E+00 0.  1.
        -24    2    1    2    0    0 -0.28659659004E+02 -0.74609373760E+02 -0.27297724233E+03  0.29578882851E+03  0.81157387418E+02 0.  0.
         25    2    1    2    0    0 -0.71668806787E+01  0.20107177198E+02  0.29707487467E+03  0.32304245710E+03  0.12508910895E+03 0.  0.
         24    2    1    2    0    0  0.35826539683E+02  0.54502196562E+02  0.84164573501E+03  0.84805444343E+03  0.81084926991E+02 0.  0.
        -11    1    5    5    0    0  0.25931441420E+02  0.49017591935E+02  0.24082425083E+03  0.24712645298E+03  0.00000000000E+00 0.  1.
         12    1    5    5    0    0  0.98950982630E+01  0.54846046272E+01  0.60082148418E+03  0.60092799046E+03  0.00000000000E+00 0. -1.
         11    1    3    3    0    0 -0.40854254607E+02 -0.45588386055E+01 -0.76568038900E+02  0.86905222570E+02  0.00000000000E+00 0. -1.
        -12    1    3    3    0    0  0.12194595603E+02 -0.70050535154E+02 -0.19640920343E+03  0.20888360594E+03  0.00000000000E+00 0.  1.
          5    1    4    4  501    0 -0.44126764428E+00 -0.27479865391E+02  0.65778685627E+01  0.28567087249E+02  0.41800000000E+01 0. -1.
         -5    1    4    4    0  501 -0.67256130344E+01  0.47587042589E+02  0.29049700611E+03  0.29447536985E+03  0.41800000000E+01 0. -1.
</event>
<event>
11    1  0.8039394E-009  0.1349347E+03  0.7561462E-02  0.1113350E+00
         22   -1    0    0    0    0  0.00000000000E+00  0.00000000000E+00  0.50966656101E+03  0.50966656101E+03  0.00000000000E+00 0.  1.
         22   -1    0    0    0    0 -0.00000000000E+00 -0.00000000000E+00 -0.12867289726E+04  0.12867289726E+04  0.00000000000E+00 0.  1.
        -24    2    1    2    0    0  0.36503249694E+02 -0.36708623167E+02 -0.11980908151E+04  0.12042773091E+04  0.11037312037E+03 0.  0.
         25    2    1    2    0    0 -0.25216526292E+02  0.19070431209E+02 -0.30891267566E+02  0.13266937290E+03  0.12508931828E+03 0.  0.
         24    2    1    2    0    0 -0.11286723402E+02  0.17638191958E+02  0.45191967113E+03  0.45944885157E+03  0.80145880228E+02 0.  0.
        -11    1    5    5    0    0  0.18120566609E+02 -0.24792630276E+02  0.19369244416E+03  0.19611168342E+03  0.00000000000E+00 0.  1.
         12    1    5    5    0    0 -0.29407290011E+02  0.42430822234E+02  0.25822722697E+03  0.26333716815E+03  0.00000000000E+00 0. -1.
         11    1    3    3    0    0 -0.31898499385E+02 -0.22487541641E+02 -0.20176852432E+03  0.20550849423E+03  0.00000000000E+00 0. -1.
        -12    1    3    3    0    0  0.68401749079E+02 -0.14221081526E+02 -0.99632229078E+03  0.99876881487E+03  0.00000000000E+00 0.  1.
          5    1    4    4  501    0 -0.31021246506E+02 -0.15980795390E+02  0.40010285784E+02  0.53254097726E+02  0.41800000000E+01 0. -1.
         -5    1    4    4    0  501  0.58047202141E+01  0.35051226599E+02 -0.70901553350E+02  0.79415275170E+02  0.41800000000E+01 0. -1.
</event>
<event>
11    1  0.8039394E-009  0.1450950E+03  0.7561462E-02  0.1101999E+00
         22   -1    0    0    0    0  0.00000000000E+00  0.00000000000E+00  0.34631865486E+03  0.34631865486E+03  0.00000000000E+00 0.  1.
         22   -1    0    0    0    0 -0.00000000000E+00 -0.00000000000E+00 -0.75901072172E+03  0.75901072172E+03  0.00000000000E+00 0. -1.
         24    2    1    2    0    0 -0.20618859762E+02 -0.11089654732E+02 -0.60532710125E+03  0.61090740956E+03  0.78986364229E+02 0.  0.
         25    2    1    2    0    0 -0.19408215325E+02 -0.52186311131E+02 -0.10756084642E+03  0.17411785966E+03  0.12509038124E+03 0.  0.
        -24    2    1    2    0    0  0.40027075087E+02  0.63275965863E+02  0.30019588080E+03  0.32030410736E+03  0.82892338282E+02 0.  0.
        -13    1    3    3    0    0 -0.32608910081E+01 -0.68852133424E+01 -0.28014600507E+01  0.81171270381E+01  0.00000000000E+00 0.  1.
         14    1    3    3    0    0 -0.17357968754E+02 -0.42044413892E+01 -0.60252564120E+03  0.60279028253E+03  0.00000000000E+00 0. -1.
         13    1    5    5    0    0 -0.91445591909E+01  0.26238218361E+02  0.22176565496E+02  0.35550908888E+02  0.00000000000E+00 0. -1.
        -14    1    5    5    0    0  0.49171634278E+02  0.37037747502E+02  0.27801931530E+03  0.28475319847E+03  0.00000000000E+00 0.  1.
          5    1    4    4  501    0 -0.77247496957E+01  0.36221808810E+02 -0.65655839136E+02  0.75497369517E+02  0.41800000000E+01 0.  1.
         -5    1    4    4    0  501 -0.11683465630E+02 -0.88408119941E+02 -0.41905007282E+02  0.98620490142E+02  0.41800000000E+01 0.  1.
</event>
<event>
11    1  0.8039394E-009  0.1322902E+03  0.7561462E-02  0.1116487E+00
         22   -1    0    0    0    0  0.00000000000E+00  0.00000000000E+00  0.26008028541E+03  0.26008028541E+03  0.00000000000E+00 0. -1.
         22   -1    0    0    0    0 -0.00000000000E+00 -0.00000000000E+00 -0.13176642656E+04  0.13176642656E+04  0.00000000000E+00 0.  1.
         24    2    1    2    0    0  0.32114683366E+00 -0.43723313377E+02 -0.12138594685E+04  0.12173097591E+04  0.80476140096E+02 0.  0.
         25    2    1    2    0    0 -0.38924298850E+02  0.23477679781E+02 -0.44500666864E+02  0.14033479451E+03  0.12508893920E+03 0.  0.
        -24    2    1    2    0    0  0.38603152016E+02  0.20245633595E+02  0.20077615518E+03  0.22009999737E+03  0.78948434622E+02 0.  0.
        -11    1    3    3    0    0 -0.20101190909E+02 -0.44998676793E+02 -0.11268256264E+04  0.11279028908E+04  0.00000000000E+00 0.  1.
         12    1    3    3    0    0  0.20422337743E+02  0.12753634164E+01 -0.87033842067E+02  0.89406868281E+02  0.00000000000E+00 0. -1.
         11    1    5    5    0    0  0.19341234943E+02  0.21074408623E+01  0.19085366331E+03  0.19184276237E+03  0.00000000000E+00 0. -1.
        -12    1    5    5    0    0  0.19261917073E+02  0.18138192733E+02  0.99224918715E+01  0.28257235001E+02  0.00000000000E+00 0.  1.
          5    1    4    4  501    0 -0.58935365570E+01 -0.29980148969E+02  0.29834439589E+02  0.42908149470E+02  0.41800000000E+01 0.  1.
         -5    1    4    4    0  501 -0.33030762293E+02  0.53457828750E+02 -0.74335106453E+02  0.97426645040E+02  0.41800000000E+01 0.  1.
</event>
<event>
11    1  0.8039394E-009  0.1324795E+03  0.7561462E-02  0.1116259E+00
         22   -1    0    0    0    0  0.00000000000E+00  0.00000000000E+00  0.23086977091E+04  0.23086977091E+04  0.00000000000E+00 0.  1.
         22   -1    0    0    0    0 -0.00000000000E+00 -0.00000000000E+00 -0.19071274490E+03  0.19071274490E+03  0.00000000000E+00 0.  1.
         24    2    1    2    0    0  0.11288703744E+02  0.41209577612E+02 -0.15283500527E+03  0.17736672698E+03  0.79213337801E+02 0.  0.
         25    2    1    2    0    0  0.15406720784E+02 -0.63995863942E+02  0.17770595890E+03  0.22706936438E+03  0.12509296850E+03 0.  0.
        -24    2    1    2    0    0 -0.26695424528E+02  0.22786286330E+02  0.20931140105E+04  0.20949743626E+04  0.80990482904E+02 0.  0.
        -13    1    3    3    0    0  0.26599854529E+02  0.41301657775E+02 -0.15435114715E+03  0.16198041802E+03  0.00000000000E+00 0.  1.
         14    1    3    3    0    0 -0.15311150785E+02 -0.92080163477E-01  0.15161418845E+01  0.15386308957E+02  0.00000000000E+00 0. -1.
         13    1    5    5    0    0 -0.20927887523E+02 -0.18646644777E+02  0.28468226084E+03  0.28605884618E+03  0.00000000000E+00 0. -1.
        -14    1    5    5    0    0 -0.57675370044E+01  0.41432931108E+02  0.18084317497E+04  0.18089155164E+04  0.00000000000E+00 0.  1.
          5    1    4    4  501    0  0.64244950945E+02 -0.40030347759E+02  0.14454880424E+03  0.16322276701E+03  0.41800000000E+01 0.  1.
         -5    1    4    4    0  501 -0.48838230161E+02 -0.23965516183E+02  0.33157154652E+02  0.63846597371E+02  0.41800000000E+01 0.  1.
</event>
<event>
11    1  0.8039394E-009  0.1275958E+03  0.7561462E-02  0.1122259E+00
         22   -1    0    0    0    0  0.00000000000E+00  0.00000000000E+00  0.73323235602E+02  0.73323235602E+02  0.00000000000E+00 0.  1.
         22   -1    0    0    0    0 -0.00000000000E+00 -0.00000000000E+00 -0.10303239958E+04  0.10303239958E+04  0.00000000000E+00 0. -1.
         24    2    1    2    0    0 -0.27582946952E+01 -0.29065668114E+02 -0.78366665814E+03  0.78984022606E+03  0.94136764174E+02 0.  0.
         25    2    1    2    0    0  0.24081068531E+02 -0.49738739393E+01 -0.18231545068E+03  0.22246619818E+03  0.12509056117E+03 0.  0.
        -24    2    1    2    0    0 -0.21322773836E+02  0.34039542053E+02  0.89813486235E+01  0.91340807159E+02  0.81542181244E+02 0.  0.
        -11    1    3    3    0    0 -0.35921117391E+01  0.34389638958E+02 -0.31645363283E+03  0.31833701052E+03  0.00000000000E+00 0.  1.
         12    1    3    3    0    0  0.83381704390E+00 -0.63455307072E+02 -0.46721302531E+03  0.47150321554E+03  0.00000000000E+00 0. -1.
         13    1    5    5    0    0  0.23138730142E+01 -0.22999262378E+02 -0.12109962916E+02  0.26095426421E+02  0.00000000000E+00 0. -1.
        -14    1    5    5    0    0 -0.23636646850E+02  0.57038804431E+02  0.21091311539E+02  0.65245380738E+02  0.00000000000E+00 0.  1.
          5    1    4    4  501    0  0.14516508351E+02  0.54706384032E+02 -0.45172072412E+02  0.72536239181E+02  0.41800000000E+01 0. -1.
         -5    1    4    4    0  501  0.95645601800E+01 -0.59680257971E+02 -0.13714337827E+03  0.14992995900E+03  0.41800000000E+01 0. -1.
</event>
<event>
11    1  0.8039394E-009  0.1750041E+03  0.7561462E-02  0.1073757E+00
         22   -1    0    0    0    0  0.00000000000E+00  0.00000000000E+00  0.54150505725E+03  0.54150505725E+03  0.00000000000E+00 0. -1.
         22   -1    0    0    0    0 -0.00000000000E+00 -0.00000000000E+00 -0.85576453111E+03  0.85576453111E+03  0.00000000000E+00 0.  1.
        -24    2    1    2    0    0  0.14854982085E+02  0.22372638546E+02 -0.70196223635E+03  0.70714269660E+03  0.81108610195E+02 0.  0.
         25    2    1    2    0    0 -0.10001889691E+03  0.66093246081E+02 -0.86628820796E+02  0.19371218627E+03  0.12509101327E+03 0.  0.
         24    2    1    2    0    0  0.85163914825E+02 -0.88465884627E+02  0.47433158328E+03  0.49641470549E+03  0.79737091731E+02 0.  0.
        -13    1    5    5    0    0  0.13713955078E+02  0.65742375089E+01  0.13001850560E+02  0.20008530198E+02  0.00000000000E+00 0.  1.
         14    1    5    5    0    0  0.71449959747E+02 -0.95040122136E+02  0.46132973272E+03  0.47640617529E+03  0.00000000000E+00 0. -1.
         13    1    3    3    0    0  0.31735641989E+02  0.23409433847E+02 -0.15562471482E+03  0.16054346586E+03  0.00000000000E+00 0. -1.
        -14    1    3    3    0    0 -0.16880659904E+02 -0.10367953008E+01 -0.54633752153E+03  0.54659923074E+03  0.00000000000E+00 0.  1.
          5    1    4    4  501    0 -0.99138343775E+02  0.97051013767E+02 -0.55143576383E+02  0.14935058385E+03  0.41800000000E+01 0. -1.
         -5    1    4    4    0  501 -0.88055313509E+00 -0.30957767686E+02 -0.31485244413E+02  0.44361602425E+02  0.41800000000E+01 0. -1.
</event>
<event>
11    1  0.1349362E-008  0.2047903E+03  0.7561462E-02  0.1051187E+00
         22   -1    0    0    0    0  0.00000000000E+00  0.00000000000E+00  0.26536641738E+03  0.26536641738E+03  0.00000000000E+00 0. -1.
         22   -1    0    0    0    0 -0.00000000000E+00 -0.00000000000E+00 -0.24631556862E+04  0.24631556862E+04  0.00000000000E+00 0. -1.
         24    2    1    2    0    0 -0.40038776073E+02 -0.23043524095E+02 -0.18276771790E+04  0.18298839710E+04  0.77054326014E+02 0.  0.
         25    2    1    2    0    0 -0.58015844241E+02 -0.10888835008E+03 -0.58798084510E+03  0.61367186637E+03  0.12509666024E+03 0.  0.
        -24    2    1    2    0    0  0.98054620315E+02  0.13193187418E+03  0.21786875523E+03  0.28496626624E+03  0.81964933981E+02 0.  0.
        -11    1    3    3    0    0 -0.58981706952E+02 -0.25980810312E+02 -0.10535669598E+04  0.10555364433E+04  0.00000000000E+00 0.  1.
         12    1    3    3    0    0  0.18942930879E+02  0.29372862166E+01 -0.77411021915E+03  0.77434752771E+03  0.00000000000E+00 0. -1.
         13    1    5    5    0    0  0.71382828755E+02  0.12303554127E+03  0.21345161661E+03  0.25650505900E+03  0.00000000000E+00 0. -1.
        -14    1    5    5    0    0  0.26671791560E+02  0.88963329076E+01  0.44171386133E+01  0.28461207244E+02  0.00000000000E+00 0.  1.
          5    1    4    4  501    0  0.25175878871E+02 -0.67334771617E+02 -0.15660829769E+03  0.17237003119E+03  0.41800000000E+01 0. -1.
         -5    1    4    4    0  501 -0.83191723112E+02 -0.41553578463E+02 -0.43137254741E+03  0.44130183519E+03  0.41800000000E+01 0. -1.
</event>
<event>
11    1  0.8039394E-009  0.1423317E+03  0.7561462E-02  0.1104982E+00
         22   -1    0    0    0    0  0.00000000000E+00  0.00000000000E+00  0.15114263515E+04  0.15114263515E+04  0.00000000000E+00 0. -1.
         22   -1    0    0    0    0 -0.00000000000E+00 -0.00000000000E+00 -0.62986212543E+03  0.62986212543E+03  0.00000000000E+00 0.  1.
        -24    2    1    2    0    0  0.42458599075E+02 -0.22668898911E+02 -0.35454281295E+03  0.36673670788E+03  0.80489720331E+02 0.  0.
         25    2    1    2    0    0 -0.92334491521E+02  0.68266299242E+02 -0.24039766732E+03  0.29432098682E+03  0.12509140215E+03 0.  0.
         24    2    1    2    0    0  0.49875892445E+02 -0.45597400330E+02  0.14765047064E+04  0.14802307823E+04  0.80313717969E+02 0.  0.
        -11    1    5    5    0    0 -0.94325792313E+01 -0.14098980785E+02  0.66555327048E+02  0.68683086481E+02  0.00000000000E+00 0.  1.
         12    1    5    5    0    0  0.59308471677E+02 -0.31498419545E+02  0.14099493793E+04  0.14115476958E+04  0.00000000000E+00 0. -1.
         11    1    3    3    0    0  0.47804272190E+02 -0.33555479546E+02 -0.13795015886E+03  0.14980475619E+03  0.00000000000E+00 0. -1.
        -12    1    3    3    0    0 -0.53456731150E+01  0.10886580635E+02 -0.21659265409E+03  0.21693195169E+03  0.00000000000E+00 0.  1.
          5    1    4    4  501    0 -0.68376167792E+02  0.93964174993E+02 -0.11316416574E+03  0.16225956770E+03  0.41800000000E+01 0.  1.
         -5    1    4    4    0  501 -0.23958323729E+02 -0.25697875752E+02 -0.12723350158E+03  0.13206141911E+03  0.41800000000E+01 0.  1.
</event>
<event>
11    1  0.8039394E-009  0.1606344E+03  0.7561462E-02  0.1086482E+00
         22   -1    0    0    0    0  0.00000000000E+00  0.00000000000E+00  0.10020658578E+04  0.10020658578E+04  0.00000000000E+00 0. -1.
         22   -1    0    0    0    0 -0.00000000000E+00 -0.00000000000E+00 -0.28810686646E+03  0.28810686646E+03  0.00000000000E+00 0. -1.
         24    2    1    2    0    0 -0.96994040951E+02 -0.13238772842E+02 -0.10819233114E+03  0.16602366773E+03  0.79215962044E+02 0.  0.
         25    2    1    2    0    0  0.94788740250E+02  0.57713653466E+02 -0.10176115018E+03  0.19575001152E+03  0.12508782614E+03 0.  0.
        -24    2    1    2    0    0  0.22053007006E+01 -0.44474880624E+02  0.92391247266E+03  0.92839904501E+03  0.79546535308E+02 0.  0.
        -11    1    3    3    0    0 -0.16657990252E+02  0.22440805482E+02 -0.59018659259E+02  0.65301458871E+02  0.00000000000E+00 0.  1.
         12    1    3    3    0    0 -0.80336050699E+02 -0.35679578324E+02 -0.49173671886E+02  0.10072220886E+03  0.00000000000E+00 0. -1.
         11    1    5    5    0    0 -0.16070737089E+02 -0.30347286587E+02  0.85555782083E+03  0.85624669995E+03  0.00000000000E+00 0. -1.
        -12    1    5    5    0    0  0.18276037790E+02 -0.14127594037E+02  0.68354651830E+02  0.72152345058E+02  0.00000000000E+00 0.  1.
          5    1    4    4  501    0  0.62953806627E+01 -0.20665044518E+02  0.17246341260E+02  0.27956834039E+02  0.41800000000E+01 0.  1.
         -5    1    4    4    0  501  0.88493359587E+02  0.78378697984E+02 -0.11900749144E+03  0.16779317748E+03  0.41800000000E+01 0.  1.
</event>
<event>
11    1  0.8039394E-009  0.1533008E+03  0.7561462E-02  0.1093553E+00
         22   -1    0    0    0    0  0.00000000000E+00  0.00000000000E+00  0.63730674601E+03  0.63730674601E+03  0.00000000000E+00 0.  1.
         22   -1    0    0    0    0 -0.00000000000E+00 -0.00000000000E+00 -0.36634406075E+03  0.36634406075E+03  0.00000000000E+00 0. -1.
        -24    2    1    2    0    0 -0.12599794212E+02 -0.28880130700E+02 -0.83440883768E+02  0.11954380744E+03  0.79596005244E+02 0.  0.
         25    2    1    2    0    0  0.91651321802E+02  0.67719381940E+02 -0.23122722806E+03  0.28652991314E+03  0.12508989029E+03 0.  0.
         24    2    1    2    0    0 -0.79051527590E+02 -0.38839251239E+02  0.58563079709E+03  0.59757708617E+03  0.79858073871E+02 0.  0.
        -11    1    5    5    0    0 -0.73405759218E+01 -0.44508424373E+02  0.27887069175E+03  0.28249556919E+03  0.00000000000E+00 0.  1.
         12    1    5    5    0    0 -0.71710951668E+02  0.56691731334E+01  0.30676010534E+03  0.31508151698E+03  0.00000000000E+00 0. -1.
         11    1    3    3    0    0 -0.40546632497E+02 -0.33690945496E+02 -0.34569704610E+02  0.63041047676E+02  0.00000000000E+00 0. -1.
        -12    1    3    3    0    0  0.27946838285E+02  0.48108147961E+01 -0.48871179158E+02  0.56502759768E+02  0.00000000000E+00 0.  1.
          5    1    4    4  501    0  0.10805348705E+03  0.88304971023E+02 -0.17160090965E+03  0.22121859904E+03  0.41800000000E+01 0.  1.
         -5    1    4    4    0  501 -0.16402165245E+02 -0.20585589084E+02 -0.59626318410E+02  0.65311314102E+02  0.41800000000E+01 0.  1.
</event>
<event>
11    1  0.8039394E-009  0.1934103E+03  0.7561462E-02  0.1059284E+00
         22   -1    0    0    0    0  0.00000000000E+00  0.00000000000E+00  0.40193950146E+03  0.40193950146E+03  0.00000000000E+00 0.  1.
         22   -1    0    0    0    0 -0.00000000000E+00 -0.00000000000E+00 -0.20500023217E+04  0.20500023217E+04  0.00000000000E+00 0. -1.
        -24    2    1    2    0    0  0.20744123179E+02 -0.70475398264E+01 -0.16991659706E+04  0.17016917834E+04  0.90055226078E+02 0.  0.
         25    2    1    2    0    0 -0.16586168707E+03  0.25907635146E+02 -0.29729324854E+03  0.36360969498E+03  0.12508968725E+03 0.  0.
         24    2    1    2    0    0  0.14511756389E+03 -0.18860095320E+02  0.34839639887E+03  0.38664034478E+03  0.81828448123E+02 0.  0.
        -13    1    5    5    0    0  0.80284289165E+02  0.26710093005E+02  0.13871330253E+03  0.16248192655E+03  0.00000000000E+00 0.  1.
         14    1    5    5    0    0  0.64833274724E+02 -0.45570188325E+02  0.20968309633E+03  0.22415841823E+03  0.00000000000E+00 0. -1.
         13    1    3    3    0    0 -0.24093936950E+02 -0.11862323837E+02 -0.12456041703E+04  0.12458936478E+04  0.00000000000E+00 0. -1.
        -14    1    3    3    0    0  0.44838060129E+02  0.48147840109E+01 -0.45356180027E+03  0.45579813563E+03  0.00000000000E+00 0.  1.
          5    1    4    4  501    0 -0.16180506548E+03  0.17074182452E+02 -0.16809260310E+03  0.23397649997E+03  0.41800000000E+01 0. -1.
         -5    1    4    4    0  501 -0.40566215918E+01  0.88334526947E+01 -0.12920064545E+03  0.12963319501E+03  0.41800000000E+01 0. -1.
</event>
<event>
11    1  0.8039394E-009  0.2271690E+03  0.7561462E-02  0.1036817E+00
         22   -1    0    0    0    0  0.00000000000E+00  0.00000000000E+00  0.12388002429E+04  0.12388002429E+04  0.00000000000E+00 0.  1.
         22   -1    0    0    0    0 -0.00000000000E+00 -0.00000000000E+00 -0.73589559721E+03  0.73589559721E+03  0.00000000000E+00 0.  1.
         24    2    1    2    0    0  0.10969788743E+02 -0.27417776047E+02 -0.71812976584E+02  0.11157213390E+03  0.80119702625E+02 0.  0.
         25    2    1    2    0    0  0.12818802098E+03  0.15602309358E+03 -0.61321746613E+03  0.65761529126E+03  0.12508731383E+03 0.  0.
        -24    2    1    2    0    0 -0.13915780972E+03 -0.12860531754E+03  0.11879350884E+04  0.12055084149E+04  0.78463625462E+02 0.  0.
        -13    1    3    3    0    0  0.41681854024E+02  0.33187800921E+01 -0.38226752978E+02  0.56654001619E+02  0.00000000000E+00 0.  1.
         14    1    3    3    0    0 -0.30712065281E+02 -0.30736556139E+02 -0.33586223605E+02  0.54918132281E+02  0.00000000000E+00 0. -1.
         13    1    5    5    0    0 -0.89204223325E+02 -0.39364228906E+02  0.44424823100E+03  0.45482241229E+03  0.00000000000E+00 0. -1.
        -14    1    5    5    0    0 -0.49953586394E+02 -0.89241088632E+02  0.74368685738E+03  0.75068600263E+03  0.00000000000E+00 0.  1.
          5    1    4    4  501    0  0.13169378976E+03  0.83684147231E+02 -0.49387442992E+03  0.51795339143E+03  0.41800000000E+01 0.  1.
         -5    1    4    4    0  501 -0.35057687846E+01  0.72338946354E+02 -0.11934303621E+03  0.13966189983E+03  0.41800000000E+01 0.  1.
</event>
<event>
11    1  0.8039394E-009  0.1386655E+03  0.7561462E-02  0.1109058E+00
         22   -1    0    0    0    0  0.00000000000E+00  0.00000000000E+00  0.50520407575E+04  0.50520407575E+04  0.00000000000E+00 0.  1.
         22   -1    0    0    0    0 -0.00000000000E+00 -0.00000000000E+00 -0.98386620801E+02  0.98386620801E+02  0.00000000000E+00 0.  1.
         24    2    1    2    0    0 -0.42350227938E+02 -0.36228713560E+02 -0.67180377889E+02  0.11863871701E+03  0.80348494122E+02 0.  0.
         25    2    1    2    0    0  0.23064955059E+02  0.89997396580E+02  0.12551378425E+04  0.12647727555E+04  0.12509035125E+03 0.  0.
        -24    2    1    2    0    0  0.19285272880E+02 -0.53768683020E+02  0.37656966721E+04  0.37670159058E+04  0.81697092167E+02 0.  0.
        -13    1    3    3    0    0 -0.48822634326E+02 -0.47585344731E+02 -0.76585959345E+02  0.10253498829E+03  0.00000000000E+00 0.  1.
         14    1    3    3    0    0  0.64724063878E+01  0.11356631172E+02  0.94055814555E+01  0.16103728715E+02  0.00000000000E+00 0. -1.
         11    1    5    5    0    0 -0.17400468040E+02 -0.28005615090E+02  0.53879748854E+03  0.53980535790E+03  0.00000000000E+00 0. -1.
        -12    1    5    5    0    0  0.36685740919E+02 -0.25763067930E+02  0.32268991836E+04  0.32272105479E+04  0.00000000000E+00 0.  1.
          5    1    4    4  501    0 -0.43095140342E+02  0.19731456936E+02  0.21728030570E+03  0.22242914638E+03  0.41800000000E+01 0.  1.
         -5    1    4    4    0  501  0.66160095400E+02  0.70265939644E+02  0.10378575368E+04  0.10423436092E+04  0.41800000000E+01 0.  1.
</event>
<event>
11    1  0.8039394E-009  0.3250965E+03  0.7561462E-02  0.9900958E-01
         22   -1    0    0    0    0  0.00000000000E+00  0.00000000000E+00  0.61601540586E+03  0.61601540586E+03  0.00000000000E+00 0.  1.
         22   -1    0    0    0    0 -0.00000000000E+00 -0.00000000000E+00 -0.26060408097E+04  0.26060408097E+04  0.00000000000E+00 0. -1.
         24    2    1    2    0    0 -0.24325539485E+03 -0.16689755634E+03 -0.21298117032E+04  0.21515711210E+04  0.78309745262E+02 0.  0.
         25    2    1    2    0    0  0.20296684621E+03  0.29354806431E+03 -0.37518403104E+03  0.53270690542E+03  0.12509030024E+03 0.  0.
        -24    2    1    2    0    0  0.40288548635E+02 -0.12665050797E+03  0.51497033036E+03  0.53777818918E+03  0.79670705350E+02 0.  0.
        -11    1    3    3    0    0  0.12916598355E+01  0.44908724741E+01 -0.78243027314E+02  0.78382444743E+02  0.00000000000E+00 0.  1.
         12    1    3    3    0    0 -0.24454705468E+03 -0.17138842882E+03 -0.20515686758E+04  0.20731886762E+04  0.00000000000E+00 0. -1.
         11    1    5    5    0    0  0.43693860809E+02 -0.36582118967E+02  0.12272075792E+03  0.13530627970E+03  0.00000000000E+00 0. -1.
        -12    1    5    5    0    0 -0.34053121740E+01 -0.90068389002E+02  0.39224957243E+03  0.40247190948E+03  0.00000000000E+00 0.  1.
          5    1    4    4  501    0  0.27388364973E+02  0.12848215664E+03 -0.17819646752E+03  0.22142547403E+03  0.41800000000E+01 0.  1.
         -5    1    4    4    0  501  0.17557848124E+03  0.16506590767E+03 -0.19698756352E+03  0.31128143139E+03  0.41800000000E+01 0.  1.
</event>
<event>
11    1  0.9049702E-009  0.1695915E+03  0.7561462E-02  0.1078388E+00
         22   -1    0    0    0    0  0.00000000000E+00  0.00000000000E+00  0.11034739952E+03  0.11034739952E+03  0.00000000000E+00 0.  1.
         22   -1    0    0    0    0 -0.00000000000E+00 -0.00000000000E+00 -0.30873399177E+04  0.30873399177E+04  0.00000000000E+00 0.  1.
        -24    2    1    2    0    0  0.22443965771E+02 -0.74420601332E+01 -0.21681394421E+04  0.21696874358E+04  0.78458986656E+02 0.  0.
         25    2    1    2    0    0  0.82615298538E+02  0.55303858761E+02 -0.86304557412E+03  0.87770863959E+03  0.12506393829E+03 0.  0.
         24    2    1    2    0    0 -0.10505926431E+03 -0.47861798627E+02  0.54192498108E+02  0.15029124181E+03  0.79513707800E+02 0.  0.
        -13    1    5    5    0    0 -0.83346837563E+02 -0.17966591014E+02  0.68191625009E+00  0.85264053001E+02  0.00000000000E+00 0.  1.
         14    1    5    5    0    0 -0.21712426746E+02 -0.29895207613E+02  0.53510581858E+02  0.65027188808E+02  0.00000000000E+00 0. -1.
         13    1    3    3    0    0  0.40896728456E+01 -0.52753663747E+01 -0.14433842039E+02  0.15902537860E+02  0.00000000000E+00 0. -1.
        -14    1    3    3    0    0  0.18354292926E+02 -0.21666937586E+01 -0.21537056001E+04  0.21537848979E+04  0.00000000000E+00 0.  1.
          5    1    4    4  501    0 -0.24060876746E+02 -0.13105757260E+02 -0.85150921217E+02  0.89547967298E+02  0.41800000000E+01 0.  1.
         -5    1    4    4    0  501  0.10667617528E+03  0.68409616020E+02 -0.77789465290E+03  0.78816067229E+03  0.41800000000E+01 0.  1.
</event>
<event>
11    1  0.8039394E-009  0.4281211E+03  0.7561462E-02  0.9570245E-01
         22   -1    0    0    0    0  0.00000000000E+00  0.00000000000E+00  0.12564311787E+04  0.12564311787E+04  0.00000000000E+00 0. -1.
         22   -1    0    0    0    0 -0.00000000000E+00 -0.00000000000E+00 -0.32374043776E+03  0.32374043776E+03  0.00000000000E+00 0.  1.
         24    2    1    2    0    0 -0.84296584605E+01  0.45287352253E+02 -0.15843903985E+03  0.18299634308E+03  0.79137404655E+02 0.  0.
         25    2    1    2    0    0 -0.87584323394E+02  0.37030186569E+03  0.32089327043E+03  0.51323917031E+03  0.12508984568E+03 0.  0.
        -24    2    1    2    0    0  0.96013981854E+02 -0.41558921795E+03  0.77023651038E+03  0.88393610308E+03  0.78394321418E+02 0.  0.
        -11    1    3    3    0    0  0.30139890976E+02  0.13818359321E+02 -0.10433437768E+03  0.10947612730E+03  0.00000000000E+00 0.  1.
         12    1    3    3    0    0 -0.38569549436E+02  0.31468992931E+02 -0.54104662171E+02  0.73520215781E+02  0.00000000000E+00 0. -1.
         11    1    5    5    0    0  0.58183012050E+02 -0.36617396076E+03  0.67604819333E+03  0.77104461099E+03  0.00000000000E+00 0. -1.
        -12    1    5    5    0    0  0.37830969804E+02 -0.49415257188E+02  0.94188317051E+02  0.11289149210E+03  0.00000000000E+00 0.  1.
          5    1    4    4  501    0 -0.64599514328E+02  0.19542587800E+03  0.95322575227E+02  0.22686612086E+03  0.41800000000E+01 0. -1.
         -5    1    4    4    0  501 -0.22984809066E+02  0.17487598769E+03  0.22557069520E+03  0.28637304945E+03  0.41800000000E+01 0. -1.
</event>
<event>
11    1  0.8039394E-009  0.1592799E+03  0.7561462E-02  0.1087757E+00
         22   -1    0    0    0    0  0.00000000000E+00  0.00000000000E+00  0.15705181875E+03  0.15705181875E+03  0.00000000000E+00 0. -1.
         22   -1    0    0    0    0 -0.00000000000E+00 -0.00000000000E+00 -0.43549606056E+03  0.43549606056E+03  0.00000000000E+00 0.  1.
         24    2    1    2    0    0 -0.15809357160E+02 -0.50019649660E+01 -0.12777711127E+03  0.15223887514E+03  0.81084705786E+02 0.  0.
         25    2    1    2    0    0  0.76152049070E+02 -0.72133764929E+02 -0.23692523582E+03  0.28772194041E+03  0.12509169838E+03 0.  0.
        -24    2    1    2    0    0 -0.60342691910E+02  0.77135729895E+02  0.86258105289E+02  0.15258706375E+03  0.79064467386E+02 0.  0.
        -13    1    3    3    0    0 -0.43085054922E+02 -0.15480456803E+02 -0.10700837224E+03  0.11639054184E+03  0.00000000000E+00 0.  1.
         14    1    3    3    0    0  0.27275697762E+02  0.10478491837E+02 -0.20768739033E+02  0.35848333303E+02  0.00000000000E+00 0. -1.
         11    1    5    5    0    0 -0.28911083171E+02  0.20599588808E+01  0.60722505304E+02  0.67285338753E+02  0.00000000000E+00 0. -1.
        -12    1    5    5    0    0 -0.31431608739E+02  0.75075771014E+02  0.25535599986E+02  0.85301724999E+02  0.00000000000E+00 0.  1.
          5    1    4    4  501    0  0.10907478836E+03 -0.55637359248E+02 -0.15322755919E+03  0.19618609150E+03  0.41800000000E+01 0. -1.
         -5    1    4    4    0  501 -0.32922739293E+02 -0.16496405681E+02 -0.83697676629E+02  0.91535848912E+02  0.41800000000E+01 0. -1.
</event>
<event>
11    1  0.8039394E-009  0.1412344E+03  0.7561462E-02  0.1106188E+00
         22   -1    0    0    0    0  0.00000000000E+00  0.00000000000E+00  0.16628427583E+04  0.16628427583E+04  0.00000000000E+00 0.  1.
         22   -1    0    0    0    0 -0.00000000000E+00 -0.00000000000E+00 -0.86146841912E+02  0.86146841912E+02  0.00000000000E+00 0. -1.
        -24    2    1    2    0    0 -0.28596058160E+01  0.18383543869E+02 -0.46201184523E+02  0.95082793293E+02  0.80994173238E+02 0.  0.
         25    2    1    2    0    0  0.63870725557E+02  0.71193196634E+01  0.35634616481E+03  0.38309463397E+03  0.12509498433E+03 0.  0.
         24    2    1    2    0    0 -0.61011119741E+02 -0.25502863533E+02  0.12665509361E+04  0.12708121730E+04  0.80246821756E+02 0.  0.
        -11    1    5    5    0    0 -0.75707335682E+02 -0.31578065055E+02  0.84773323548E+03  0.85169267545E+03  0.00000000000E+00 0.  1.
         12    1    5    5    0    0  0.14696215941E+02  0.60752015220E+01  0.41881770066E+03  0.41911949755E+03  0.00000000000E+00 0. -1.
         13    1    3    3    0    0 -0.91335369380E+01  0.43625235932E+02 -0.51945344804E+02  0.68446340691E+02  0.00000000000E+00 0. -1.
        -14    1    3    3    0    0  0.62739311220E+01 -0.25241692063E+02  0.57441602813E+01  0.26636452603E+02  0.00000000000E+00 0.  1.
          5    1    4    4  501    0  0.10131964564E+03  0.13801752815E+02  0.26269009519E+03  0.28192147397E+03  0.41800000000E+01 0. -1.
         -5    1    4    4    0  501 -0.37448920080E+02 -0.66824331511E+01  0.93656069618E+02  0.10117316000E+03  0.41800000000E+01 0. -1.
</event>
<event>
11    1  0.8039394E-009  0.1578960E+03  0.7561462E-02  0.1089073E+00
         22   -1    0    0    0    0  0.00000000000E+00  0.00000000000E+00  0.14006735498E+04  0.14006735498E+04  0.00000000000E+00 0.  1.
         22   -1    0    0    0    0 -0.00000000000E+00 -0.00000000000E+00 -0.32341094486E+03  0.32341094486E+03  0.00000000000E+00 0.  1.
        -24    2    1    2    0    0 -0.43590964176E+00 -0.66492549617E+02 -0.23401535908E+03  0.25612485577E+03  0.80095594666E+02 0.  0.
         25    2    1    2    0    0 -0.56136513355E+02  0.14191188402E+03  0.53970896038E+02  0.20457810793E+03  0.12509617766E+03 0.  0.
         24    2    1    2    0    0  0.56572422997E+02 -0.75419334408E+02  0.12573070680E+04  0.12633815310E+04  0.80145583260E+02 0.  0.
        -11    1    5    5    0    0  0.24276754855E+02 -0.77389132024E+02  0.10874317643E+04  0.10904523284E+04  0.00000000000E+00 0.  1.
         12    1    5    5    0    0  0.32295668142E+02  0.19697976162E+01  0.16987530371E+03  0.17292920255E+03  0.00000000000E+00 0. -1.
         13    1    3    3    0    0  0.34806062791E+02 -0.55017679935E+02 -0.12427896851E+03  0.14029850009E+03  0.00000000000E+00 0. -1.
        -14    1    3    3    0    0 -0.35241972433E+02 -0.11474869682E+02 -0.10973639057E+03  0.11582635568E+03  0.00000000000E+00 0.  1.
          5    1    4    4  501    0 -0.78747475948E+02  0.65578087057E+02 -0.90414489666E+01  0.10296052967E+03  0.41800000000E+01 0.  1.
         -5    1    4    4    0  501  0.22610962592E+02  0.76333796967E+02  0.63012345005E+02  0.10161757826E+03  0.41800000000E+01 0.  1.
</event>
<event>
11    1  0.8039394E-009  0.1391208E+03  0.7561462E-02  0.1108544E+00
         22   -1    0    0    0    0  0.00000000000E+00  0.00000000000E+00  0.46676910309E+03  0.46676910309E+03  0.00000000000E+00 0.  1.
         22   -1    0    0    0    0 -0.00000000000E+00 -0.00000000000E+00 -0.13557824489E+03  0.13557824489E+03  0.00000000000E+00 0. -1.
         24    2    1    2    0    0  0.21545306605E+02  0.10939182750E+02 -0.85632517670E+02  0.11933192902E+03  0.79519275938E+02 0.  0.
         25    2    1    2    0    0 -0.63084983802E+02 -0.43349505969E+02  0.22619067587E+03  0.26957223640E+03  0.12509226172E+03 0.  0.
        -24    2    1    2    0    0  0.41539677198E+02  0.32410323219E+02  0.19063270001E+03  0.21344318256E+03  0.80257037298E+02 0.  0.
        -11    1    3    3    0    0 -0.15992279903E+02  0.29904750849E+02 -0.14901367349E+02  0.37041839705E+02  0.00000000000E+00 0.  1.
         12    1    3    3    0    0  0.37537586507E+02 -0.18965568100E+02 -0.70731150321E+02  0.82290089317E+02  0.00000000000E+00 0. -1.
         13    1    5    5    0    0  0.10901630624E+02 -0.10368006966E+02  0.13869790297E+03  0.13951146694E+03  0.00000000000E+00 0. -1.
        -14    1    5    5    0    0  0.30638046574E+02  0.42778330186E+02  0.51934797035E+02  0.73931715619E+02  0.00000000000E+00 0.  1.
          5    1    4    4  501    0 -0.27521317027E+02 -0.75264970562E+02  0.71035582486E+02  0.10717166166E+03  0.41800000000E+01 0.  1.
         -5    1    4    4    0  501 -0.35563666775E+02  0.31915464593E+02  0.15515509338E+03  0.16240057474E+03  0.41800000000E+01 0.  1.
</event>
<event>
11    1  0.8039394E-009  0.1318538E+03  0.7561462E-02  0.1117012E+00
         22   -1    0    0    0    0  0.00000000000E+00  0.00000000000E+00  0.41389272806E+03  0.41389272806E+03  0.00000000000E+00 0.  1.
         22   -1    0    0    0    0 -0.00000000000E+00 -0.00000000000E+00 -0.21061246158E+03  0.21061246158E+03  0.00000000000E+00 0. -1.
        -24    2    1    2    0    0 -0.93662489548E+01  0.97985976882E+00 -0.16648658813E+03  0.18580179632E+03  0.81950208934E+02 0.  0.
         25    2    1    2    0    0  0.20339970399E+02  0.38483380885E+02  0.18201837371E+03  0.22510545967E+03  0.12508834720E+03 0.  0.
         24    2    1    2    0    0 -0.10973721444E+02 -0.39463240654E+02  0.18774848090E+03  0.21359793365E+03  0.93256716930E+02 0.  0.
        -13    1    5    5    0    0  0.91386945379E+01 -0.51891940999E+02  0.46163584397E+02  0.70052593120E+02  0.00000000000E+00 0.  1.
         14    1    5    5    0    0 -0.20112415982E+02  0.12428700345E+02  0.14158489650E+03  0.14354534053E+03  0.00000000000E+00 0. -1.
         11    1    3    3    0    0  0.15305119672E+02  0.15995363570E+02 -0.15179030410E+03  0.15339620192E+03  0.00000000000E+00 0. -1.
        -12    1    3    3    0    0 -0.24671368627E+02 -0.15015503802E+02 -0.14696284029E+02  0.32405594403E+02  0.00000000000E+00 0.  1.
          5    1    4    4  501    0  0.57433321972E+02  0.13680567824E+02  0.29487277423E+02  0.66126517665E+02  0.41800000000E+01 0. -1.
         -5    1    4    4    0  501 -0.37093351573E+02  0.24802813061E+02  0.15253109629E+03  0.15897894201E+03  0.41800000000E+01 0. -1.
</event>
<event>
11    1  0.8039394E-009  0.1289220E+03  0.7561462E-02  0.1120601E+00
         22   -1    0    0    0    0  0.00000000000E+00  0.00000000000E+00  0.29250617058E+03  0.29250617058E+03  0.00000000000E+00 0.  1.
         22   -1    0    0    0    0 -0.00000000000E+00 -0.00000000000E+00 -0.14766765739E+04  0.14766765739E+04  0.00000000000E+00 0.  1.
        -24    2    1    2    0    0 -0.32040712176E+02  0.23784718943E+00 -0.13575005867E+04  0.13603489143E+04  0.81943039777E+02 0.  0.
         25    2    1    2    0    0  0.99793823494E+01  0.17144017609E+02 -0.74941952362E+02  0.14716260035E+03  0.12508808619E+03 0.  0.
         24    2    1    2    0    0  0.22061329827E+02 -0.17381864798E+02  0.24827213576E+03  0.26167122988E+03  0.77742830261E+02 0.  0.
        -13    1    5    5    0    0  0.61619637889E+01  0.31061577943E+02  0.93368472428E+02  0.98592408762E+02  0.00000000000E+00 0.  1.
         14    1    5    5    0    0  0.15899366038E+02 -0.48443442741E+02  0.15490366333E+03  0.16307882112E+03  0.00000000000E+00 0. -1.
         13    1    3    3    0    0 -0.12405142107E+02  0.16110186762E+02 -0.78230070295E+02  0.80829261821E+02  0.00000000000E+00 0. -1.
        -14    1    3    3    0    0 -0.19635570069E+02 -0.15872339573E+02 -0.12792705164E+04  0.12795196525E+04  0.00000000000E+00 0.  1.
          5    1    4    4  501    0  0.35068605324E+02 -0.31326794277E+02 -0.79259523770E+02  0.92253561596E+02  0.41800000000E+01 0. -1.
         -5    1    4    4    0  501 -0.25089222975E+02  0.48470811885E+02  0.43175714079E+01  0.54909038757E+02  0.41800000000E+01 0. -1.
</event>
<event>
11    1  0.8039394E-009  0.1265034E+03  0.7561462E-02  0.1123641E+00
         22   -1    0    0    0    0  0.00000000000E+00  0.00000000000E+00  0.12057149348E+03  0.12057149348E+03  0.00000000000E+00 0. -1.
         22   -1    0    0    0    0 -0.00000000000E+00 -0.00000000000E+00 -0.10517764480E+04  0.10517764480E+04  0.00000000000E+00 0.  1.
         24    2    1    2    0    0  0.12315712090E+02  0.82449174370E+01 -0.81551703183E+03  0.81845958928E+03  0.67737837744E+02 0.  0.
         25    2    1    2    0    0 -0.18072837802E+02  0.99788099309E+01 -0.20029574210E+03  0.23704919088E+03  0.12509088888E+03 0.  0.
        -24    2    1    2    0    0  0.57571257120E+01 -0.18223727368E+02  0.84607819379E+02  0.11683916134E+03  0.78279357345E+02 0.  0.
        -13    1    3    3    0    0 -0.23955012271E+01 -0.15545030984E+02 -0.67512848365E+03  0.67531167312E+03  0.00000000000E+00 0.  1.
         14    1    3    3    0    0  0.14711213317E+02  0.23789948421E+02 -0.14038854818E+03  0.14314791617E+03  0.00000000000E+00 0. -1.
         11    1    5    5    0    0  0.20044609636E+02 -0.14768373994E+02  0.95405138142E+02  0.98600363233E+02  0.00000000000E+00 0. -1.
        -12    1    5    5    0    0 -0.14287483924E+02 -0.34553533743E+01 -0.10797318763E+02  0.18238798104E+02  0.00000000000E+00 0.  1.
          5    1    4    4  501    0 -0.40535625871E+02  0.40087041765E+02 -0.33995030194E+02  0.66507460936E+02  0.41800000000E+01 0. -1.
         -5    1    4    4    0  501  0.22462788069E+02 -0.30108231834E+02 -0.16630071190E+03  0.17054172994E+03  0.41800000000E+01 0. -1.
</event>
<event>
11    1  0.8039394E-009  0.1390933E+03  0.7561462E-02  0.1108575E+00
         22   -1    0    0    0    0  0.00000000000E+00  0.00000000000E+00  0.21143441671E+03  0.21143441671E+03  0.00000000000E+00 0. -1.
         22   -1    0    0    0    0 -0.00000000000E+00 -0.00000000000E+00 -0.41413507061E+03  0.41413507061E+03  0.00000000000E+00 0. -1.
         24    2    1    2    0    0  0.67861803989E+01  0.66324106669E+02 -0.30747388023E+03  0.32463042444E+03  0.79998662957E+02 0.  0.
         25    2    1    2    0    0 -0.44792002805E+02 -0.16554360681E+02 -0.25672673685E+02  0.13633674762E+03  0.12509297425E+03 0.  0.
        -24    2    1    2    0    0  0.38005822406E+02 -0.49769745988E+02  0.13044590002E+03  0.16460231526E+03  0.78462215143E+02 0.  0.
        -13    1    3    3    0    0  0.57554073870E+01  0.20588293505E+02 -0.98966697803E+01  0.23557304947E+02  0.00000000000E+00 0.  1.
         14    1    3    3    0    0  0.10307730119E+01  0.45735813164E+02 -0.29757721045E+03  0.30107311949E+03  0.00000000000E+00 0. -1.
         11    1    5    5    0    0  0.53779727282E+02 -0.12410351918E+02  0.98768235472E+02  0.11314344983E+03  0.00000000000E+00 0. -1.
        -12    1    5    5    0    0 -0.15773904876E+02 -0.37359394070E+02  0.31677664549E+02  0.51458865433E+02  0.00000000000E+00 0.  1.
          5    1    4    4  501    0  0.12268568570E+01  0.45310847743E+02 -0.36523091416E+02  0.58360831964E+02  0.41800000000E+01 0.  1.
         -5    1    4    4    0  501 -0.46018859662E+02 -0.61865208424E+02  0.10850417732E+02  0.77975915659E+02  0.41800000000E+01 0.  1.
</event>
<event>
11    1  0.8039394E-009  0.1332474E+03  0.7561462E-02  0.1115342E+00
         22   -1    0    0    0    0  0.00000000000E+00  0.00000000000E+00  0.23827039530E+03  0.23827039530E+03  0.00000000000E+00 0.  1.
         22   -1    0    0    0    0 -0.00000000000E+00 -0.00000000000E+00 -0.47159060034E+03  0.47159060034E+03  0.00000000000E+00 0. -1.
         24    2    1    2    0    0  0.26625289508E+02 -0.35456788805E+02 -0.34658298844E+03  0.35846563953E+03  0.80073447136E+02 0.  0.
         25    2    1    2    0    0 -0.40801193987E+02  0.40763471169E+02 -0.68286296792E+02  0.15374232252E+03  0.12508910981E+03 0.  0.
        -24    2    1    2    0    0  0.14175904479E+02 -0.53066823639E+01  0.18154908019E+03  0.19765303359E+03  0.76665090007E+02 0.  0.
        -13    1    3    3    0    0  0.43345937158E+02 -0.28371565468E+02 -0.11451384573E+03  0.12568705923E+03  0.00000000000E+00 0.  1.
         14    1    3    3    0    0 -0.16720647650E+02 -0.70852233373E+01 -0.23206914271E+03  0.23277858030E+03  0.00000000000E+00 0. -1.
         11    1    5    5    0    0 -0.18607350911E+02 -0.31158467970E+02  0.79370224581E+02  0.87273800102E+02  0.00000000000E+00 0. -1.
        -12    1    5    5    0    0  0.32783255390E+02  0.25851785606E+02  0.10217885561E+03  0.11037923349E+03  0.00000000000E+00 0.  1.
          5    1    4    4  501    0 -0.41146283248E+02  0.36371424900E+02  0.24839798809E+02  0.60418417550E+02  0.41800000000E+01 0. -1.
         -5    1    4    4    0  501  0.34508926111E+00  0.43920462691E+01 -0.93126095601E+02  0.93323904970E+02  0.41800000000E+01 0. -1.
</event>
<event>
11    1  0.8039394E-009  0.1383112E+03  0.7561462E-02  0.1109459E+00
         22   -1    0    0    0    0  0.00000000000E+00  0.00000000000E+00  0.96675558221E+03  0.96675558221E+03  0.00000000000E+00 0. -1.
         22   -1    0    0    0    0 -0.00000000000E+00 -0.00000000000E+00 -0.12644427545E+03  0.12644427545E+03  0.00000000000E+00 0.  1.
        -24    2    1    2    0    0 -0.26464721622E+02  0.51647814842E+02 -0.82506424958E+02  0.13000559507E+03  0.82013817872E+02 0.  0.
         25    2    1    2    0    0 -0.73975376880E+01 -0.84895115798E+02  0.33015837323E+03  0.36319972988E+03  0.12509031985E+03 0.  0.
         24    2    1    2    0    0  0.33862259310E+02  0.33247300956E+02  0.59265935848E+03  0.59999453271E+03  0.80599556162E+02 0.  0.
        -11    1    5    5    0    0  0.58629215692E+01 -0.98949589825E+01  0.10518087489E+02  0.15585705856E+02  0.00000000000E+00 0.  1.
         12    1    5    5    0    0  0.27999337741E+02  0.43142259938E+02  0.58214127099E+03  0.58440882685E+03  0.00000000000E+00 0. -1.
         11    1    3    3    0    0 -0.14195747745E+02  0.35002159189E+02  0.67633996893E+01  0.38372046822E+02  0.00000000000E+00 0. -1.
        -12    1    3    3    0    0 -0.12268973877E+02  0.16645655653E+02 -0.89269824648E+02  0.91633548249E+02  0.00000000000E+00 0.  1.
          5    1    4    4  501    0 -0.58051754230E+02 -0.11805030049E+02  0.98416440037E+02  0.11494621774E+03  0.41800000000E+01 0.  1.
         -5    1    4    4    0  501  0.50654216542E+02 -0.73090085749E+02  0.23174193319E+03  0.24825351214E+03  0.41800000000E+01 0.  1.
</event>
<event>
11    1  0.8039394E-009  0.1417824E+03  0.7561462E-02  0.1105584E+00
         22   -1    0    0    0    0  0.00000000000E+00  0.00000000000E+00  0.24653995993E+04  0.24653995993E+04  0.00000000000E+00 0. -1.
         22   -1    0    0    0    0 -0.00000000000E+00 -0.00000000000E+00 -0.53547344396E+03  0.53547344396E+03  0.00000000000E+00 0.  1.
         24    2    1    2    0    0 -0.33244667778E+02  0.57854094354E+02 -0.52469098622E+03  0.53491687867E+03  0.79894504767E+02 0.  0.
         25    2    1    2    0    0  0.43022096917E+02 -0.62873702454E+02  0.12533064135E+04  0.12618343488E+04  0.12507979206E+03 0.  0.
        -24    2    1    2    0    0 -0.97774291381E+01  0.50196081005E+01  0.12013107280E+04  0.12041218157E+04  0.81492866923E+02 0.  0.
        -13    1    3    3    0    0 -0.15219377022E+02  0.74085402009E+02 -0.45204210945E+03  0.45832558836E+03  0.00000000000E+00 0.  1.
         14    1    3    3    0    0 -0.18025290756E+02 -0.16231307656E+02 -0.72648876769E+02  0.76591290307E+02  0.00000000000E+00 0. -1.
         13    1    5    5    0    0 -0.34375638681E+02  0.17557379220E+02  0.10191462853E+04  0.10198770009E+04  0.00000000000E+00 0. -1.
        -14    1    5    5    0    0  0.24598209543E+02 -0.12537771119E+02  0.18216444267E+03  0.18424481483E+03  0.00000000000E+00 0.  1.
          5    1    4    4  501    0  0.37338963817E+02 -0.73879586113E+02  0.40337707233E+03  0.41180447586E+03  0.41800000000E+01 0.  1.
         -5    1    4    4    0  501  0.56831331000E+01  0.11005883659E+02  0.84992934119E+03  0.85002987294E+03  0.41800000000E+01 0.  1.
</event>
<event>
11    1  0.1308267E-008  0.1703240E+03  0.7561462E-02  0.1077750E+00
         22   -1    0    0    0    0  0.00000000000E+00  0.00000000000E+00  0.71089252552E+03  0.71089252552E+03  0.00000000000E+00 0.  1.
         22   -1    0    0    0    0 -0.00000000000E+00 -0.00000000000E+00 -0.51496883286E+03  0.51496883286E+03  0.00000000000E+00 0. -1.
         24    2    1    2    0    0  0.38017155961E+02  0.11943016689E+03 -0.35325220728E+03  0.38346183753E+03  0.80913472227E+02 0.  0.
         25    2    1    2    0    0  0.56340823094E+02 -0.97722187791E+02 -0.89591893576E+02  0.19078273225E+03  0.12508968462E+03 0.  0.
        -24    2    1    2    0    0 -0.94357979054E+02 -0.21707979099E+02  0.63876779352E+03  0.65161678859E+03  0.84885102162E+02 0.  0.
        -13    1    3    3    0    0  0.23856383358E+02  0.79411493084E+01 -0.21139168942E+02  0.32848947363E+02  0.00000000000E+00 0.  1.
         14    1    3    3    0    0  0.14160772603E+02  0.11148901758E+03 -0.33211303833E+03  0.35061289017E+03  0.00000000000E+00 0. -1.
         11    1    5    5    0    0  0.62721851869E+01  0.14093205019E+02  0.32048908675E+02  0.35568121710E+02  0.00000000000E+00 0. -1.
        -12    1    5    5    0    0 -0.10063016424E+03 -0.35801184118E+02  0.60671888484E+03  0.61604866688E+03  0.00000000000E+00 0.  1.
          5    1    4    4  501    0 -0.34409288444E+02 -0.20071124970E+02  0.21623123516E+01  0.40112307132E+02  0.41800000000E+01 0.  1.
         -5    1    4    4    0  501  0.90750111537E+02 -0.77651062821E+02 -0.91754205928E+02  0.15067042512E+03  0.41800000000E+01 0.  1.
</event>
<event>
11    1  0.8039394E-009  0.1347472E+03  0.7561462E-02  0.1113570E+00
         22   -1    0    0    0    0  0.00000000000E+00  0.00000000000E+00  0.51019976065E+03  0.51019976065E+03  0.00000000000E+00 0.  1.
         22   -1    0    0    0    0 -0.00000000000E+00 -0.00000000000E+00 -0.65002087237E+03  0.65002087237E+03  0.00000000000E+00 0. -1.
        -24    2    1    2    0    0  0.27167103449E+02 -0.35315675440E+02 -0.61276706762E+03  0.61950074299E+03  0.79450883993E+02 0.  0.
         25    2    1    2    0    0  0.25365645827E+02  0.45373657475E+02  0.14256743530E+03  0.19666085989E+03  0.12509130835E+03 0.  0.
         24    2    1    2    0    0 -0.52532749276E+02 -0.10057982035E+02  0.33037852061E+03  0.34405903014E+03  0.79785942276E+02 0.  0.
        -11    1    5    5    0    0 -0.56168577396E+02 -0.21264715984E+02  0.32600592374E+03  0.33149202033E+03  0.00000000000E+00 0.  1.
         12    1    5    5    0    0  0.36358281203E+01  0.11206733949E+02  0.43725968773E+01  0.12567009802E+02  0.00000000000E+00 0. -1.
         13    1    3    3    0    0  0.49813247941E+02 -0.27810443201E+02 -0.53807563630E+03  0.54109164732E+03  0.00000000000E+00 0. -1.
        -14    1    3    3    0    0 -0.22646144492E+02 -0.75052322385E+01 -0.74691431321E+02  0.78409095672E+02  0.00000000000E+00 0.  1.
          5    1    4    4  501    0  0.56629432658E+02  0.59895786842E+02  0.46995282805E+02  0.94975928164E+02  0.41800000000E+01 0. -1.
         -5    1    4    4    0  501 -0.31263786831E+02 -0.14522129368E+02  0.95572152491E+02  0.10168493173E+03  0.41800000000E+01 0. -1.
</event>
<event>
11    1  0.8039394E-009  0.1657470E+03  0.7561462E-02  0.1081793E+00
         22   -1    0    0    0    0  0.00000000000E+00  0.00000000000E+00  0.21890331464E+03  0.21890331464E+03  0.00000000000E+00 0. -1.
         22   -1    0    0    0    0 -0.00000000000E+00 -0.00000000000E+00 -0.53477744671E+03  0.53477744671E+03  0.00000000000E+00 0. -1.
        -24    2    1    2    0    0 -0.43583323950E+02 -0.33215595612E+02 -0.36082742427E+03  0.37412892086E+03  0.82299680428E+02 0.  0.
         25    2    1    2    0    0 -0.43807377907E+02  0.10128136212E+03 -0.88174959788E+02  0.18867611299E+03  0.12508737509E+03 0.  0.
         24    2    1    2    0    0  0.87390701857E+02 -0.68065766508E+02  0.13312825200E+03  0.19087572750E+03  0.80251657480E+02 0.  0.
        -11    1    5    5    0    0  0.42737977705E+02 -0.15097537978E+02  0.10809458383E+03  0.11721309417E+03  0.00000000000E+00 0.  1.
         12    1    5    5    0    0  0.44652724151E+02 -0.52968228530E+02  0.25033668168E+02  0.73662633334E+02  0.00000000000E+00 0. -1.
         11    1    3    3    0    0 -0.59769555238E+02 -0.32913305583E+02 -0.34429123186E+03  0.35098737549E+03  0.00000000000E+00 0. -1.
        -12    1    3    3    0    0  0.16186231288E+02 -0.30229002892E+00 -0.16536192409E+02  0.23141545367E+02  0.00000000000E+00 0.  1.
          5    1    4    4  501    0  0.35222097059E+02  0.24027728972E+02  0.61993577516E+01  0.43287784851E+02  0.41800000000E+01 0. -1.
         -5    1    4    4    0  501 -0.79029474966E+02  0.77253633148E+02 -0.94374317540E+02  0.14538832814E+03  0.41800000000E+01 0. -1.
</event>
<event>
11    1  0.8039394E-009  0.1547903E+03  0.7561462E-02  0.1092082E+00
         22   -1    0    0    0    0  0.00000000000E+00  0.00000000000E+00  0.17556713141E+04  0.17556713141E+04  0.00000000000E+00 0.  1.
         22   -1    0    0    0    0 -0.00000000000E+00 -0.00000000000E+00 -0.13215010010E+04  0.13215010010E+04  0.00000000000E+00 0.  1.
         24    2    1    2    0    0  0.38184593634E+02 -0.88341009148E+01 -0.12852502371E+04  0.12884696093E+04  0.82156298987E+02 0.  0.
         25    2    1    2    0    0  0.51849967726E+02  0.34218325894E+02  0.11901903163E+03  0.18350016955E+03  0.12508984513E+03 0.  0.
        -24    2    1    2    0    0 -0.90034561360E+02 -0.25384224979E+02  0.16004015186E+04  0.16052025363E+04  0.81483621636E+02 0.  0.
        -11    1    3    3    0    0  0.92135834779E+01 -0.11043477164E+02 -0.11519411449E+04  0.11520309240E+04  0.00000000000E+00 0.  1.
         12    1    3    3    0    0  0.28971010156E+02  0.22093762492E+01 -0.13330909219E+03  0.13643868525E+03  0.00000000000E+00 0. -1.
         11    1    5    5    0    0 -0.88179431351E+00  0.23301137440E+01  0.45279414131E+00  0.25321954517E+01  0.00000000000E+00 0. -1.
        -12    1    5    5    0    0 -0.89152767047E+02 -0.27714338723E+02  0.15999487245E+04  0.16026703409E+04  0.00000000000E+00 0.  1.
          5    1    4    4  501    0 -0.56260376133E+01 -0.32856793282E+02 -0.19529254167E+01  0.33652748501E+02  0.41800000000E+01 0.  1.
         -5    1    4    4    0  501  0.57476005339E+02  0.67075119176E+02  0.12097195705E+03  0.14984742105E+03  0.41800000000E+01 0.  1.
</event>
<event>
11    1  0.8039394E-009  0.1301456E+03  0.7561462E-02  0.1119090E+00
         22   -1    0    0    0    0  0.00000000000E+00  0.00000000000E+00  0.20033259150E+03  0.20033259150E+03  0.00000000000E+00 0. -1.
         22   -1    0    0    0    0 -0.00000000000E+00 -0.00000000000E+00 -0.87148061289E+03  0.87148061289E+03  0.00000000000E+00 0. -1.
         24    2    1    2    0    0 -0.16914018284E+02  0.32005962670E+02 -0.80014595363E+03  0.80498867758E+03  0.80391282164E+02 0.  0.
         25    2    1    2    0    0  0.29553204816E+02 -0.14196098165E+02  0.21218940059E+02  0.13104995133E+03  0.12509566423E+03 0.  0.
        -24    2    1    2    0    0 -0.12639186532E+02 -0.17809864504E+02  0.10777899219E+03  0.13577457548E+03  0.79633434429E+02 0.  0.
        -11    1    3    3    0    0  0.21393468602E+02  0.41077468903E+02 -0.33613087765E+03  0.33930665461E+03  0.00000000000E+00 0.  1.
         12    1    3    3    0    0 -0.38307486886E+02 -0.90715062337E+01 -0.46401507598E+03  0.46568202297E+03  0.00000000000E+00 0. -1.
         11    1    5    5    0    0  0.70170366109E+01  0.44242391788E+01  0.10569985454E+03  0.10602486475E+03  0.00000000000E+00 0. -1.
        -12    1    5    5    0    0 -0.19656223143E+02 -0.22234103683E+02  0.20791376436E+01  0.29749710724E+02  0.00000000000E+00 0.  1.
          5    1    4    4  501    0  0.63275290934E+02  0.55827468069E+00 -0.28104310802E+02  0.69364247268E+02  0.41800000000E+01 0. -1.
         -5    1    4    4    0  501 -0.33722086118E+02 -0.14754372846E+02  0.49323250860E+02  0.61685704062E+02  0.41800000000E+01 0. -1.
</event>
<event>
11    1  0.8039394E-009  0.1370994E+03  0.7561462E-02  0.1110841E+00
         22   -1    0    0    0    0  0.00000000000E+00  0.00000000000E+00  0.41427838866E+03  0.41427838866E+03  0.00000000000E+00 0. -1.
         22   -1    0    0    0    0 -0.00000000000E+00 -0.00000000000E+00 -0.56284845954E+03  0.56284845954E+03  0.00000000000E+00 0.  1.
        -24    2    1    2    0    0  0.14087281944E+01 -0.13787765800E+02 -0.48845568303E+03  0.49518995093E+03  0.80200038791E+02 0.  0.
         25    2    1    2    0    0 -0.55118256996E+02 -0.40030790186E+01  0.19018588367E+02  0.13806048712E+03  0.12507975258E+03 0.  0.
         24    2    1    2    0    0  0.53709528802E+02  0.17790844819E+02  0.32086702379E+03  0.34387641015E+03  0.10997322792E+03 0.  0.
        -13    1    5    5    0    0  0.30454228368E+02 -0.41710250445E+02  0.84537648965E+02  0.99064721825E+02  0.00000000000E+00 0.  1.
         14    1    5    5    0    0  0.23255300434E+02  0.59501095263E+02  0.23632937482E+03  0.24481168832E+03  0.00000000000E+00 0. -1.
         13    1    3    3    0    0  0.12940078549E+02 -0.43933375422E+02 -0.21420042059E+03  0.21904202174E+03  0.00000000000E+00 0. -1.
        -14    1    3    3    0    0 -0.11531350355E+02  0.30145609622E+02 -0.27425526244E+03  0.27614792919E+03  0.00000000000E+00 0.  1.
          5    1    4    4  501    0  0.37653891254E+02  0.59490690296E+01  0.22746833911E+02  0.44588090359E+02  0.41800000000E+01 0. -1.
         -5    1    4    4    0  501 -0.92772148250E+02 -0.99521480482E+01 -0.37282455437E+01  0.93472396762E+02  0.41800000000E+01 0. -1.
</event>
<event>
11    1  0.8039394E-009  0.1545685E+03  0.7561462E-02  0.1092300E+00
         22   -1    0    0    0    0  0.00000000000E+00  0.00000000000E+00  0.31352926346E+04  0.31352926346E+04  0.00000000000E+00 0. -1.
         22   -1    0    0    0    0 -0.00000000000E+00 -0.00000000000E+00 -0.20406370574E+03  0.20406370574E+03  0.00000000000E+00 0.  1.
         24    2    1    2    0    0 -0.70454668988E+02 -0.55717194887E+02 -0.17041395401E+03  0.20857204093E+03  0.79956953082E+02 0.  0.
         25    2    1    2    0    0  0.14241826789E+03  0.21588151505E+02  0.67436389060E+03  0.70083030449E+03  0.12508975750E+03 0.  0.
        -24    2    1    2    0    0 -0.71963598898E+02  0.34129043382E+02  0.24272789923E+04  0.24299539950E+04  0.81544834184E+02 0.  0.
        -13    1    3    3    0    0 -0.26332734354E+02 -0.32167494234E+02 -0.14806908381E+03  0.15379406414E+03  0.00000000000E+00 0.  1.
         14    1    3    3    0    0 -0.44121934634E+02 -0.23549700652E+02 -0.22344870202E+02  0.54777976788E+02  0.00000000000E+00 0. -1.
         11    1    5    5    0    0 -0.62119993616E+02  0.46461889586E+02  0.23383174519E+04  0.23396038354E+04  0.00000000000E+00 0. -1.
        -12    1    5    5    0    0 -0.98436052825E+01 -0.12332846204E+02  0.88961540372E+02  0.90350159523E+02  0.00000000000E+00 0.  1.
          5    1    4    4  501    0  0.13083813180E+03 -0.11862996445E+02  0.63172713240E+03  0.64525653009E+03  0.41800000000E+01 0.  1.
         -5    1    4    4    0  501  0.11580136090E+02  0.33451147950E+02  0.42636758203E+02  0.55573774400E+02  0.41800000000E+01 0.  1.
</event>
<event>
11    1  0.8039394E-009  0.1411347E+03  0.7561462E-02  0.1106298E+00
         22   -1    0    0    0    0  0.00000000000E+00  0.00000000000E+00  0.37608644416E+03  0.37608644416E+03  0.00000000000E+00 0. -1.
         22   -1    0    0    0    0 -0.00000000000E+00 -0.00000000000E+00 -0.51723630952E+03  0.51723630952E+03  0.00000000000E+00 0. -1.
         24    2    1    2    0    0 -0.50006868005E+02  0.44228373641E+02 -0.38415011208E+03  0.39613865608E+03  0.69983500560E+02 0.  0.
         25    2    1    2    0    0  0.17502779093E+02 -0.62502447543E+02 -0.80180372728E+02  0.16214150989E+03  0.12509226129E+03 0.  0.
        -24    2    1    2    0    0  0.32504088912E+02  0.18274073903E+02  0.32318061945E+03  0.33504258771E+03  0.80108459071E+02 0.  0.
        -13    1    3    3    0    0 -0.77603456467E+01 -0.36947731110E+01 -0.21858604456E+01  0.88686131265E+01  0.00000000000E+00 0.  1.
         14    1    3    3    0    0 -0.42246522358E+02  0.47923146752E+02 -0.38196425163E+03  0.38727004295E+03  0.00000000000E+00 0. -1.
         11    1    5    5    0    0  0.58871345245E+02  0.63206311988E+01  0.20616494049E+03  0.21449887728E+03  0.00000000000E+00 0. -1.
        -12    1    5    5    0    0 -0.26367256333E+02  0.11953442704E+02  0.11701567897E+03  0.12054371043E+03  0.00000000000E+00 0.  1.
          5    1    4    4  501    0 -0.39201600674E+02 -0.38277831311E+02  0.68758476060E+01  0.55377861512E+02  0.41800000000E+01 0.  1.
         -5    1    4    4    0  501  0.56704379768E+02 -0.24224616232E+02 -0.87056220334E+02  0.10676364838E+03  0.41800000000E+01 0.  1.
</event>
<event>
11    1  0.8039394E-009  0.1693833E+03  0.7561462E-02  0.1078570E+00
         22   -1    0    0    0    0  0.00000000000E+00  0.00000000000E+00  0.29770224409E+03  0.29770224409E+03  0.00000000000E+00 0.  1.
         22   -1    0    0    0    0 -0.00000000000E+00 -0.00000000000E+00 -0.10543745359E+04  0.10543745359E+04  0.00000000000E+00 0. -1.
         24    2    1    2    0    0 -0.34677062791E+02 -0.10933726046E+03 -0.99346325909E+03  0.10033011580E+04  0.80540866475E+02 0.  0.
         25    2    1    2    0    0  0.63536110445E+02  0.82538210619E+02  0.12136648713E+03  0.20303947186E+03  0.12508320987E+03 0.  0.
        -24    2    1    2    0    0 -0.28859047654E+02  0.26799049843E+02  0.11542448017E+03  0.14573615017E+03  0.79782085339E+02 0.  0.
        -11    1    3    3    0    0  0.53365117917E+01 -0.14694095515E+02 -0.25580345408E+02  0.29979140620E+02  0.00000000000E+00 0.  1.
         12    1    3    3    0    0 -0.40013574583E+02 -0.94643164948E+02 -0.96788291368E+03  0.97332201733E+03  0.00000000000E+00 0. -1.
         13    1    5    5    0    0 -0.40026769935E+02  0.42538580004E+02  0.47993935676E+02  0.75598220626E+02  0.00000000000E+00 0. -1.
        -14    1    5    5    0    0  0.11167722281E+02 -0.15739530161E+02  0.67430544490E+02  0.70137929544E+02  0.00000000000E+00 0.  1.
          5    1    4    4  501    0 -0.19088400774E+02  0.53496997489E+02  0.96241763706E+02  0.11183132506E+03  0.41800000000E+01 0.  1.
         -5    1    4    4    0  501  0.82624511220E+02  0.29041213131E+02  0.25124723426E+02  0.91208146794E+02  0.41800000000E+01 0.  1.
</event>
<event>
11    1  0.8039394E-009  0.2677722E+03  0.7561462E-02  0.1014836E+00
         22   -1    0    0    0    0  0.00000000000E+00  0.00000000000E+00  0.33166769567E+03  0.33166769567E+03  0.00000000000E+00 0.  1.
         22   -1    0    0    0    0 -0.00000000000E+00 -0.00000000000E+00 -0.14878482150E+04  0.14878482150E+04  0.00000000000E+00 0. -1.
         24    2    1    2    0    0  0.49415197841E+02 -0.27300774148E+02 -0.85364046955E+03  0.85920785938E+03  0.79679987048E+02 0.  0.
         25    2    1    2    0    0 -0.27665041357E+03  0.75331535752E+02 -0.53654988947E+03  0.62108254029E+03  0.12508975319E+03 0.  0.
        -24    2    1    2    0    0  0.22723521573E+03 -0.48030761603E+02  0.23400983965E+03  0.33922551104E+03  0.79815693665E+02 0.  0.
        -11    1    3    3    0    0 -0.52816737444E+01 -0.23766391662E+02 -0.55790764916E+03  0.55843861116E+03  0.00000000000E+00 0.  1.
         12    1    3    3    0    0  0.54696871585E+02 -0.35343824858E+01 -0.29573282039E+03  0.30076924822E+03  0.00000000000E+00 0. -1.
         11    1    5    5    0    0  0.11870886415E+03 -0.16498086159E+01  0.72214476052E+02  0.13895843569E+03  0.00000000000E+00 0. -1.
        -12    1    5    5    0    0  0.10852635158E+03 -0.46380952987E+02  0.16179536360E+03  0.20026707535E+03  0.00000000000E+00 0.  1.
          5    1    4    4  501    0 -0.20687357505E+03  0.97692798884E+02 -0.32744755144E+03  0.39947456784E+03  0.41800000000E+01 0.  1.
         -5    1    4    4    0  501 -0.69776838524E+02 -0.22361263132E+02 -0.20910233803E+03  0.22160797244E+03  0.41800000000E+01 0.  1.
</event>
<event>
11    1  0.8039394E-009  0.5271711E+03  0.7561462E-02  0.9334775E-01
         22   -1    0    0    0    0  0.00000000000E+00  0.00000000000E+00  0.17205069060E+04  0.17205069060E+04  0.00000000000E+00 0. -1.
         22   -1    0    0    0    0 -0.00000000000E+00 -0.00000000000E+00 -0.58540355641E+03  0.58540355641E+03  0.00000000000E+00 0. -1.
         24    2    1    2    0    0 -0.11125987037E+03  0.27870700874E+02 -0.22982012837E+03  0.26709279649E+03  0.73251182975E+02 0.  0.
         25    2    1    2    0    0 -0.82049033024E+02  0.45611956486E+03 -0.92584834374E+02  0.48887296182E+03  0.12509084688E+03 0.  0.
        -24    2    1    2    0    0  0.19330890339E+03 -0.48399026573E+03  0.14575083123E+04  0.15499447041E+04  0.79894904657E+02 0.  0.
        -11    1    3    3    0    0  0.48523450430E+01 -0.75613378326E+01 -0.45552715013E+02  0.46430258747E+02  0.00000000000E+00 0.  1.
         12    1    3    3    0    0 -0.11611221541E+03  0.35432038707E+02 -0.18426741336E+03  0.22066253774E+03  0.00000000000E+00 0. -1.
         11    1    5    5    0    0  0.15860936546E+03 -0.39554975373E+03  0.12725523002E+04  0.13420156092E+04  0.00000000000E+00 0. -1.
        -12    1    5    5    0    0  0.34699537936E+02 -0.88440512004E+02  0.18495601207E+03  0.20792909488E+03  0.00000000000E+00 0.  1.
          5    1    4    4  501    0 -0.77190454846E+02  0.16912997528E+03 -0.77359774526E+02  0.20140834634E+03  0.41800000000E+01 0. -1.
         -5    1    4    4    0  501 -0.48585781779E+01  0.28698958957E+03 -0.15225059848E+02  0.28746461548E+03  0.41800000000E+01 0. -1.
</event>
<event>
11    1  0.8039394E-009  0.1633116E+03  0.7561462E-02  0.1084003E+00
         22   -1    0    0    0    0  0.00000000000E+00  0.00000000000E+00  0.60293324371E+03  0.60293324371E+03  0.00000000000E+00 0. -1.
         22   -1    0    0    0    0 -0.00000000000E+00 -0.00000000000E+00 -0.83594886464E+03  0.83594886464E+03  0.00000000000E+00 0.  1.
         24    2    1    2    0    0 -0.66016507083E+01 -0.97356040181E+01 -0.64714873439E+03  0.65242204996E+03  0.81943169788E+02 0.  0.
         25    2    1    2    0    0  0.48652822047E+02  0.10540235259E+03 -0.13749203292E+03  0.21915518297E+03  0.12509269395E+03 0.  0.
        -24    2    1    2    0    0 -0.42051171339E+02 -0.95666748574E+02  0.55162514638E+03  0.56730487542E+03  0.81388523559E+02 0.  0.
        -11    1    3    3    0    0 -0.12304497408E+02  0.11192036617E+02 -0.60303196508E+03  0.60326131424E+03  0.00000000000E+00 0.  1.
         12    1    3    3    0    0  0.57028467000E+01 -0.20927640635E+02 -0.44116769302E+02  0.49160735722E+02  0.00000000000E+00 0. -1.
         11    1    5    5    0    0 -0.54529564831E+02 -0.96864541339E+02  0.39986863371E+03  0.41503148921E+03  0.00000000000E+00 0. -1.
        -12    1    5    5    0    0  0.12478393492E+02  0.11977927660E+01  0.15175651267E+03  0.15227338622E+03  0.00000000000E+00 0.  1.
          5    1    4    4  501    0 -0.19660034218E+02  0.84983819036E+02 -0.34663468890E+02  0.93956345815E+02  0.41800000000E+01 0.  1.
         -5    1    4    4    0  501  0.68312856266E+02  0.20418533556E+02 -0.10282856403E+03  0.12519883715E+03  0.41800000000E+01 0.  1.
</event>
<event>
11    1  0.8039394E-009  0.1335179E+03  0.7561462E-02  0.1115021E+00
         22   -1    0    0    0    0  0.00000000000E+00  0.00000000000E+00  0.11776824849E+04  0.11776824849E+04  0.00000000000E+00 0. -1.
         22   -1    0    0    0    0 -0.00000000000E+00 -0.00000000000E+00 -0.23170296523E+03  0.23170296523E+03  0.00000000000E+00 0. -1.
         24    2    1    2    0    0  0.18376877278E+02 -0.41129074757E+02 -0.18561562351E+03  0.20730367895E+03  0.80575090492E+02 0.  0.
         25    2    1    2    0    0 -0.15356226421E+02  0.71539636458E+02  0.12361491188E+03  0.19045681322E+03  0.12505765866E+03 0.  0.
        -24    2    1    2    0    0 -0.30206508571E+01 -0.30410561701E+02  0.10079802313E+04  0.10116249580E+04  0.80168461860E+02 0.  0.
        -11    1    3    3    0    0 -0.12218885445E+02 -0.19314207867E+01  0.25910865903E+01  0.12639037839E+02  0.00000000000E+00 0.  1.
         12    1    3    3    0    0  0.30595762724E+02 -0.39197653970E+02 -0.18820671010E+03  0.19466464111E+03  0.00000000000E+00 0. -1.
         13    1    5    5    0    0  0.19233732417E+02 -0.24149059752E+02  0.92414530044E+03  0.92466082965E+03  0.00000000000E+00 0. -1.
        -14    1    5    5    0    0 -0.22254383274E+02 -0.62615019490E+01  0.83834930892E+02  0.86964128348E+02  0.00000000000E+00 0.  1.
          5    1    4    4  501    0 -0.52076682933E+02  0.89123460618E+02  0.80132783375E+02  0.13074290615E+03  0.41800000000E+01 0. -1.
         -5    1    4    4    0  501  0.36720456511E+02 -0.17583824160E+02  0.43482128504E+02  0.59713907072E+02  0.41800000000E+01 0. -1.
</event>
<event>
11    1  0.8039394E-009  0.1610018E+03  0.7561462E-02  0.1086139E+00
         22   -1    0    0    0    0  0.00000000000E+00  0.00000000000E+00  0.17480514908E+04  0.17480514908E+04  0.00000000000E+00 0.  1.
         22   -1    0    0    0    0 -0.00000000000E+00 -0.00000000000E+00 -0.78427709610E+03  0.78427709610E+03  0.00000000000E+00 0.  1.
        -24    2    1    2    0    0  0.46182721674E+02  0.94426148751E+02 -0.67960451513E+03  0.69229912241E+03  0.79791205943E+02 0.  0.
         25    2    1    2    0    0 -0.84835801323E+02 -0.28912272003E+02 -0.35162796806E+02  0.15784925091E+03  0.12508769354E+03 0.  0.
         24    2    1    2    0    0  0.38653079649E+02 -0.65513876748E+02  0.16785417067E+04  0.16821802136E+04  0.80261331837E+02 0.  0.
        -13    1    5    5    0    0  0.13051128390E+01 -0.65805658898E+02  0.13334174852E+04  0.13350409275E+04  0.00000000000E+00 0.  1.
         14    1    5    5    0    0  0.37347966810E+02  0.29178214997E+00  0.34512422143E+03  0.34713928613E+03  0.00000000000E+00 0. -1.
         13    1    3    3    0    0  0.42988137294E+01  0.46291390601E+02 -0.11412255501E+03  0.12322877182E+03  0.00000000000E+00 0. -1.
        -14    1    3    3    0    0  0.41883907945E+02  0.48134758150E+02 -0.56548196013E+03  0.56907035058E+03  0.00000000000E+00 0.  1.
          5    1    4    4  501    0 -0.78853112287E+02 -0.94365088561E+01  0.33360186858E+02  0.86239407952E+02  0.41800000000E+01 0. -1.
         -5    1    4    4    0  501 -0.59826890359E+01 -0.19475763147E+02 -0.68522983665E+02  0.71609842959E+02  0.41800000000E+01 0. -1.
</event>
<event>
11    1  0.8039394E-009  0.1358750E+03  0.7561462E-02  0.1112254E+00
         22   -1    0    0    0    0  0.00000000000E+00  0.00000000000E+00  0.12494194776E+04  0.12494194776E+04  0.00000000000E+00 0.  1.
         22   -1    0    0    0    0 -0.00000000000E+00 -0.00000000000E+00 -0.21078385388E+03  0.21078385388E+03  0.00000000000E+00 0. -1.
        -24    2    1    2    0    0 -0.44763226871E+02 -0.21714113108E+02 -0.14082444599E+03  0.17532176415E+03  0.91820189534E+02 0.  0.
         25    2    1    2    0    0  0.50221976071E+02  0.61603601169E+02  0.57429149203E+02  0.15895303030E+03  0.12510279016E+03 0.  0.
         24    2    1    2    0    0 -0.54587491994E+01 -0.39889488062E+02  0.11220309205E+04  0.11259285370E+04  0.84502749765E+02 0.  0.
        -13    1    5    5    0    0 -0.33757762137E+02 -0.20370695262E+02  0.93062992836E+03  0.93146476868E+03  0.00000000000E+00 0.  1.
         14    1    5    5    0    0  0.28299012938E+02 -0.19518792800E+02  0.19140099216E+03  0.19446376836E+03  0.00000000000E+00 0. -1.
         11    1    3    3    0    0 -0.17152797089E+02 -0.39559004361E+02 -0.13527630420E+03  0.14198173034E+03  0.00000000000E+00 0. -1.
        -12    1    3    3    0    0 -0.27610429783E+02  0.17844891253E+02 -0.55481417970E+01  0.33340033804E+02  0.00000000000E+00 0.  1.
          5    1    4    4  501    0 -0.36972057115E+01  0.53616406329E+02 -0.25494625029E+02  0.59630836512E+02  0.41800000000E+01 0. -1.
         -5    1    4    4    0  501  0.53919181782E+02  0.79871948404E+01  0.82923774232E+02  0.99322193785E+02  0.41800000000E+01 0. -1.
</event>
<event>
11    1  0.8039394E-009  0.1936073E+03  0.7561462E-02  0.1059139E+00
         22   -1    0    0    0    0  0.00000000000E+00  0.00000000000E+00  0.15157802723E+04  0.15157802723E+04  0.00000000000E+00 0.  1.
         22   -1    0    0    0    0 -0.00000000000E+00 -0.00000000000E+00 -0.35735294305E+03  0.35735294305E+03  0.00000000000E+00 0. -1.
        -24    2    1    2    0    0  0.92164699675E+02 -0.11257553209E+03 -0.28830191680E+03  0.33240879974E+03  0.78803760206E+02 0.  0.
         25    2    1    2    0    0 -0.80180276494E+02  0.15990577068E+03  0.21722835540E+03  0.30795176854E+03  0.12508957239E+03 0.  0.
         24    2    1    2    0    0 -0.11984423182E+02 -0.47330238588E+02  0.12295008906E+04  0.12327726471E+04  0.75313885849E+02 0.  0.
        -13    1    5    5    0    0  0.42493871802E+01 -0.33995839462E+02  0.11509854855E+04  0.11514952723E+04  0.00000000000E+00 0.  1.
         14    1    5    5    0    0 -0.16233810362E+02 -0.13334399125E+02  0.78515405134E+02  0.81277374725E+02  0.00000000000E+00 0. -1.
         13    1    3    3    0    0  0.43104177834E+02 -0.10408808344E+03 -0.22712976496E+03  0.25353545983E+03  0.00000000000E+00 0. -1.
        -14    1    3    3    0    0  0.49060521841E+02 -0.84874486584E+01 -0.61172151833E+02  0.78873339906E+02  0.00000000000E+00 0.  1.
          5    1    4    4  501    0 -0.53542070673E+02  0.95578193831E+02  0.38669191822E+02  0.11625284196E+03  0.41800000000E+01 0. -1.
         -5    1    4    4    0  501 -0.26638205820E+02  0.64327576851E+02  0.17855916358E+03  0.19169892658E+03  0.41800000000E+01 0. -1.
</event>
<event>
11    1  0.1066630E-008  0.2004693E+03  0.7561462E-02  0.1054192E+00
         22   -1    0    0    0    0  0.00000000000E+00  0.00000000000E+00  0.78271905038E+03  0.78271905038E+03  0.00000000000E+00 0.  1.
         22   -1    0    0    0    0 -0.00000000000E+00 -0.00000000000E+00 -0.54537645612E+03  0.54537645612E+03  0.00000000000E+00 0.  1.
        -24    2    1    2    0    0  0.63986501332E+02 -0.47049403531E+02 -0.30547516287E+03  0.32579096008E+03  0.80726425763E+02 0.  0.
         25    2    1    2    0    0 -0.18439765082E+03  0.14134234253E+03 -0.13949205429E+03  0.29847077964E+03  0.12508645677E+03 0.  0.
         24    2    1    2    0    0  0.12041114949E+03 -0.94292939000E+02  0.68230981142E+03  0.70383376678E+03  0.80282558705E+02 0.  0.
        -11    1    5    5    0    0  0.23987466636E+02 -0.55753724563E+02  0.36368947291E+03  0.36871928220E+03  0.00000000000E+00 0.  1.
         12    1    5    5    0    0  0.96423682855E+02 -0.38539214437E+02  0.31862033850E+03  0.33511448457E+03  0.00000000000E+00 0. -1.
         11    1    3    3    0    0  0.38193209511E+02  0.18303395412E+02 -0.13200437847E+03  0.13863221658E+03  0.00000000000E+00 0. -1.
        -12    1    3    3    0    0  0.25793291821E+02 -0.65352798943E+02 -0.17347078439E+03  0.18715874350E+03  0.00000000000E+00 0.  1.
          5    1    4    4  501    0 -0.10095139322E+03  0.27438026045E+02 -0.72155393650E+01  0.10494553575E+03  0.41800000000E+01 0.  1.
         -5    1    4    4    0  501 -0.83446257608E+02  0.11390431649E+03 -0.13227651492E+03  0.19352524389E+03  0.41800000000E+01 0.  1.
</event>
<event>
11    1  0.8039394E-009  0.1526977E+03  0.7561462E-02  0.1094154E+00
         22   -1    0    0    0    0  0.00000000000E+00  0.00000000000E+00  0.14597098303E+03  0.14597098303E+03  0.00000000000E+00 0. -1.
         22   -1    0    0    0    0 -0.00000000000E+00 -0.00000000000E+00 -0.29710860370E+04  0.29710860370E+04  0.00000000000E+00 0. -1.
         24    2    1    2    0    0  0.52971062944E+02  0.71322288792E+02 -0.27709741463E+04  0.27735594104E+04  0.80257593273E+02 0.  0.
         25    2    1    2    0    0 -0.83875912476E+01 -0.68582226638E+02 -0.15280754228E+03  0.20920833533E+03  0.12507641302E+03 0.  0.
        -24    2    1    2    0    0 -0.44583471696E+02 -0.27400621533E+01  0.98666634583E+02  0.13428927432E+03  0.79393390963E+02 0.  0.
        -13    1    3    3    0    0  0.20435134413E+01 -0.17274173336E+02 -0.45262427037E+03  0.45295839007E+03  0.00000000000E+00 0.  1.
         14    1    3    3    0    0  0.50927549502E+02  0.88596462128E+02 -0.23183498759E+04  0.23206010203E+04  0.00000000000E+00 0. -1.
         11    1    5    5    0    0 -0.29256637150E+02 -0.71176521762E+01  0.11044125402E+03  0.11447219042E+03  0.00000000000E+00 0. -1.
        -12    1    5    5    0    0 -0.15326834546E+02  0.43775900229E+01 -0.11774619435E+02  0.19817083904E+02  0.00000000000E+00 0.  1.
          5    1    4    4  501    0  0.11866173569E+02  0.21968076974E+02 -0.98313667461E+02  0.10152069784E+03  0.41800000000E+01 0.  1.
         -5    1    4    4    0  501 -0.20253764817E+02 -0.90550303613E+02 -0.54493874820E+02  0.10768763748E+03  0.41800000000E+01 0.  1.
</event>
<event>
11    1  0.8718233E-009  0.1668919E+03  0.7561462E-02  0.1080769E+00
         22   -1    0    0    0    0  0.00000000000E+00  0.00000000000E+00  0.82450728402E+03  0.82450728402E+03  0.00000000000E+00 0.  1.
         22   -1    0    0    0    0 -0.00000000000E+00 -0.00000000000E+00 -0.13562474152E+04  0.13562474152E+04  0.00000000000E+00 0.  1.
         24    2    1    2    0    0 -0.93924645258E+01 -0.28276663611E+01 -0.80828324507E+03  0.81275758509E+03  0.84598308313E+02 0.  0.
         25    2    1    2    0    0 -0.75415532340E+02 -0.68123221573E+02 -0.52793403062E+03  0.55198747266E+03  0.12509018129E+03 0.  0.
        -24    2    1    2    0    0  0.84807996866E+02  0.70950887934E+02  0.80447714454E+03  0.81600964144E+03  0.80385533478E+02 0.  0.
        -11    1    3    3    0    0 -0.36877828538E+02 -0.16488969306E+02 -0.66489754890E+03  0.66612357027E+03  0.00000000000E+00 0.  1.
         12    1    3    3    0    0  0.27485364013E+02  0.13661302945E+02 -0.14338569617E+03  0.14663401481E+03  0.00000000000E+00 0. -1.
         13    1    5    5    0    0  0.11436208815E+02 -0.66037613345E+01  0.18030093502E+02  0.22349067262E+02  0.00000000000E+00 0. -1.
        -14    1    5    5    0    0  0.73371788051E+02  0.77554649269E+02  0.78644705104E+03  0.79366057417E+03  0.00000000000E+00 0.  1.
          5    1    4    4  501    0 -0.35836569857E+02 -0.54321641984E+02 -0.85389954760E+02  0.10744308866E+03  0.41800000000E+01 0.  1.
         -5    1    4    4    0  501 -0.39578962483E+02 -0.13801579590E+02 -0.44254407586E+03  0.44454438400E+03  0.41800000000E+01 0.  1.
</event>
<event>
11    1  0.8039394E-009  0.2330181E+03  0.7561462E-02  0.1033356E+00
         22   -1    0    0    0    0  0.00000000000E+00  0.00000000000E+00  0.20803436221E+04  0.20803436221E+04  0.00000000000E+00 0. -1.
         22   -1    0    0    0    0 -0.00000000000E+00 -0.00000000000E+00 -0.51808172027E+03  0.51808172027E+03  0.00000000000E+00 0. -1.
        -24    2    1    2    0    0  0.19684969139E+03 -0.19618515964E+02 -0.48055528478E+03  0.52743574338E+03  0.90113231537E+02 0.  0.
         25    2    1    2    0    0 -0.15343417726E+03  0.20941306212E+02  0.78454234572E+03  0.80940431121E+03  0.12509221283E+03 0.  0.
         24    2    1    2    0    0 -0.43415514122E+02 -0.13227902480E+01  0.12582748409E+04  0.12615852877E+04  0.80344299668E+02 0.  0.
        -11    1    5    5    0    0 -0.56277733752E+02 -0.19840271303E+02  0.60837915219E+03  0.61129862792E+03  0.00000000000E+00 0.  1.
         12    1    5    5    0    0  0.12862219630E+02  0.18517481055E+02  0.64989568867E+03  0.65028665983E+03  0.00000000000E+00 0. -1.
         13    1    3    3    0    0  0.18384449612E+03 -0.36262894968E+02 -0.46459444418E+03  0.50096087059E+03  0.00000000000E+00 0. -1.
        -14    1    3    3    0    0  0.13005195270E+02  0.16644379003E+02 -0.15960840601E+02  0.26474872788E+02  0.00000000000E+00 0.  1.
          5    1    4    4  501    0 -0.31074972999E+01 -0.31383338489E+02  0.63904112443E+02  0.71384721484E+02  0.41800000000E+01 0.  1.
         -5    1    4    4    0  501 -0.15032667996E+03  0.52324644702E+02  0.72063823328E+03  0.73801958972E+03  0.41800000000E+01 0.  1.
</event>
<event>
11    1  0.8039394E-009  0.4357876E+03  0.7561462E-02  0.9549693E-01
         22   -1    0    0    0    0  0.00000000000E+00  0.00000000000E+00  0.28132778026E+03  0.28132778026E+03  0.00000000000E+00 0. -1.
         22   -1    0    0    0    0 -0.00000000000E+00 -0.00000000000E+00 -0.15033379484E+04  0.15033379484E+04  0.00000000000E+00 0. -1.
         24    2    1    2    0    0  0.20889592482E+03  0.34602511676E+03 -0.80252969036E+03  0.90216841664E+03  0.80517446768E+02 0.  0.
         25    2    1    2    0    0 -0.21755336434E+02 -0.50076141764E+03 -0.29601276751E+03  0.59540406492E+03  0.12508856839E+03 0.  0.
        -24    2    1    2    0    0 -0.18714058839E+03  0.15473630088E+03 -0.12346771027E+03  0.28709324711E+03  0.90627448522E+02 0.  0.
        -13    1    3    3    0    0  0.50038764440E+02  0.15926218101E+03 -0.32204237965E+03  0.36273904469E+03  0.00000000000E+00 0.  1.
         14    1    3    3    0    0  0.15885716038E+03  0.18676293575E+03 -0.48048731071E+03  0.53942937195E+03  0.00000000000E+00 0. -1.
         13    1    5    5    0    0 -0.13671436251E+03  0.85407750927E+02 -0.12059596822E+03  0.20131738223E+03  0.00000000000E+00 0. -1.
        -14    1    5    5    0    0 -0.50426225876E+02  0.69328549949E+02 -0.28717420514E+01  0.85775864884E+02  0.00000000000E+00 0.  1.
          5    1    4    4  501    0  0.32148040438E+02 -0.38123972200E+03 -0.19256217904E+03  0.42833968685E+03  0.41800000000E+01 0. -1.
         -5    1    4    4    0  501 -0.53903376872E+02 -0.11952169563E+03 -0.10345058847E+03  0.16706437807E+03  0.41800000000E+01 0. -1.
</event>
<event>
11    1  0.8039394E-009  0.1559032E+03  0.7561462E-02  0.1090995E+00
         22   -1    0    0    0    0  0.00000000000E+00  0.00000000000E+00  0.30178898354E+03  0.30178898354E+03  0.00000000000E+00 0. -1.
         22   -1    0    0    0    0 -0.00000000000E+00 -0.00000000000E+00 -0.11656526637E+04  0.11656526637E+04  0.00000000000E+00 0. -1.
        -24    2    1    2    0    0 -0.27620550373E+02  0.98650213189E+02 -0.76980486507E+03  0.78079179709E+03  0.80879792031E+02 0.  0.
         25    2    1    2    0    0  0.56618388186E+02 -0.53049818944E+02 -0.36772054093E+03  0.39608874985E+03  0.12509187168E+03 0.  0.
         24    2    1    2    0    0 -0.28997837813E+02 -0.45600394245E+02  0.27366172588E+03  0.29056110027E+03  0.81331065543E+02 0.  0.
        -11    1    5    5    0    0 -0.32659649489E+02 -0.46843839702E+01  0.33899277545E+02  0.47304938178E+02  0.00000000000E+00 0.  1.
         12    1    5    5    0    0  0.36618116762E+01 -0.40916010275E+02  0.23976244834E+03  0.24325616209E+03  0.00000000000E+00 0. -1.
         11    1    3    3    0    0 -0.30977115547E+01  0.10474866250E+03 -0.64452760906E+03  0.65299136055E+03  0.00000000000E+00 0. -1.
        -12    1    3    3    0    0 -0.24522838818E+02 -0.60984493068E+01 -0.12527725601E+03  0.12780043654E+03  0.00000000000E+00 0.  1.
          5    1    4    4  501    0  0.61791394686E+02 -0.32354776966E+01 -0.67394329579E+02  0.91586641126E+02  0.41800000000E+01 0.  1.
         -5    1    4    4    0  501 -0.51730065002E+01 -0.49814341247E+02 -0.30032621135E+03  0.30450210872E+03  0.41800000000E+01 0.  1.
</event>
<event>
11    1  0.8039394E-009  0.1347383E+03  0.7561462E-02  0.1113580E+00
         22   -1    0    0    0    0  0.00000000000E+00  0.00000000000E+00  0.46231925506E+03  0.46231925506E+03  0.00000000000E+00 0. -1.
         22   -1    0    0    0    0 -0.00000000000E+00 -0.00000000000E+00 -0.20332438317E+03  0.20332438317E+03  0.00000000000E+00 0. -1.
         24    2    1    2    0    0 -0.37212940087E+02 -0.60641292393E+00 -0.10289040891E+03  0.15179211913E+03  0.10521045832E+03 0.  0.
         25    2    1    2    0    0  0.99066556287E+02 -0.70368854981E+01  0.24858697701E+02  0.16164435372E+03  0.12508893598E+03 0.  0.
        -24    2    1    2    0    0 -0.61853616200E+02  0.76432984220E+01  0.33702658310E+03  0.35220716537E+03  0.81109060993E+02 0.  0.
        -13    1    3    3    0    0  0.84874473517E+01  0.44325842451E+02 -0.58252882960E+02  0.73689995553E+02  0.00000000000E+00 0.  1.
         14    1    3    3    0    0 -0.45700387439E+02 -0.44932255374E+02 -0.44637525949E+02  0.78102123581E+02  0.00000000000E+00 0. -1.
         13    1    5    5    0    0 -0.77914683030E+02  0.43856344948E+01  0.31629890110E+03  0.32578355769E+03  0.00000000000E+00 0. -1.
        -14    1    5    5    0    0  0.16061066831E+02  0.32576639272E+01  0.20727681999E+02  0.26423607684E+02  0.00000000000E+00 0.  1.
          5    1    4    4  501    0 -0.62802432762E+00  0.36276914965E+02 -0.22616479316E+02  0.42957962133E+02  0.41800000000E+01 0. -1.
         -5    1    4    4    0  501  0.99694580614E+02 -0.43313800463E+02  0.47475177017E+02  0.11868639158E+03  0.41800000000E+01 0. -1.
</event>
<event>
11    1  0.8039394E-009  0.3213920E+03  0.7561462E-02  0.9915232E-01
         22   -1    0    0    0    0  0.00000000000E+00  0.00000000000E+00  0.25101186300E+03  0.25101186300E+03  0.00000000000E+00 0.  1.
         22   -1    0    0    0    0 -0.00000000000E+00 -0.00000000000E+00 -0.41639699594E+04  0.41639699594E+04  0.00000000000E+00 0. -1.
         24    2    1    2    0    0 -0.29467017223E+03 -0.52692996203E+02 -0.34950334111E+04  0.35087220928E+04  0.79152498333E+02 0.  0.
         25    2    1    2    0    0  0.27158375130E+03  0.64763858539E+02 -0.61793563042E+03  0.68952491785E+03  0.12509227651E+03 0.  0.
        -24    2    1    2    0    0  0.23086420924E+02 -0.12070862336E+02  0.20001094512E+03  0.21673481169E+03  0.79315268915E+02 0.  0.
        -13    1    3    3    0    0 -0.11885134117E+03  0.15768132768E+02 -0.15021947417E+04  0.15069715715E+04  0.00000000000E+00 0.  1.
         14    1    3    3    0    0 -0.17581883105E+03 -0.68461128971E+02 -0.19928386693E+04  0.20017505213E+04  0.00000000000E+00 0. -1.
         11    1    5    5    0    0  0.28615248348E+02 -0.20800580945E+02  0.29926384766E+02  0.46336649758E+02  0.00000000000E+00 0. -1.
        -12    1    5    5    0    0 -0.55288274241E+01  0.87297186091E+01  0.17008456036E+03  0.17039816194E+03  0.00000000000E+00 0.  1.
          5    1    4    4  501    0  0.55810813415E+02  0.61955882857E+02 -0.24251361240E+03  0.25648333847E+03  0.41800000000E+01 0.  1.
         -5    1    4    4    0  501  0.21577293789E+03  0.28079756818E+01 -0.37542201802E+03  0.43304157937E+03  0.41800000000E+01 0.  1.
</event>
<event>
11    1  0.8039394E-009  0.2883751E+03  0.7561462E-02  0.1005235E+00
         22   -1    0    0    0    0  0.00000000000E+00  0.00000000000E+00  0.40313550719E+03  0.40313550719E+03  0.00000000000E+00 0.  1.
         22   -1    0    0    0    0 -0.00000000000E+00 -0.00000000000E+00 -0.44874622790E+03  0.44874622790E+03  0.00000000000E+00 0.  1.
         24    2    1    2    0    0  0.29332759664E+02 -0.93286446139E+02 -0.21329206126E+03  0.24802192466E+03  0.80365414770E+02 0.  0.
         25    2    1    2    0    0 -0.42210273509E+02  0.31573326500E+03  0.86215936465E+02  0.35291814403E+03  0.12509527118E+03 0.  0.
        -24    2    1    2    0    0  0.12877513845E+02 -0.22244681886E+03  0.81465404092E+02  0.25094166640E+03  0.81772185298E+02 0.  0.
        -13    1    3    3    0    0 -0.30674582563E+01 -0.93972091292E+02 -0.15329905743E+03  0.17983538098E+03  0.00000000000E+00 0.  1.
         14    1    3    3    0    0  0.32400217920E+02  0.68564515303E+00 -0.59993003831E+02  0.68186543681E+02  0.00000000000E+00 0. -1.
         13    1    5    5    0    0 -0.30448241915E+02 -0.13448500992E+03  0.34073957324E+02  0.14203643158E+03  0.00000000000E+00 0. -1.
        -14    1    5    5    0    0  0.43325755760E+02 -0.87961808939E+02  0.47391446768E+02  0.10890523482E+03  0.00000000000E+00 0.  1.
          5    1    4    4  501    0  0.36738196356E+02  0.36303109297E+02  0.12170595729E+02  0.53227874432E+02  0.41800000000E+01 0.  1.
         -5    1    4    4    0  501 -0.78948469865E+02  0.27943015570E+03  0.74045340735E+02  0.29969026960E+03  0.41800000000E+01 0.  1.
</event>
<event>
11    1  0.8039394E-009  0.1553679E+03  0.7561462E-02  0.1091517E+00
         22   -1    0    0    0    0  0.00000000000E+00  0.00000000000E+00  0.13931353373E+04  0.13931353373E+04  0.00000000000E+00 0.  1.
         22   -1    0    0    0    0 -0.00000000000E+00 -0.00000000000E+00 -0.13248135275E+04  0.13248135275E+04  0.00000000000E+00 0. -1.
         24    2    1    2    0    0 -0.43822105905E+02 -0.88192393619E+02 -0.13032382300E+04  0.13094326220E+04  0.80533422287E+02 0.  0.
         25    2    1    2    0    0 -0.39824227214E+02  0.95496474062E+01  0.29856161840E+03  0.32628849654E+03  0.12509187885E+03 0.  0.
        -24    2    1    2    0    0  0.83646333119E+02  0.78642746213E+02  0.10729984214E+04  0.10822277463E+04  0.81913929930E+02 0.  0.
        -11    1    3    3    0    0  0.18705475674E+02 -0.11079470336E+02 -0.11377549515E+03  0.11583398801E+03  0.00000000000E+00 0.  1.
         12    1    3    3    0    0 -0.62527581580E+02 -0.77112923284E+02 -0.11894627349E+04  0.11935986340E+04  0.00000000000E+00 0. -1.
         11    1    5    5    0    0  0.73042031335E+01 -0.16325354753E+02  0.95087735495E+02  0.96755082723E+02  0.00000000000E+00 0. -1.
        -12    1    5    5    0    0  0.76342129985E+02  0.94968100966E+02  0.97791068589E+03  0.98547266354E+03  0.00000000000E+00 0.  1.
          5    1    4    4  501    0  0.35607980261E+02 -0.11561395249E+02  0.35432221101E+02  0.51715653438E+02  0.41800000000E+01 0.  1.
         -5    1    4    4    0  501 -0.75432207475E+02  0.21111042655E+02  0.26312939730E+03  0.27457284310E+03  0.41800000000E+01 0.  1.
</event>
<event>
11    1  0.8039394E-009  0.1331378E+03  0.7561462E-02  0.1115473E+00
         22   -1    0    0    0    0  0.00000000000E+00  0.00000000000E+00  0.11106057990E+04  0.11106057990E+04  0.00000000000E+00 0.  1.
         22   -1    0    0    0    0 -0.00000000000E+00 -0.00000000000E+00 -0.17208239986E+03  0.17208239986E+03  0.00000000000E+00 0.  1.
         24    2    1    2    0    0  0.62868857823E+01  0.44952812104E+02 -0.14705333089E+03  0.17357340580E+03  0.80266835169E+02 0.  0.
         25    2    1    2    0    0  0.11078863058E+02 -0.55548138459E+02  0.52073494552E+03  0.53853545871E+03  0.12508884805E+03 0.  0.
        -24    2    1    2    0    0 -0.17365748841E+02  0.10595326355E+02  0.56484178454E+03  0.57057933439E+03  0.78107010554E+02 0.  0.
        -13    1    3    3    0    0 -0.32115211394E+01  0.64133668661E+02 -0.13376612892E+03  0.14838065430E+03  0.00000000000E+00 0.  1.
         14    1    3    3    0    0  0.94984069216E+01 -0.19180856556E+02 -0.13287201970E+02  0.25192751507E+02  0.00000000000E+00 0. -1.
         13    1    5    5    0    0  0.20615834408E+02 -0.15790535557E+02  0.34226119627E+03  0.34324492729E+03  0.00000000000E+00 0. -1.
        -14    1    5    5    0    0 -0.37981583249E+02  0.26385861911E+02  0.22258058827E+03  0.22733440710E+03  0.00000000000E+00 0.  1.
          5    1    4    4  501    0 -0.50529542916E+02 -0.54482060102E+02  0.24983049700E+03  0.26068041586E+03  0.41800000000E+01 0. -1.
         -5    1    4    4    0  501  0.61608405975E+02 -0.10660783575E+01  0.27090444852E+03  0.27785504285E+03  0.41800000000E+01 0. -1.
</event>
<event>
11    1  0.8039394E-009  0.1297893E+03  0.7561462E-02  0.1119528E+00
         22   -1    0    0    0    0  0.00000000000E+00  0.00000000000E+00  0.75902014354E+03  0.75902014354E+03  0.00000000000E+00 0.  1.
         22   -1    0    0    0    0 -0.00000000000E+00 -0.00000000000E+00 -0.12742134621E+03  0.12742134621E+03  0.00000000000E+00 0. -1.
        -24    2    1    2    0    0  0.58477196087E+01  0.34585390252E+02 -0.91957890337E+02  0.12689584661E+03  0.80099670713E+02 0.  0.
         25    2    1    2    0    0 -0.16388858352E+02 -0.24462830387E+02  0.27387197792E+03  0.30252283750E+03  0.12508869721E+03 0.  0.
         24    2    1    2    0    0  0.10541138743E+02 -0.10122559865E+02  0.44968470975E+03  0.45702280564E+03  0.80249142442E+02 0.  0.
        -11    1    5    5    0    0  0.17003833944E+02 -0.38308594655E-01  0.44296091924E+03  0.44328716179E+03  0.00000000000E+00 0.  1.
         12    1    5    5    0    0 -0.64626952009E+01 -0.10084251271E+02  0.67237905126E+01  0.13735643844E+02  0.00000000000E+00 0. -1.
         13    1    3    3    0    0 -0.16214641307E+02  0.54455635546E+02 -0.51300868577E+02  0.76551354999E+02  0.00000000000E+00 0. -1.
        -14    1    3    3    0    0  0.22062360916E+02 -0.19870245294E+02 -0.40657021760E+02  0.50344491612E+02  0.00000000000E+00 0.  1.
          5    1    4    4  501    0 -0.11440496271E+02 -0.70903499539E+02  0.10514488132E+03  0.12740137232E+03  0.41800000000E+01 0.  1.
         -5    1    4    4    0  501 -0.49483620804E+01  0.46440669153E+02  0.16872709659E+03  0.17512146517E+03  0.41800000000E+01 0.  1.
</event>
<event>
11    1  0.8039394E-009  0.2384810E+03  0.7561462E-02  0.1030221E+00
         22   -1    0    0    0    0  0.00000000000E+00  0.00000000000E+00  0.11147406026E+04  0.11147406026E+04  0.00000000000E+00 0.  1.
         22   -1    0    0    0    0 -0.00000000000E+00 -0.00000000000E+00 -0.93398695341E+03  0.93398695341E+03  0.00000000000E+00 0.  1.
        -24    2    1    2    0    0  0.46706659017E+02 -0.12591473297E+02 -0.78362036376E+03  0.79025733396E+03  0.90031784288E+02 0.  0.
         25    2    1    2    0    0  0.13819029947E+03  0.10334653380E+03 -0.51110804184E+02  0.21917401371E+03  0.12509144282E+03 0.  0.
         24    2    1    2    0    0 -0.18489695848E+03 -0.90755060504E+02  0.10154848172E+04  0.10392962084E+04  0.80646317868E+02 0.  0.
        -13    1    5    5    0    0 -0.31952248607E+02 -0.82131069027E+01  0.34785362258E+03  0.34941457333E+03  0.00000000000E+00 0.  1.
         14    1    5    5    0    0 -0.15294470988E+03 -0.82541953601E+02  0.66763119458E+03  0.68988163504E+03  0.00000000000E+00 0. -1.
         11    1    3    3    0    0  0.45722696537E+02  0.24076960301E+02 -0.24504548749E+03  0.25043473389E+03  0.00000000000E+00 0. -1.
        -12    1    3    3    0    0  0.98396248000E+00 -0.36668433598E+02 -0.53857487626E+03  0.53982260007E+03  0.00000000000E+00 0.  1.
          5    1    4    4  501    0  0.12006325771E+03  0.22405927601E+02 -0.10693700864E+01  0.12221222277E+03  0.41800000000E+01 0. -1.
         -5    1    4    4    0  501  0.18127041761E+02  0.80940606199E+02 -0.50041434098E+02  0.96961790936E+02  0.41800000000E+01 0. -1.
</event>
<event>
11    1  0.8039394E-009  0.1466337E+03  0.7561462E-02  0.1100369E+00
         22   -1    0    0    0    0  0.00000000000E+00  0.00000000000E+00  0.93719299886E+03  0.93719299886E+03  0.00000000000E+00 0. -1.
         22   -1    0    0    0    0 -0.00000000000E+00 -0.00000000000E+00 -0.16417648521E+03  0.16417648521E+03  0.00000000000E+00 0.  1.
        -24    2    1    2    0    0 -0.76719945053E+02  0.16475326695E+02 -0.10347956038E+03  0.15317565951E+03  0.81224238327E+02 0.  0.
         25    2    1    2    0    0  0.66169532176E+02 -0.26168239650E+01  0.11440464113E+03  0.18196026377E+03  0.12504343615E+03 0.  0.
         24    2    1    2    0    0  0.10550412877E+02 -0.13858502730E+02  0.76209143289E+03  0.76623356078E+03  0.77634710492E+02 0.  0.
        -11    1    5    5    0    0  0.36438184773E+02 -0.29493551739E+01  0.19193544189E+03  0.19538591008E+03  0.00000000000E+00 0.  1.
         12    1    5    5    0    0 -0.25887771896E+02 -0.10909147556E+02  0.57015599101E+03  0.57084765070E+03  0.00000000000E+00 0. -1.
         13    1    3    3    0    0 -0.34049159312E+02  0.48404213577E+02 -0.47509571739E+02  0.75891188874E+02  0.00000000000E+00 0. -1.
        -14    1    3    3    0    0 -0.42670785741E+02 -0.31928886882E+02 -0.55969988638E+02  0.77284470636E+02  0.00000000000E+00 0.  1.
          5    1    4    4  501    0 -0.69582376602E+01  0.47036017071E+02  0.64904459945E+02  0.80565906524E+02  0.41800000000E+01 0. -1.
         -5    1    4    4    0  501  0.73127769836E+02 -0.49652841036E+02  0.49500181184E+02  0.10139435725E+03  0.41800000000E+01 0. -1.
</event>
<event>
11    1  0.8039394E-009  0.3710398E+03  0.7561462E-02  0.9739296E-01
         22   -1    0    0    0    0  0.00000000000E+00  0.00000000000E+00  0.41935680978E+03  0.41935680978E+03  0.00000000000E+00 0.  1.
         22   -1    0    0    0    0 -0.00000000000E+00 -0.00000000000E+00 -0.62033062095E+03  0.62033062095E+03  0.00000000000E+00 0. -1.
         24    2    1    2    0    0  0.17354067418E+03  0.30783453737E+03 -0.28942963425E+03  0.46400917355E+03  0.81587572360E+02 0.  0.
         25    2    1    2    0    0 -0.29451576601E+02 -0.36215775654E+03  0.52178189517E+01  0.38431813754E+03  0.12509024433E+03 0.  0.
        -24    2    1    2    0    0 -0.14408909758E+03  0.54323219169E+02  0.83238004136E+02  0.19136011964E+03  0.77313969455E+02 0.  0.
        -13    1    3    3    0    0  0.11366728955E+03  0.18835972836E+03 -0.12831778848E+03  0.25468626743E+03  0.00000000000E+00 0.  1.
         14    1    3    3    0    0  0.59873384634E+02  0.11947480901E+03 -0.16111184578E+03  0.20932290612E+03  0.00000000000E+00 0. -1.
         11    1    5    5    0    0 -0.14912028394E+03  0.43793960580E+02  0.62399787674E+02  0.16747687472E+03  0.00000000000E+00 0. -1.
        -12    1    5    5    0    0  0.50311863534E+01  0.10529258589E+02  0.20838216462E+02  0.23883244919E+02  0.00000000000E+00 0.  1.
          5    1    4    4  501    0 -0.15758832513E+02 -0.33665096382E+02  0.38689005667E+02  0.53814413274E+02  0.41800000000E+01 0. -1.
         -5    1    4    4    0  501 -0.13692744089E+02 -0.32849266015E+03 -0.33471186715E+02  0.33050372427E+03  0.41800000000E+01 0. -1.
</event>
<event>
11    1  0.8039394E-009  0.2251929E+03  0.7561462E-02  0.1038012E+00
         22   -1    0    0    0    0  0.00000000000E+00  0.00000000000E+00  0.17329136717E+04  0.17329136717E+04  0.00000000000E+00 0. -1.
         22   -1    0    0    0    0 -0.00000000000E+00 -0.00000000000E+00 -0.50917482588E+02  0.50917482588E+02  0.00000000000E+00 0. -1.
         24    2    1    2    0    0 -0.44452986023E+02  0.27941497642E+01  0.10900792855E+03  0.14170472451E+03  0.78826551501E+02 0.  0.
         25    2    1    2    0    0  0.10539563193E+03  0.17033933587E+03  0.53142430892E+03  0.58153506930E+03  0.12509001618E+03 0.  0.
        -24    2    1    2    0    0 -0.60942645909E+02 -0.17313348563E+03  0.10415639517E+04  0.10605913605E+04  0.79431471226E+02 0.  0.
        -11    1    3    3    0    0 -0.17618527517E+02  0.28741959162E+02  0.96687273712E+02  0.10239600396E+03  0.00000000000E+00 0.  1.
         12    1    3    3    0    0 -0.26834458506E+02 -0.25947809398E+02  0.12320654843E+02  0.39308720554E+02  0.00000000000E+00 0. -1.
         13    1    5    5    0    0 -0.64417883337E+02 -0.70078287935E+02  0.43147034726E+03  0.44184532440E+03  0.00000000000E+00 0. -1.
        -14    1    5    5    0    0  0.34752374281E+01 -0.10305519770E+03  0.61009360440E+03  0.61874603609E+03  0.00000000000E+00 0.  1.
          5    1    4    4  501    0  0.72035680503E+02  0.10595764970E+03  0.17017596632E+03  0.21305749155E+03  0.41800000000E+01 0.  1.
         -5    1    4    4    0  501  0.33359951429E+02  0.64381686168E+02  0.36124834260E+03  0.36847757775E+03  0.41800000000E+01 0.  1.
</event>
<event>
11    1  0.8039394E-009  0.1390015E+03  0.7561462E-02  0.1108678E+00
         22   -1    0    0    0    0  0.00000000000E+00  0.00000000000E+00  0.35382577315E+03  0.35382577315E+03  0.00000000000E+00 0.  1.
         22   -1    0    0    0    0 -0.00000000000E+00 -0.00000000000E+00 -0.19550494537E+04  0.19550494537E+04  0.00000000000E+00 0.  1.
         24    2    1    2    0    0  0.26562068221E+02 -0.17411584912E+02 -0.17780555576E+04  0.17803035164E+04  0.83608241598E+02 0.  0.
         25    2    1    2    0    0  0.28652034959E+02  0.44118415663E+02 -0.14061431901E+03  0.19541442265E+03  0.12508811359E+03 0.  0.
        -24    2    1    2    0    0 -0.55214103180E+02 -0.26706830751E+02  0.31744619601E+03  0.33315728777E+03  0.80373123827E+02 0.  0.
        -11    1    3    3    0    0  0.36520467565E+02 -0.39663409075E+02 -0.15521936531E+04  0.15531297652E+04  0.00000000000E+00 0.  1.
         12    1    3    3    0    0 -0.99583993442E+01  0.22251824163E+02 -0.22586190445E+03  0.22717375129E+03  0.00000000000E+00 0. -1.
         13    1    5    5    0    0  0.82488189888E+01 -0.33853110849E+02  0.79717899042E+02  0.87000112394E+02  0.00000000000E+00 0. -1.
        -14    1    5    5    0    0 -0.63462922169E+02  0.71462800979E+01  0.23772829697E+03  0.24615717538E+03  0.00000000000E+00 0.  1.
          5    1    4    4  501    0 -0.15191845452E+01 -0.41954960725E+02 -0.28918662563E+02  0.51149663689E+02  0.41800000000E+01 0. -1.
         -5    1    4    4    0  501  0.30171219504E+02  0.86073376388E+02 -0.11169565645E+03  0.14426475896E+03  0.41800000000E+01 0. -1.
</event>
<event>
11    1  0.8039394E-009  0.1852393E+03  0.7561462E-02  0.1065482E+00
         22   -1    0    0    0    0  0.00000000000E+00  0.00000000000E+00  0.27930802037E+03  0.27930802037E+03  0.00000000000E+00 0.  1.
         22   -1    0    0    0    0 -0.00000000000E+00 -0.00000000000E+00 -0.95567323709E+03  0.95567323709E+03  0.00000000000E+00 0.  1.
        -24    2    1    2    0    0  0.24007953167E+02  0.34177259833E+01 -0.82911140971E+03  0.83332377655E+03  0.80091973276E+02 0.  0.
         25    2    1    2    0    0  0.29618940233E+02 -0.13079519319E+03  0.48229395335E+01  0.18345293490E+03  0.12508818647E+03 0.  0.
         24    2    1    2    0    0 -0.53626893400E+02  0.12737746721E+03  0.14792325347E+03  0.21820454602E+03  0.81431395279E+02 0.  0.
        -13    1    5    5    0    0 -0.27002676136E+02  0.11647718755E+03  0.14691134249E+03  0.18941758707E+03  0.00000000000E+00 0.  1.
         14    1    5    5    0    0 -0.26624217264E+02  0.10900279664E+02  0.10119109733E+01  0.28786958948E+02  0.00000000000E+00 0. -1.
         13    1    3    3    0    0 -0.18671032094E+02  0.37381573019E+01 -0.58282763815E+02  0.61314450315E+02  0.00000000000E+00 0. -1.
        -14    1    3    3    0    0  0.42678985262E+02 -0.32043131862E+00 -0.77082864590E+03  0.77200932624E+03  0.00000000000E+00 0.  1.
          5    1    4    4  501    0  0.37882257085E+01  0.20702262458E+02 -0.18025629561E+02  0.28023740756E+02  0.41800000000E+01 0. -1.
         -5    1    4    4    0  501  0.25830714524E+02 -0.15149745565E+03  0.22848569094E+02  0.15542919414E+03  0.41800000000E+01 0. -1.
</event>
<event>
11    1  0.8039394E-009  0.2558725E+03  0.7561462E-02  0.1020817E+00
         22   -1    0    0    0    0  0.00000000000E+00  0.00000000000E+00  0.21641363708E+03  0.21641363708E+03  0.00000000000E+00 0. -1.
         22   -1    0    0    0    0 -0.00000000000E+00 -0.00000000000E+00 -0.93551806198E+03  0.93551806198E+03  0.00000000000E+00 0. -1.
        -24    2    1    2    0    0  0.15139461486E+03  0.14916262495E+03 -0.58668708217E+03  0.62882448586E+03  0.77773282925E+02 0.  0.
         25    2    1    2    0    0 -0.18454663371E+03 -0.17779560141E+03 -0.24686988997E+03  0.37717321310E+03  0.12508458823E+03 0.  0.
         24    2    1    2    0    0  0.33152018842E+02  0.28632976456E+02  0.11445254724E+03  0.14593400010E+03  0.79236627398E+02 0.  0.
        -13    1    5    5    0    0 -0.71279348038E+01  0.57863607842E+01 -0.97423068002E+01  0.13386633911E+02  0.00000000000E+00 0.  1.
         14    1    5    5    0    0  0.40279953646E+02  0.22846615672E+02  0.12419485404E+03  0.13254736619E+03  0.00000000000E+00 0. -1.
         11    1    3    3    0    0  0.79438246600E+02  0.10499551889E+03 -0.44317527545E+03  0.46231895784E+03  0.00000000000E+00 0. -1.
        -12    1    3    3    0    0  0.71956368265E+02  0.44167106069E+02 -0.14351180672E+03  0.16650552801E+03  0.00000000000E+00 0.  1.
          5    1    4    4  501    0 -0.83102090431E+02 -0.84252162227E+02 -0.19803354941E+03  0.23073609030E+03  0.41800000000E+01 0. -1.
         -5    1    4    4    0  501 -0.10144454328E+03 -0.93543439183E+02 -0.48836340558E+02  0.14643712280E+03  0.41800000000E+01 0. -1.
</event>
<event>
11    1  0.8039394E-009  0.1724118E+03  0.7561462E-02  0.1075952E+00
         22   -1    0    0    0    0  0.00000000000E+00  0.00000000000E+00  0.76953584781E+03  0.76953584781E+03  0.00000000000E+00 0. -1.
         22   -1    0    0    0    0 -0.00000000000E+00 -0.00000000000E+00 -0.14633321097E+04  0.14633321097E+04  0.00000000000E+00 0. -1.
         24    2    1    2    0    0 -0.10269952668E+03 -0.61674061552E+02 -0.12652442675E+04  0.12733870528E+04  0.79502497159E+02 0.  0.
         25    2    1    2    0    0  0.10609087671E+03  0.33371978062E+02 -0.15462094383E+03  0.22786618452E+03  0.12508556566E+03 0.  0.
        -24    2    1    2    0    0 -0.33913500365E+01  0.28302083490E+02  0.72606894950E+03  0.73161472017E+03  0.85272915725E+02 0.  0.
        -11    1    3    3    0    0 -0.31910532702E+01  0.73756176192E+01 -0.35840880694E+03  0.35849889183E+03  0.00000000000E+00 0.  1.
         12    1    3    3    0    0 -0.99508473407E+02 -0.69049679171E+02 -0.90683546061E+03  0.91488816098E+03  0.00000000000E+00 0. -1.
         11    1    5    5    0    0 -0.32105392966E+02  0.36983742859E+02  0.25941075664E+03  0.26399336005E+03  0.00000000000E+00 0. -1.
        -12    1    5    5    0    0  0.28714042930E+02 -0.86816593694E+01  0.46665819286E+03  0.46762136012E+03  0.00000000000E+00 0.  1.
          5    1    4    4  501    0  0.10551897618E+03 -0.11969801659E+02 -0.14746207397E+03  0.18176926623E+03  0.41800000000E+01 0. -1.
         -5    1    4    4    0  501  0.57190053771E+00  0.45341779721E+02 -0.71588698572E+01  0.46096918293E+02  0.41800000000E+01 0. -1.
</event>
<event>
11    1  0.8039394E-009  0.1825943E+03  0.7561462E-02  0.1067563E+00
         22   -1    0    0    0    0  0.00000000000E+00  0.00000000000E+00  0.17968473897E+04  0.17968473897E+04  0.00000000000E+00 0. -1.
         22   -1    0    0    0    0 -0.00000000000E+00 -0.00000000000E+00 -0.75164577869E+03  0.75164577869E+03  0.00000000000E+00 0. -1.
         24    2    1    2    0    0 -0.12850070315E+03  0.30739306992E+02 -0.66290997642E+03  0.68062753592E+03  0.79667246163E+02 0.  0.
         25    2    1    2    0    0  0.12204294322E+03 -0.11559106382E+03  0.63260439240E+02  0.21887333119E+03  0.12509147816E+03 0.  0.
        -24    2    1    2    0    0  0.64577599306E+01  0.84851756829E+02  0.16448511481E+04  0.16489923012E+04  0.79992416494E+02 0.  0.
        -13    1    3    3    0    0 -0.18261541760E+02  0.82874485295E+01 -0.30023690889E+03  0.30090591083E+03  0.00000000000E+00 0.  1.
         14    1    3    3    0    0 -0.11023916139E+03  0.22451858462E+02 -0.36267306753E+03  0.37972162510E+03  0.00000000000E+00 0. -1.
         13    1    5    5    0    0 -0.23961223238E+02  0.68124495474E+02  0.13782326999E+04  0.13801233503E+04  0.00000000000E+00 0. -1.
        -14    1    5    5    0    0  0.30418983168E+02  0.16727261355E+02  0.26661844825E+03  0.26886895090E+03  0.00000000000E+00 0.  1.
          5    1    4    4  501    0  0.79920936904E+02  0.49089008239E+01  0.11229056769E+02  0.80963063053E+02  0.41800000000E+01 0.  1.
         -5    1    4    4    0  501  0.42122006312E+02 -0.12049996464E+03  0.52031382471E+02  0.13791026813E+03  0.41800000000E+01 0.  1.
</event>
<event>
11    1  0.8039394E-009  0.1269268E+03  0.7561462E-02  0.1123104E+00
         22   -1    0    0    0    0  0.00000000000E+00  0.00000000000E+00  0.12565197972E+03  0.12565197972E+03  0.00000000000E+00 0. -1.
         22   -1    0    0    0    0 -0.00000000000E+00 -0.00000000000E+00 -0.18066188169E+04  0.18066188169E+04  0.00000000000E+00 0. -1.
         24    2    1    2    0    0 -0.24784815304E+02 -0.93189311836E+01 -0.16490971455E+04  0.16512279533E+04  0.79569020364E+02 0.  0.
         25    2    1    2    0    0  0.75189273780E+01 -0.79443467930E+01 -0.10865726138E+03  0.16605311449E+03  0.12509032523E+03 0.  0.
        -24    2    1    2    0    0  0.17265887926E+02  0.17263277977E+02  0.76787569658E+02  0.11498972884E+03  0.82037645217E+02 0.  0.
        -13    1    3    3    0    0 -0.52861425369E+02 -0.62765600240E+01 -0.12499265734E+04  0.12510596166E+04  0.00000000000E+00 0.  1.
         14    1    3    3    0    0  0.28076610066E+02 -0.30423711596E+01 -0.39917057212E+03  0.40016833671E+03  0.00000000000E+00 0. -1.
         11    1    5    5    0    0 -0.27871143257E+02  0.46828837413E+01  0.57975194120E+02  0.64496923647E+02  0.00000000000E+00 0. -1.
        -12    1    5    5    0    0  0.45137031183E+02  0.12580394235E+02  0.18812375537E+02  0.50492805195E+02  0.00000000000E+00 0.  1.
          5    1    4    4  501    0  0.26863691114E+02 -0.61273591373E+02 -0.72035344769E+02  0.98400580262E+02  0.41800000000E+01 0.  1.
         -5    1    4    4    0  501 -0.19344763736E+02  0.53329244580E+02 -0.36621916614E+02  0.67652534232E+02  0.41800000000E+01 0.  1.
</event>
<event>
11    1  0.8039394E-009  0.1461812E+03  0.7561462E-02  0.1100846E+00
         22   -1    0    0    0    0  0.00000000000E+00  0.00000000000E+00  0.39017705977E+03  0.39017705977E+03  0.00000000000E+00 0. -1.
         22   -1    0    0    0    0 -0.00000000000E+00 -0.00000000000E+00 -0.48061850820E+03  0.48061850820E+03  0.00000000000E+00 0.  1.
        -24    2    1    2    0    0 -0.61351536358E+02 -0.34749363890E+02 -0.35335952277E+03  0.36925622575E+03  0.80719753601E+02 0.  0.
         25    2    1    2    0    0  0.51157039786E+02  0.10738022180E+03 -0.41643904682E+02  0.17756627487E+03  0.12509201581E+03 0.  0.
         24    2    1    2    0    0  0.10194496572E+02 -0.72630857914E+02  0.30456197902E+03  0.32397306735E+03  0.82591646205E+02 0.  0.
        -13    1    5    5    0    0  0.23974397014E+01 -0.25806325054E+02  0.13801478020E+02  0.29363155917E+02  0.00000000000E+00 0.  1.
         14    1    5    5    0    0  0.77970568706E+01 -0.46824532861E+02  0.29076050100E+03  0.29460991143E+03  0.00000000000E+00 0. -1.
         13    1    3    3    0    0  0.93841051110E+01 -0.12939413628E+02 -0.12063622393E+02  0.20025504713E+02  0.00000000000E+00 0. -1.
        -14    1    3    3    0    0 -0.70735641469E+02 -0.21809950263E+02 -0.34129590037E+03  0.34923072104E+03  0.00000000000E+00 0.  1.
          5    1    4    4  501    0  0.30478151491E+02 -0.34125613347E+01  0.30683582012E+02  0.43583458998E+02  0.41800000000E+01 0. -1.
         -5    1    4    4    0  501  0.20678888295E+02  0.11079278314E+03 -0.72327486694E+02  0.13398281587E+03  0.41800000000E+01 0. -1.
</event>
<event>
11    1  0.8039394E-009  0.1455461E+03  0.7561462E-02  0.1101519E+00
         22   -1    0    0    0    0  0.00000000000E+00  0.00000000000E+00  0.92659602568E+03  0.92659602568E+03  0.00000000000E+00 0. -1.
         22   -1    0    0    0    0 -0.00000000000E+00 -0.00000000000E+00 -0.30622083655E+03  0.30622083655E+03  0.00000000000E+00 0.  1.
         24    2    1    2    0    0  0.90650914977E+01 -0.71374645572E+02 -0.23818794882E+03  0.26089268988E+03  0.78453685420E+02 0.  0.
         25    2    1    2    0    0 -0.39300628760E+02  0.96364706303E+02  0.68486435425E+02  0.17654506999E+03  0.12508826427E+03 0.  0.
        -24    2    1    2    0    0  0.30235537262E+02 -0.24990060731E+02  0.79007670253E+03  0.79537910235E+03  0.82873576837E+02 0.  0.
        -13    1    3    3    0    0 -0.28351452812E+00 -0.66805692724E+01 -0.15477287822E+03  0.15491724959E+03  0.00000000000E+00 0.  1.
         14    1    3    3    0    0  0.93486060258E+01 -0.64694076299E+02 -0.83415070601E+02  0.10597544030E+03  0.00000000000E+00 0. -1.
         13    1    5    5    0    0  0.43471385468E+02  0.42152317007E+01  0.65868865889E+03  0.66013504594E+03  0.00000000000E+00 0. -1.
        -14    1    5    5    0    0 -0.13235848206E+02 -0.29205292431E+02  0.13138804364E+03  0.13524405641E+03  0.00000000000E+00 0.  1.
          5    1    4    4  501    0 -0.54440105364E+02  0.45812249187E+02  0.93849946723E+02  0.11784639217E+03  0.41800000000E+01 0.  1.
         -5    1    4    4    0  501  0.15139476604E+02  0.50552457116E+02 -0.25363511298E+02  0.58698677819E+02  0.41800000000E+01 0.  1.
</event>
<event>
11    1  0.8039394E-009  0.1847549E+03  0.7561462E-02  0.1065860E+00
         22   -1    0    0    0    0  0.00000000000E+00  0.00000000000E+00  0.32415680433E+04  0.32415680433E+04  0.00000000000E+00 0. -1.
         22   -1    0    0    0    0 -0.00000000000E+00 -0.00000000000E+00 -0.20514959092E+03  0.20514959092E+03  0.00000000000E+00 0. -1.
        -24    2    1    2    0    0  0.14178109785E+01 -0.12763385774E+03 -0.11474923047E+03  0.19061252396E+03  0.82905588271E+02 0.  0.
         25    2    1    2    0    0  0.34381292007E+02  0.19370087513E+03  0.21266777151E+03  0.31555890067E+03  0.12509091288E+03 0.  0.
         24    2    1    2    0    0 -0.35799102985E+02 -0.66067017388E+02  0.29384999113E+04  0.29405462096E+04  0.79899031558E+02 0.  0.
        -13    1    5    5    0    0  0.11230884934E+02 -0.53746580391E+02  0.10638600717E+04  0.10652760581E+04  0.00000000000E+00 0.  1.
         14    1    5    5    0    0 -0.47029987919E+02 -0.12320436997E+02  0.18746398396E+04  0.18752701515E+04  0.00000000000E+00 0. -1.
         13    1    3    3    0    0 -0.15933537025E+02 -0.24586547743E+02 -0.71955789958E+02  0.77691773313E+02  0.00000000000E+00 0. -1.
        -14    1    3    3    0    0  0.17351348004E+02 -0.10304731000E+03 -0.42793440512E+02  0.11292075065E+03  0.00000000000E+00 0.  1.
          5    1    4    4  501    0  0.16865504470E+02  0.17076152059E+03  0.98867516206E+02  0.19808129724E+03  0.41800000000E+01 0.  1.
         -5    1    4    4    0  501  0.17515787537E+02  0.22939354537E+02  0.11380025530E+03  0.11747760343E+03  0.41800000000E+01 0.  1.
</event>
<event>
11    1  0.8039394E-009  0.1515031E+03  0.7561462E-02  0.1095353E+00
         22   -1    0    0    0    0  0.00000000000E+00  0.00000000000E+00  0.58920921243E+03  0.58920921243E+03  0.00000000000E+00 0. -1.
         22   -1    0    0    0    0 -0.00000000000E+00 -0.00000000000E+00 -0.26892874573E+04  0.26892874573E+04  0.00000000000E+00 0. -1.
         24    2    1    2    0    0 -0.15852128991E+01  0.13913944910E+02 -0.25094534696E+04  0.25107848443E+04  0.80546307834E+02 0.  0.
         25    2    1    2    0    0  0.26574525533E+02  0.68292954255E+02 -0.14253089658E+03  0.20330457943E+03  0.12509021756E+03 0.  0.
        -24    2    1    2    0    0 -0.24989312634E+02 -0.82206899165E+02  0.55190612130E+03  0.56440724598E+03  0.81072390927E+02 0.  0.
        -11    1    3    3    0    0 -0.40889460614E+02  0.10903496057E+02 -0.12736203952E+04  0.12743232499E+04  0.00000000000E+00 0.  1.
         12    1    3    3    0    0  0.39304247715E+02  0.30104488529E+01 -0.12358330744E+04  0.12364615944E+04  0.00000000000E+00 0. -1.
         11    1    5    5    0    0 -0.21593287799E+02 -0.35862767461E+01  0.29273657191E+03  0.29355379744E+03  0.00000000000E+00 0. -1.
        -12    1    5    5    0    0 -0.33960248352E+01 -0.78620622419E+02  0.25916954939E+03  0.27085344854E+03  0.00000000000E+00 0.  1.
          5    1    4    4  501    0 -0.40933394802E+01  0.53605133060E+01 -0.13217412096E+03  0.13241208851E+03  0.41800000000E+01 0.  1.
         -5    1    4    4    0  501  0.30667865013E+02  0.62932440949E+02 -0.10356775624E+02  0.70892490925E+02  0.41800000000E+01 0.  1.
</event>
<event>
11    1  0.8039394E-009  0.1376014E+03  0.7561462E-02  0.1110267E+00
         22   -1    0    0    0    0  0.00000000000E+00  0.00000000000E+00  0.14281421616E+03  0.14281421616E+03  0.00000000000E+00 0.  1.
         22   -1    0    0    0    0 -0.00000000000E+00 -0.00000000000E+00 -0.12691226748E+04  0.12691226748E+04  0.00000000000E+00 0.  1.
        -24    2    1    2    0    0 -0.35616369422E+02 -0.19033483972E+02 -0.10447744066E+04  0.10480181680E+04  0.71817271562E+02 0.  0.
         25    2    1    2    0    0  0.65932271778E+02  0.63533879976E+02 -0.17138606756E+03  0.23109453604E+03  0.12509149478E+03 0.  0.
         24    2    1    2    0    0 -0.30315902356E+02 -0.44500396004E+02  0.89852015466E+02  0.13282418697E+03  0.81667256471E+02 0.  0.
        -11    1    5    5    0    0 -0.23238855758E+02  0.13471329028E+01  0.82665396110E+02  0.85880305647E+02  0.00000000000E+00 0.  1.
         12    1    5    5    0    0 -0.70770465981E+01 -0.45847528907E+02  0.71866193558E+01  0.46943881318E+02  0.00000000000E+00 0. -1.
         11    1    3    3    0    0 -0.13567392105E+02  0.19831469636E+02 -0.13324527151E+03  0.13539447439E+03  0.00000000000E+00 0. -1.
        -12    1    3    3    0    0 -0.22048977317E+02 -0.38864953608E+02 -0.91152913504E+03  0.91262369356E+03  0.00000000000E+00 0.  1.
          5    1    4    4  501    0  0.29557312570E+02 -0.28947397973E+01  0.12260113844E+02  0.32400571543E+02  0.41800000000E+01 0.  1.
         -5    1    4    4    0  501  0.36374959208E+02  0.66428619774E+02 -0.18364618140E+03  0.19869396449E+03  0.41800000000E+01 0.  1.
</event>
<event>
11    1  0.8039394E-009  0.1334998E+03  0.7561462E-02  0.1115042E+00
         22   -1    0    0    0    0  0.00000000000E+00  0.00000000000E+00  0.63984712465E+02  0.63984712465E+02  0.00000000000E+00 0.  1.
         22   -1    0    0    0    0 -0.00000000000E+00 -0.00000000000E+00 -0.13208894094E+04  0.13208894094E+04  0.00000000000E+00 0.  1.
        -24    2    1    2    0    0 -0.13399620228E+02 -0.18033078935E+02 -0.91547329735E+03  0.91906983469E+03  0.78059343493E+02 0.  0.
         25    2    1    2    0    0  0.95952426015E+00 -0.29301009408E+02 -0.34727548278E+03  0.37027980275E+03  0.12508957410E+03 0.  0.
         24    2    1    2    0    0  0.12440095968E+02  0.47334088343E+02  0.58440832213E+01  0.95524484400E+02  0.81826046612E+02 0.  0.
        -13    1    5    5    0    0  0.28315902584E+02  0.51814852771E+02  0.30032994208E+02  0.66246132324E+02  0.00000000000E+00 0.  1.
         14    1    5    5    0    0 -0.15875806616E+02 -0.44807644271E+01 -0.24188910987E+02  0.29278352076E+02  0.00000000000E+00 0. -1.
         13    1    3    3    0    0  0.46027461007E+00 -0.22925328876E+02 -0.74067015067E+02  0.77535187352E+02  0.00000000000E+00 0. -1.
        -14    1    3    3    0    0 -0.13859894838E+02  0.48922499407E+01 -0.84140628229E+03  0.84153464734E+03  0.00000000000E+00 0.  1.
          5    1    4    4  501    0 -0.57341483274E+02 -0.38181467439E+02 -0.17354247660E+03  0.18676277398E+03  0.41800000000E+01 0. -1.
         -5    1    4    4    0  501  0.58301007535E+02  0.88804580301E+01 -0.17373300618E+03  0.18351702878E+03  0.41800000000E+01 0. -1.
</event>
<event>
11    1  0.8039394E-009  0.1477174E+03  0.7561462E-02  0.1099234E+00
         22   -1    0    0    0    0  0.00000000000E+00  0.00000000000E+00  0.77761909272E+02  0.77761909272E+02  0.00000000000E+00 0.  1.
         22   -1    0    0    0    0 -0.00000000000E+00 -0.00000000000E+00 -0.23936891847E+04  0.23936891847E+04  0.00000000000E+00 0.  1.
         24    2    1    2    0    0  0.10126698609E+02  0.74027835701E+02 -0.19186407065E+04  0.19217613571E+04  0.80011765388E+02 0.  0.
         25    2    1    2    0    0 -0.35069115662E+02 -0.11846106240E+03 -0.41799015931E+03  0.45346068451E+03  0.12509177806E+03 0.  0.
        -24    2    1    2    0    0  0.24942417053E+02  0.44433226697E+02  0.20703590384E+02  0.96229052341E+02  0.78961737927E+02 0.  0.
        -13    1    3    3    0    0  0.41538370125E+02  0.59897779674E+02 -0.14666335010E+04  0.14684437363E+04  0.00000000000E+00 0.  1.
         14    1    3    3    0    0 -0.31411671516E+02  0.14130056028E+02 -0.45200720546E+03  0.45331762085E+03  0.00000000000E+00 0. -1.
         13    1    5    5    0    0 -0.14059495902E+02  0.12859875980E+02 -0.22872652611E+02  0.29769179913E+02  0.00000000000E+00 0. -1.
        -14    1    5    5    0    0  0.39001912955E+02  0.31573350718E+02  0.43576242994E+02  0.66459872428E+02  0.00000000000E+00 0.  1.
          5    1    4    4  501    0 -0.23648881623E+02 -0.14477273647E+03 -0.34392687464E+03  0.37392724202E+03  0.41800000000E+01 0. -1.
         -5    1    4    4    0  501 -0.11420234039E+02  0.26311674068E+02 -0.74063284670E+02  0.79533442487E+02  0.41800000000E+01 0. -1.
</event>
<event>
11    1  0.8039394E-009  0.1429582E+03  0.7561462E-02  0.1104299E+00
         22   -1    0    0    0    0  0.00000000000E+00  0.00000000000E+00  0.88166568718E+03  0.88166568718E+03  0.00000000000E+00 0.  1.
         22   -1    0    0    0    0 -0.00000000000E+00 -0.00000000000E+00 -0.45284866538E+03  0.45284866538E+03  0.00000000000E+00 0. -1.
        -24    2    1    2    0    0  0.71377702691E+02 -0.57689050042E+01 -0.41413605044E+03  0.42684329682E+03  0.74555181311E+02 0.  0.
         25    2    1    2    0    0 -0.17878140472E+02 -0.79907001549E+01  0.10861464009E+03  0.16681577935E+03  0.12508750938E+03 0.  0.
         24    2    1    2    0    0 -0.53499562218E+02  0.13759605159E+02  0.73433843215E+03  0.74085527638E+03  0.81006652325E+02 0.  0.
        -11    1    5    5    0    0 -0.39500297285E+02  0.44923583980E+02  0.56114200301E+03  0.56432149474E+03  0.00000000000E+00 0.  1.
         12    1    5    5    0    0 -0.13999264934E+02 -0.31163978821E+02  0.17319642914E+03  0.17653378165E+03  0.00000000000E+00 0. -1.
         11    1    3    3    0    0 -0.24188798281E+01  0.13055490364E+02 -0.18304377021E+03  0.18352470848E+03  0.00000000000E+00 0. -1.
        -12    1    3    3    0    0  0.73796582519E+02 -0.18824395368E+02 -0.23109228023E+03  0.24331858834E+03  0.00000000000E+00 0.  1.
          5    1    4    4  501    0  0.49119453321E+01 -0.24960736393E+02 -0.21500003680E+02  0.33569154390E+02  0.41800000000E+01 0.  1.
         -5    1    4    4    0  501 -0.22790085804E+02  0.16970036238E+02  0.13011464377E+03  0.13324662496E+03  0.41800000000E+01 0.  1.
</event>
<event>
11    1  0.8039394E-009  0.1806510E+03  0.7561462E-02  0.1069117E+00
         22   -1    0    0    0    0  0.00000000000E+00  0.00000000000E+00  0.17692326520E+03  0.17692326520E+03  0.00000000000E+00 0. -1.
         22   -1    0    0    0    0 -0.00000000000E+00 -0.00000000000E+00 -0.97563543062E+03  0.97563543062E+03  0.00000000000E+00 0.  1.
         24    2    1    2    0    0 -0.56792064512E+02  0.11911980105E+03 -0.86991888278E+03  0.88368729221E+03  0.82033543182E+02 0.  0.
         25    2    1    2    0    0  0.25625682545E+02 -0.10737666077E+03  0.20156140806E+02  0.16804616038E+03  0.12508724604E+03 0.  0.
        -24    2    1    2    0    0  0.31166381967E+02 -0.11743140277E+02  0.51050576558E+02  0.10082524323E+03  0.80313906620E+02 0.  0.
        -13    1    3    3    0    0 -0.23100602438E+02  0.11384183398E+03 -0.56157014175E+03  0.57345847723E+03  0.00000000000E+00 0.  1.
         14    1    3    3    0    0 -0.33691462074E+02  0.52779670676E+01 -0.30834874103E+03  0.31022881499E+03  0.00000000000E+00 0. -1.
         13    1    5    5    0    0  0.47467543755E+02 -0.30106218456E+02  0.51545056991E+02  0.76265621351E+02  0.00000000000E+00 0. -1.
        -14    1    5    5    0    0 -0.16301161788E+02  0.18363078179E+02 -0.49448043308E+00  0.24559621877E+02  0.00000000000E+00 0.  1.
          5    1    4    4  501    0 -0.10581481633E+02  0.25669815822E+02 -0.27360306980E+01  0.28211087569E+02  0.41800000000E+01 0.  1.
         -5    1    4    4    0  501  0.36207164177E+02 -0.13304647659E+03  0.22892171504E+02  0.13983507281E+03  0.41800000000E+01 0.  1.
</event>
<event>
11    1  0.8039394E-009  0.1770733E+03  0.7561462E-02  0.1072035E+00
         22   -1    0    0    0    0  0.00000000000E+00  0.00000000000E+00  0.30636908499E+04  0.30636908499E+04  0.00000000000E+00 0.  1.
         22   -1    0    0    0    0 -0.00000000000E+00 -0.00000000000E+00 -0.78139641373E+02  0.78139641373E+02  0.00000000000E+00 0.  1.
         24    2    1    2    0    0  0.67895037395E+02  0.10089911506E+03  0.31847780197E+02  0.16709415493E+03  0.11007183102E+03 0.  0.
         25    2    1    2    0    0 -0.99782161810E+02 -0.13843723047E+03  0.12025747810E+04  0.12210466688E+04  0.12509003442E+03 0.  0.
        -24    2    1    2    0    0  0.31887124415E+02  0.37538115407E+02  0.17511286473E+04  0.17536896676E+04  0.80932144561E+02 0.  0.
        -11    1    3    3    0    0  0.82319580798E+02  0.10948252366E+03  0.70622387775E+01  0.13715980310E+03  0.00000000000E+00 0.  1.
         12    1    3    3    0    0 -0.14424543403E+02 -0.85834086032E+01  0.24785541420E+02  0.29934351824E+02  0.00000000000E+00 0. -1.
         13    1    5    5    0    0 -0.12596340510E+01  0.36949870341E+02  0.31254749214E+03  0.31472657091E+03  0.00000000000E+00 0. -1.
        -14    1    5    5    0    0  0.33146758466E+02  0.58824506595E+00  0.14385811552E+04  0.14389630967E+04  0.00000000000E+00 0.  1.
          5    1    4    4  501    0  0.59629976110E+01 -0.26987866258E+02  0.42713311864E+02  0.51047053549E+02  0.41800000000E+01 0. -1.
         -5    1    4    4    0  501 -0.10574515942E+03 -0.11144936421E+03  0.11598614692E+04  0.11699996152E+04  0.41800000000E+01 0. -1.
</event>
<event>
11    1  0.8039394E-009  0.1317517E+03  0.7561462E-02  0.1117135E+00
         22   -1    0    0    0    0  0.00000000000E+00  0.00000000000E+00  0.35245887357E+03  0.35245887357E+03  0.00000000000E+00 0.  1.
         22   -1    0    0    0    0 -0.00000000000E+00 -0.00000000000E+00 -0.10369468146E+04  0.10369468146E+04  0.00000000000E+00 0.  1.
        -24    2    1    2    0    0 -0.11792436012E+02  0.17309939826E+02 -0.71297314024E+03  0.71775760991E+03  0.80041191412E+02 0.  0.
         25    2    1    2    0    0 -0.29617330079E+02 -0.13143316059E+02 -0.30202731858E+03  0.32850972890E+03  0.12509279680E+03 0.  0.
         24    2    1    2    0    0  0.41409766090E+02 -0.41666237665E+01  0.33051251781E+03  0.34313834934E+03  0.82299895976E+02 0.  0.
        -13    1    5    5    0    0  0.35429210242E+02  0.14431396860E+02  0.31719816736E+03  0.31949674729E+03  0.00000000000E+00 0.  1.
         14    1    5    5    0    0  0.59805558480E+01 -0.18598020626E+02  0.13314350448E+02  0.23641602047E+02  0.00000000000E+00 0. -1.
         11    1    3    3    0    0  0.15089502773E+02 -0.20466143614E+02 -0.10563290678E+03  0.10865020535E+03  0.00000000000E+00 0. -1.
        -12    1    3    3    0    0 -0.26881938785E+02  0.37776083440E+02 -0.60734023346E+03  0.60910740456E+03  0.00000000000E+00 0.  1.
          5    1    4    4  501    0 -0.21973152007E+02 -0.59309653993E+02 -0.82650923377E+02  0.10415902266E+03  0.41800000000E+01 0. -1.
         -5    1    4    4    0  501 -0.76441780716E+01  0.46166337933E+02 -0.21937639520E+03  0.22435070624E+03  0.41800000000E+01 0. -1.
</event>
<event>
11    1  0.8039394E-009  0.1312323E+03  0.7561462E-02  0.1117764E+00
         22   -1    0    0    0    0  0.00000000000E+00  0.00000000000E+00  0.82612087189E+03  0.82612087189E+03  0.00000000000E+00 0.  1.
         22   -1    0    0    0    0 -0.00000000000E+00 -0.00000000000E+00 -0.54073540355E+02  0.54073540355E+02  0.00000000000E+00 0.  1.
         24    2    1    2    0    0  0.20991609896E+02 -0.29125903510E+02  0.14548744922E+02  0.88463134892E+02  0.79530461553E+02 0.  0.
         25    2    1    2    0    0  0.10128238714E+02  0.51549962230E+02  0.36231608588E+03  0.38688619987E+03  0.12509198912E+03 0.  0.
        -24    2    1    2    0    0 -0.31119848610E+02 -0.22424058720E+02  0.39518250073E+03  0.40484507748E+03  0.79114123168E+02 0.  0.
        -11    1    3    3    0    0 -0.90830550020E+01 -0.49020516847E+02  0.76998788456E+00  0.49860864829E+02  0.00000000000E+00 0.  1.
         12    1    3    3    0    0  0.30074664898E+02  0.19894613337E+02  0.13778757037E+02  0.38602270063E+02  0.00000000000E+00 0. -1.
         11    1    5    5    0    0  0.41240957882E+01 -0.43243524608E+02  0.14609027379E+03  0.15241187185E+03  0.00000000000E+00 0. -1.
        -12    1    5    5    0    0 -0.35243944398E+02  0.20819465888E+02  0.24909222695E+03  0.25243320562E+03  0.00000000000E+00 0.  1.
          5    1    4    4  501    0  0.62806110856E+02  0.33775168986E+01  0.19486495654E+03  0.20480683306E+03  0.41800000000E+01 0. -1.
         -5    1    4    4    0  501 -0.52677872142E+02  0.48172445332E+02  0.16745112933E+03  0.18207936681E+03  0.41800000000E+01 0. -1.
</event>
<event>
11    1  0.9744640E-009  0.1603638E+03  0.7561462E-02  0.1086736E+00
         22   -1    0    0    0    0  0.00000000000E+00  0.00000000000E+00  0.54942784350E+03  0.54942784350E+03  0.00000000000E+00 0.  1.
         22   -1    0    0    0    0 -0.00000000000E+00 -0.00000000000E+00 -0.39694563410E+03  0.39694563410E+03  0.00000000000E+00 0. -1.
         24    2    1    2    0    0 -0.84114234945E+02  0.15756862024E+02 -0.29311661503E+03  0.31598855419E+03  0.81289194536E+02 0.  0.
         25    2    1    2    0    0  0.19293532002E+02 -0.97141939727E+02 -0.65973112367E+01  0.15970185488E+03  0.12510939655E+03 0.  0.
        -24    2    1    2    0    0  0.64820702943E+02  0.81385077703E+02  0.45219613566E+03  0.47068306853E+03  0.78968040930E+02 0.  0.
        -13    1    3    3    0    0 -0.46743223192E+02 -0.16267680164E+01 -0.46506130474E+02  0.65957527700E+02  0.00000000000E+00 0.  1.
         14    1    3    3    0    0 -0.37371011754E+02  0.17383630040E+02 -0.24661048456E+03  0.25003102649E+03  0.00000000000E+00 0. -1.
         11    1    5    5    0    0 -0.17665154738E+02  0.61059286613E+01  0.55141082627E+02  0.58222667837E+02  0.00000000000E+00 0. -1.
        -12    1    5    5    0    0  0.82485857681E+02  0.75279149042E+02  0.39705505304E+03  0.41246040069E+03  0.00000000000E+00 0.  1.
          5    1    4    4  501    0 -0.14266753760E+02 -0.71014151091E+02 -0.57976061065E+02  0.92872202378E+02  0.41800000000E+01 0.  1.
         -5    1    4    4    0  501  0.33560285762E+02 -0.26127788636E+02  0.51378749828E+02  0.66829652500E+02  0.41800000000E+01 0.  1.
</event>
<event>
11    1  0.8039394E-009  0.2173170E+03  0.7561462E-02  0.1042911E+00
         22   -1    0    0    0    0  0.00000000000E+00  0.00000000000E+00  0.33296693978E+03  0.33296693978E+03  0.00000000000E+00 0. -1.
         22   -1    0    0    0    0 -0.00000000000E+00 -0.00000000000E+00 -0.10810639765E+04  0.10810639765E+04  0.00000000000E+00 0.  1.
         24    2    1    2    0    0  0.44930342852E+02  0.16524872438E+03 -0.87742364980E+03  0.89772284016E+03  0.81903357127E+02 0.  0.
         25    2    1    2    0    0 -0.11501833377E+02 -0.30295091393E+03  0.41070416389E+02  0.33052008190E+03  0.12508076196E+03 0.  0.
        -24    2    1    2    0    0 -0.33428509475E+02  0.13770218955E+03  0.88256196736E+02  0.18578799417E+03  0.81539341801E+02 0.  0.
        -13    1    3    3    0    0  0.43301426426E+01  0.14180275337E+03 -0.69826794974E+03  0.71253413998E+03  0.00000000000E+00 0.  1.
         14    1    3    3    0    0  0.40600200210E+02  0.23445971015E+02 -0.17915570005E+03  0.18518870018E+03  0.00000000000E+00 0. -1.
         11    1    5    5    0    0 -0.34532508197E+02  0.13189355300E+03  0.10236493937E+03  0.17049042277E+03  0.00000000000E+00 0. -1.
        -12    1    5    5    0    0  0.11039987218E+01  0.58086365532E+01 -0.14108742636E+02  0.15297571394E+02  0.00000000000E+00 0.  1.
          5    1    4    4  501    0 -0.39892185424E+02 -0.29531751213E+03  0.40922090682E+02  0.30082538013E+03  0.41800000000E+01 0. -1.
         -5    1    4    4    0  501  0.28390352047E+02 -0.76334018065E+01  0.14832570697E+00  0.29694701766E+02  0.41800000000E+01 0. -1.
</event>
<event>
11    1  0.8039394E-009  0.1393769E+03  0.7561462E-02  0.1108256E+00
         22   -1    0    0    0    0  0.00000000000E+00  0.00000000000E+00  0.98599805709E+03  0.98599805709E+03  0.00000000000E+00 0. -1.
         22   -1    0    0    0    0 -0.00000000000E+00 -0.00000000000E+00 -0.70423080712E+03  0.70423080712E+03  0.00000000000E+00 0.  1.
        -24    2    1    2    0    0 -0.51481836154E+02  0.37458496094E+02 -0.58738526297E+03  0.59611790759E+03  0.79256508968E+02 0.  0.
         25    2    1    2    0    0  0.44359133754E+02 -0.87787035999E+01 -0.70609800644E+02  0.15059273306E+03  0.12509048293E+03 0.  0.
         24    2    1    2    0    0  0.71227023998E+01 -0.28679792494E+02  0.93976231358E+03  0.94351822356E+03  0.78741150383E+02 0.  0.
        -13    1    5    5    0    0 -0.19834211031E+02 -0.22635775981E+02  0.13639068269E+03  0.13967173159E+03  0.00000000000E+00 0.  1.
         14    1    5    5    0    0  0.26956913431E+02 -0.60440165130E+01  0.80337163090E+03  0.80384649197E+03  0.00000000000E+00 0. -1.
         11    1    3    3    0    0  0.76423401087E+00 -0.19110097874E+02 -0.21531444945E+03  0.21616218919E+03  0.00000000000E+00 0. -1.
        -12    1    3    3    0    0 -0.52246070164E+02  0.56568593968E+02 -0.37207081352E+03  0.37995571840E+03  0.00000000000E+00 0.  1.
          5    1    4    4  501    0  0.40206897301E+02 -0.27119898171E+02  0.23837136355E+02  0.54201152543E+02  0.41800000000E+01 0.  1.
         -5    1    4    4    0  501  0.41522364526E+01  0.18341194571E+02 -0.94446937000E+02  0.96391580516E+02  0.41800000000E+01 0.  1.
</event>
<event>
11    1  0.8039394E-009  0.1474789E+03  0.7561462E-02  0.1099483E+00
         22   -1    0    0    0    0  0.00000000000E+00  0.00000000000E+00  0.12409873498E+04  0.12409873498E+04  0.00000000000E+00 0.  1.
         22   -1    0    0    0    0 -0.00000000000E+00 -0.00000000000E+00 -0.14520544762E+03  0.14520544762E+03  0.00000000000E+00 0. -1.
        -24    2    1    2    0    0 -0.70877590612E+02 -0.33836005095E+02 -0.83550260820E+02  0.12542132761E+03  0.50807039315E+02 0.  0.
         25    2    1    2    0    0  0.69711647299E+02  0.28855030580E+02  0.97462632607E+02  0.17561070340E+03  0.12509127802E+03 0.  0.
         24    2    1    2    0    0  0.11659433122E+01  0.49809745150E+01  0.10818695304E+04  0.10851607665E+04  0.84297322857E+02 0.  0.
        -13    1    5    5    0    0  0.29590762306E+01  0.11244188047E+02  0.10769105050E+04  0.10769732697E+04  0.00000000000E+00 0.  1.
         14    1    5    5    0    0 -0.17931329183E+01 -0.62632135315E+01  0.49590253966E+01  0.81874967047E+01  0.00000000000E+00 0. -1.
         11    1    3    3    0    0 -0.67803089327E+02 -0.41046972552E+02 -0.86243402165E+02  0.11713256291E+03  0.00000000000E+00 0. -1.
        -12    1    3    3    0    0 -0.30745012849E+01  0.72109674572E+01  0.26931413454E+01  0.82887646924E+01  0.00000000000E+00 0.  1.
          5    1    4    4  501    0  0.32688567311E+02  0.54818026581E+02 -0.43709217557E+01  0.64110341038E+02  0.41800000000E+01 0. -1.
         -5    1    4    4    0  501  0.37023079988E+02 -0.25962996001E+02  0.10183355436E+03  0.11150036236E+03  0.41800000000E+01 0. -1.
</event>
<event>
11    1  0.8039394E-009  0.1337089E+03  0.7561462E-02  0.1114794E+00
         22   -1    0    0    0    0  0.00000000000E+00  0.00000000000E+00  0.49930500315E+03  0.49930500315E+03  0.00000000000E+00 0.  1.
         22   -1    0    0    0    0 -0.00000000000E+00 -0.00000000000E+00 -0.11816951831E+03  0.11816951831E+03  0.00000000000E+00 0. -1.
         24    2    1    2    0    0  0.57011696995E+02 -0.34790675663E+01 -0.52052576787E+02  0.11242733213E+03  0.81657802783E+02 0.  0.
         25    2    1    2    0    0 -0.19681360037E+02 -0.37546107666E+02  0.12791697616E+03  0.18386666554E+03  0.12508849577E+03 0.  0.
        -24    2    1    2    0    0 -0.37330336958E+02  0.41025175232E+02  0.30527108547E+03  0.32118052379E+03  0.83005265986E+02 0.  0.
        -11    1    3    3    0    0  0.27112971084E+02 -0.36784062737E+02 -0.49837017382E+02  0.67615891431E+02  0.00000000000E+00 0.  1.
         12    1    3    3    0    0  0.29898725911E+02  0.33304995171E+02 -0.22155594043E+01  0.44811440703E+02  0.00000000000E+00 0. -1.
         13    1    5    5    0    0 -0.46425733046E+02  0.60718034061E+01  0.77361346373E+02  0.90426729445E+02  0.00000000000E+00 0. -1.
        -14    1    5    5    0    0  0.90953960884E+01  0.34953371826E+02  0.22790973909E+03  0.23075379435E+03  0.00000000000E+00 0.  1.
          5    1    4    4  501    0 -0.32520400922E+02  0.26862954570E+02  0.27774072523E+01  0.42478008374E+02  0.41800000000E+01 0.  1.
         -5    1    4    4    0  501  0.12839040885E+02 -0.64409062235E+02  0.12513956891E+03  0.14138865717E+03  0.41800000000E+01 0.  1.
</event>
<event>
11    1  0.8039394E-009  0.1616486E+03  0.7561462E-02  0.1085537E+00
         22   -1    0    0    0    0  0.00000000000E+00  0.00000000000E+00  0.96922371592E+03  0.96922371592E+03  0.00000000000E+00 0.  1.
         22   -1    0    0    0    0 -0.00000000000E+00 -0.00000000000E+00 -0.83505421993E+03  0.83505421993E+03  0.00000000000E+00 0.  1.
         24    2    1    2    0    0 -0.53484704810E+02  0.86173793897E+02 -0.79024575687E+03  0.80077040610E+03  0.80363863926E+02 0.  0.
         25    2    1    2    0    0  0.11978401518E+03 -0.11030292722E+03  0.26377472174E+03  0.33427491310E+03  0.12509063775E+03 0.  0.
        -24    2    1    2    0    0 -0.66299310373E+02  0.24129133324E+02  0.66064053113E+03  0.66923261665E+03  0.80302989903E+02 0.  0.
        -13    1    3    3    0    0 -0.53022316878E+02  0.97264708351E+02 -0.59599901162E+03  0.60620673984E+03  0.00000000000E+00 0.  1.
         14    1    3    3    0    0 -0.46238793242E+00 -0.11090914454E+02 -0.19424674526E+03  0.19456366626E+03  0.00000000000E+00 0. -1.
         11    1    5    5    0    0 -0.44582830538E+02 -0.18991106312E+02  0.18847101511E+03  0.19460116761E+03  0.00000000000E+00 0. -1.
        -12    1    5    5    0    0 -0.21716479835E+02  0.43120239636E+02  0.47216951602E+03  0.47463144904E+03  0.00000000000E+00 0.  1.
          5    1    4    4  501    0  0.86623174971E+02 -0.17990989976E+02  0.56862264304E+02  0.10525226679E+03  0.41800000000E+01 0.  1.
         -5    1    4    4    0  501  0.33160840212E+02 -0.92311937245E+02  0.20691245743E+03  0.22902264631E+03  0.41800000000E+01 0.  1.
</event>
<event>
11    1  0.8039394E-009  0.1310312E+03  0.7561462E-02  0.1118008E+00
         22   -1    0    0    0    0  0.00000000000E+00  0.00000000000E+00  0.70756442510E+02  0.70756442510E+02  0.00000000000E+00 0.  1.
         22   -1    0    0    0    0 -0.00000000000E+00 -0.00000000000E+00 -0.84078816474E+03  0.84078816474E+03  0.00000000000E+00 0. -1.
         24    2    1    2    0    0 -0.25686519955E+02  0.17490011649E+02 -0.54938694736E+03  0.55646423799E+03  0.82829538350E+02 0.  0.
         25    2    1    2    0    0 -0.14473061732E+02 -0.28819147282E+02 -0.22959963099E+03  0.26344540827E+03  0.12508988697E+03 0.  0.
        -24    2    1    2    0    0  0.40159581687E+02  0.11329135633E+02  0.89548561166E+01  0.91634960988E+02  0.81090291107E+02 0.  0.
        -13    1    3    3    0    0 -0.37133953851E+02  0.27899473781E+02 -0.15586614115E+03  0.16263937138E+03  0.00000000000E+00 0.  1.
         14    1    3    3    0    0  0.11447433895E+02 -0.10409462132E+02 -0.39352080621E+03  0.39382486661E+03  0.00000000000E+00 0. -1.
         11    1    5    5    0    0 -0.17754431231E+02  0.16101426742E+02 -0.15548470208E+02  0.28569751438E+02  0.00000000000E+00 0. -1.
        -12    1    5    5    0    0  0.57914012918E+02 -0.47722911084E+01  0.24503326324E+02  0.63065209550E+02  0.00000000000E+00 0.  1.
          5    1    4    4  501    0  0.53942625856E+02 -0.18354237592E+02 -0.77463132355E+02  0.96253281482E+02  0.41800000000E+01 0. -1.
         -5    1    4    4    0  501 -0.68415687588E+02 -0.10464909691E+02 -0.15213649863E+03  0.16719212679E+03  0.41800000000E+01 0. -1.
</event>
<event>
11    1  0.8039394E-009  0.3435488E+03  0.7561462E-02  0.9832780E-01
         22   -1    0    0    0    0  0.00000000000E+00  0.00000000000E+00  0.76202110148E+03  0.76202110148E+03  0.00000000000E+00 0. -1.
         22   -1    0    0    0    0 -0.00000000000E+00 -0.00000000000E+00 -0.33631560568E+03  0.33631560568E+03  0.00000000000E+00 0.  1.
        -24    2    1    2    0    0 -0.24179239218E+03 -0.21412172091E+03 -0.15893038350E+03  0.36884935242E+03  0.80494134587E+02 0.  0.
         25    2    1    2    0    0  0.21174747543E+03  0.22460094131E+03  0.36483167163E+03  0.49399607944E+03  0.12508957465E+03 0.  0.
         24    2    1    2    0    0  0.30044916750E+02 -0.10479220406E+02  0.21980420767E+03  0.23549127530E+03  0.78292655762E+02 0.  0.
        -13    1    5    5    0    0 -0.31422044581E+01  0.24863560525E+02  0.27659650194E+02  0.37324607696E+02  0.00000000000E+00 0.  1.
         14    1    5    5    0    0  0.33187121208E+02 -0.35342780932E+02  0.19214455748E+03  0.19816666760E+03  0.00000000000E+00 0. -1.
         11    1    3    3    0    0 -0.40510602382E+02 -0.47819081950E+02  0.97287047260E+00  0.62679502079E+02  0.00000000000E+00 0. -1.
        -12    1    3    3    0    0 -0.20128178980E+03 -0.16630263896E+03 -0.15990325397E+03  0.30616985034E+03  0.00000000000E+00 0.  1.
          5    1    4    4  501    0  0.17869504377E+03  0.22747941925E+03  0.27915415453E+03  0.40202402819E+03  0.41800000000E+01 0.  1.
         -5    1    4    4    0  501  0.33052431660E+02 -0.28784779425E+01  0.85677517103E+02  0.91972051248E+02  0.41800000000E+01 0.  1.
</event>
<event>
11    1  0.8039394E-009  0.1372458E+03  0.7561462E-02  0.1110673E+00
         22   -1    0    0    0    0  0.00000000000E+00  0.00000000000E+00  0.30034123921E+03  0.30034123921E+03  0.00000000000E+00 0.  1.
         22   -1    0    0    0    0 -0.00000000000E+00 -0.00000000000E+00 -0.48179123384E+03  0.48179123384E+03  0.00000000000E+00 0.  1.
        -24    2    1    2    0    0 -0.41208521218E+02 -0.38764196458E+02 -0.38897021144E+03  0.40133925624E+03  0.81083710215E+02 0.  0.
         25    2    1    2    0    0  0.53233741800E+02  0.23840587678E+02 -0.19453704810E+02  0.13938638102E+03  0.12509161322E+03 0.  0.
         24    2    1    2    0    0 -0.12025220582E+02  0.14923608780E+02  0.22697392163E+03  0.24140683578E+03  0.79954857486E+02 0.  0.
        -11    1    5    5    0    0 -0.11846039835E+02 -0.21016642308E+02  0.18314010585E+03  0.18472229504E+03  0.00000000000E+00 0.  1.
         12    1    5    5    0    0 -0.17918074783E+00  0.35940251088E+02  0.43833815781E+02  0.56684540749E+02  0.00000000000E+00 0. -1.
         13    1    3    3    0    0  0.25852307785E+00  0.23805189827E+02 -0.92904805360E+02  0.95906500071E+02  0.00000000000E+00 0. -1.
        -14    1    3    3    0    0 -0.41467044296E+02 -0.62569386285E+02 -0.29606540608E+03  0.30543275617E+03  0.00000000000E+00 0.  1.
          5    1    4    4  501    0  0.23449275408E+02 -0.24214979944E+02 -0.60508793740E+02  0.69390347245E+02  0.41800000000E+01 0. -1.
         -5    1    4    4    0  501  0.29784466392E+02  0.48055567622E+02  0.41055088930E+02  0.69996033779E+02  0.41800000000E+01 0. -1.
</event>
<event>
11    1  0.8039394E-009  0.1322077E+03  0.7561462E-02  0.1116586E+00
         22   -1    0    0    0    0  0.00000000000E+00  0.00000000000E+00  0.91437335793E+02  0.91437335793E+02  0.00000000000E+00 0. -1.
         22   -1    0    0    0    0 -0.00000000000E+00 -0.00000000000E+00 -0.13978582401E+04  0.13978582401E+04  0.00000000000E+00 0.  1.
        -24    2    1    2    0    0 -0.10268331997E+02  0.38970648453E+02 -0.10580546358E+04  0.10617648468E+04  0.78998907364E+02 0.  0.
         25    2    1    2    0    0 -0.61911448258E+00 -0.66213407123E+02 -0.29675166229E+03  0.32877706274E+03  0.12509280285E+03 0.  0.
         24    2    1    2    0    0  0.10887446479E+02  0.27242758670E+02  0.48385393866E+02  0.98753666325E+02  0.80934763126E+02 0.  0.
        -11    1    5    5    0    0 -0.34900922069E+02  0.53148690732E+01  0.20799133141E+02  0.40974701146E+02  0.00000000000E+00 0.  1.
         12    1    5    5    0    0  0.45788368548E+02  0.21927889596E+02  0.27586260725E+02  0.57778965180E+02  0.00000000000E+00 0. -1.
         13    1    3    3    0    0  0.13273649828E+02 -0.88679341468E+01 -0.54369804851E+02  0.56664854322E+02  0.00000000000E+00 0. -1.
        -14    1    3    3    0    0 -0.23541981825E+02  0.47838582600E+02 -0.10036848310E+04  0.10050999925E+04  0.00000000000E+00 0.  1.
          5    1    4    4  501    0 -0.31597500914E+02 -0.78576443727E+02 -0.27722255083E+03  0.28990080141E+03  0.41800000000E+01 0.  1.
         -5    1    4    4    0  501  0.30978386432E+02  0.12363036604E+02 -0.19529111458E+02  0.38876261321E+02  0.41800000000E+01 0.  1.
</event>
<event>
11    1  0.8039394E-009  0.1462820E+03  0.7561462E-02  0.1100740E+00
         22   -1    0    0    0    0  0.00000000000E+00  0.00000000000E+00  0.10938760463E+04  0.10938760463E+04  0.00000000000E+00 0. -1.
         22   -1    0    0    0    0 -0.00000000000E+00 -0.00000000000E+00 -0.12853415845E+04  0.12853415845E+04  0.00000000000E+00 0.  1.
         24    2    1    2    0    0 -0.38107125321E+02  0.18968533655E+02 -0.11625927650E+04  0.11669072823E+04  0.90767339995E+02 0.  0.
         25    2    1    2    0    0  0.63911591353E+02 -0.89476135451E+02 -0.58774228671E+02  0.17661767120E+03  0.12509485001E+03 0.  0.
        -24    2    1    2    0    0 -0.25804466032E+02  0.70507601796E+02  0.10299014555E+04  0.10356926773E+04  0.79530631810E+02 0.  0.
        -11    1    3    3    0    0 -0.44036895722E+02  0.94282694541E+01 -0.23668486771E+03  0.24093124964E+03  0.00000000000E+00 0.  1.
         12    1    3    3    0    0  0.59297704003E+01  0.95402642006E+01 -0.92590789731E+03  0.92597603269E+03  0.00000000000E+00 0. -1.
         11    1    5    5    0    0 -0.39121536714E+02  0.78517891670E+02  0.96401859356E+03  0.96800175758E+03  0.00000000000E+00 0. -1.
        -12    1    5    5    0    0  0.13317070682E+02 -0.80102898736E+01  0.65882861943E+02  0.67690919725E+02  0.00000000000E+00 0.  1.
          5    1    4    4  501    0  0.76577581116E+02 -0.15362142480E+01 -0.36376793790E+02  0.84895402763E+02  0.41800000000E+01 0.  1.
         -5    1    4    4    0  501 -0.12665989763E+02 -0.87939921203E+02 -0.22397434881E+02  0.91722268436E+02  0.41800000000E+01 0.  1.
</event>
<event>
11    1  0.8039394E-009  0.1352263E+03  0.7561462E-02  0.1113009E+00
         22   -1    0    0    0    0  0.00000000000E+00  0.00000000000E+00  0.13274111075E+03  0.13274111075E+03  0.00000000000E+00 0.  1.
         22   -1    0    0    0    0 -0.00000000000E+00 -0.00000000000E+00 -0.88956628308E+03  0.88956628308E+03  0.00000000000E+00 0. -1.
         24    2    1    2    0    0  0.94599705531E+01  0.33238694789E+02 -0.71763927340E+03  0.72289119841E+03  0.79820148701E+02 0.  0.
         25    2    1    2    0    0  0.34025912352E+02 -0.58028351145E+02 -0.11201898233E+03  0.18088892758E+03  0.12508996551E+03 0.  0.
        -24    2    1    2    0    0 -0.43485882905E+02  0.24789656357E+02  0.72833083400E+02  0.11852726784E+03  0.78984214302E+02 0.  0.
        -11    1    3    3    0    0 -0.17925868565E+01  0.13983168966E+01  0.16503109760E+01  0.28093031341E+01  0.00000000000E+00 0.  1.
         12    1    3    3    0    0  0.11252557410E+02  0.31840377892E+02 -0.71928958438E+03  0.72008189528E+03  0.00000000000E+00 0. -1.
         11    1    5    5    0    0  0.17528918853E+02 -0.28960689714E+01 -0.22350069262E+01  0.17906576099E+02  0.00000000000E+00 0. -1.
        -12    1    5    5    0    0 -0.61014801758E+02  0.27685725328E+02  0.75068090326E+02  0.10062069174E+03  0.00000000000E+00 0.  1.
          5    1    4    4  501    0  0.60151233154E+02 -0.79603406250E+02 -0.53885606739E+02  0.11347248191E+03  0.41800000000E+01 0.  1.
         -5    1    4    4    0  501 -0.26125320802E+02  0.21575055105E+02 -0.58133375593E+02  0.67416445676E+02  0.41800000000E+01 0.  1.
</event>
<event>
11    1  0.8039394E-009  0.1578215E+03  0.7561462E-02  0.1089144E+00
         22   -1    0    0    0    0  0.00000000000E+00  0.00000000000E+00  0.30542620013E+03  0.30542620013E+03  0.00000000000E+00 0.  1.
         22   -1    0    0    0    0 -0.00000000000E+00 -0.00000000000E+00 -0.20564985289E+04  0.20564985289E+04  0.00000000000E+00 0.  1.
         24    2    1    2    0    0 -0.61713130976E+02  0.72187242737E+02 -0.19265944165E+04  0.19305619607E+04  0.79271242135E+02 0.  0.
         25    2    1    2    0    0  0.10042194480E+03 -0.10736795835E+03 -0.38380242890E+02  0.19680227638E+03  0.12508256259E+03 0.  0.
        -24    2    1    2    0    0 -0.38708813825E+02  0.35180715611E+02  0.21390233060E+03  0.23456049199E+03  0.80798281822E+02 0.  0.
        -11    1    3    3    0    0 -0.16431122868E+02  0.70621952975E+02 -0.14521091334E+04  0.14539182843E+04  0.00000000000E+00 0.  1.
         12    1    3    3    0    0 -0.45282008109E+02  0.15652897624E+01 -0.47448528306E+03  0.47664367638E+03  0.00000000000E+00 0. -1.
         11    1    5    5    0    0 -0.20692523603E+02  0.18089382880E+02  0.10147792418E+02  0.29298191019E+02  0.00000000000E+00 0. -1.
        -12    1    5    5    0    0 -0.18016290222E+02  0.17091332731E+02  0.20375453818E+03  0.20526230097E+03  0.00000000000E+00 0.  1.
          5    1    4    4  501    0  0.82682068744E+02 -0.38417161467E+02  0.31892728352E+02  0.96678960010E+02  0.41800000000E+01 0. -1.
         -5    1    4    4    0  501  0.17739876058E+02 -0.68950796881E+02 -0.70272971242E+02  0.10012331637E+03  0.41800000000E+01 0. -1.
</event>
<event>
11    1  0.8039394E-009  0.1543163E+03  0.7561462E-02  0.1092548E+00
         22   -1    0    0    0    0  0.00000000000E+00  0.00000000000E+00  0.75813787046E+03  0.75813787046E+03  0.00000000000E+00 0. -1.
         22   -1    0    0    0    0 -0.00000000000E+00 -0.00000000000E+00 -0.30113573546E+03  0.30113573546E+03  0.00000000000E+00 0. -1.
         24    2    1    2    0    0 -0.40439155282E+02 -0.16841683471E+02 -0.21307171351E+03  0.23165039377E+03  0.79645352997E+02 0.  0.
         25    2    1    2    0    0  0.41206908086E+02  0.10591721437E+03  0.24610298183E+02  0.17079118851E+03  0.12508995851E+03 0.  0.
        -24    2    1    2    0    0 -0.76775280453E+00 -0.89075530904E+02  0.64546355032E+03  0.65683202364E+03  0.82885902460E+02 0.  0.
        -11    1    3    3    0    0 -0.31038209827E+02  0.23941310288E+02 -0.51354769390E+02  0.64605488519E+02  0.00000000000E+00 0.  1.
         12    1    3    3    0    0 -0.94009454542E+01 -0.40782993758E+02 -0.16171694412E+03  0.16704490525E+03  0.00000000000E+00 0. -1.
         13    1    5    5    0    0  0.19286357526E+01 -0.76739491172E+02  0.25836630509E+03  0.26952887925E+03  0.00000000000E+00 0. -1.
        -14    1    5    5    0    0 -0.26963885572E+01 -0.12336039732E+02  0.38709724523E+03  0.38730314439E+03  0.00000000000E+00 0.  1.
          5    1    4    4  501    0  0.41835856420E+02 -0.70120491816E+01  0.37857066597E+02  0.57009101093E+02  0.41800000000E+01 0. -1.
         -5    1    4    4    0  501 -0.62894833372E+00  0.11292926356E+03 -0.13246768414E+02  0.11378208742E+03  0.41800000000E+01 0. -1.
</event>
<event>
11    1  0.8039394E-009  0.1608512E+03  0.7561462E-02  0.1086279E+00
         22   -1    0    0    0    0  0.00000000000E+00  0.00000000000E+00  0.14771520413E+03  0.14771520413E+03  0.00000000000E+00 0.  1.
         22   -1    0    0    0    0 -0.00000000000E+00 -0.00000000000E+00 -0.22393367607E+04  0.22393367607E+04  0.00000000000E+00 0.  1.
         24    2    1    2    0    0 -0.26450545389E+02 -0.99001341589E+01 -0.17779797081E+04  0.17800894953E+04  0.81909245825E+02 0.  0.
         25    2    1    2    0    0  0.12439707449E+03 -0.71212209713E+01 -0.40995323727E+03  0.44635705697E+03  0.12509045381E+03 0.  0.
        -24    2    1    2    0    0 -0.97946529101E+02  0.17021355130E+02  0.96311388850E+02  0.16060541259E+03  0.81455299629E+02 0.  0.
        -11    1    3    3    0    0 -0.19895300334E+02 -0.81335652502E+01 -0.17673245203E+04  0.17674552152E+04  0.00000000000E+00 0.  1.
         12    1    3    3    0    0 -0.65552450546E+01 -0.17665689087E+01 -0.10655187862E+02  0.12634280027E+02  0.00000000000E+00 0. -1.
         11    1    5    5    0    0 -0.53013981862E+02  0.16061992660E+02  0.10122936742E+03  0.11539434436E+03  0.00000000000E+00 0. -1.
        -12    1    5    5    0    0 -0.44932547239E+02  0.95936247039E+00 -0.49179785691E+01  0.45211068235E+02  0.00000000000E+00 0.  1.
          5    1    4    4  501    0  0.80874316727E+00 -0.44278944882E+02 -0.14404135013E+03  0.15075364663E+03  0.41800000000E+01 0.  1.
         -5    1    4    4    0  501  0.12358833132E+03  0.37157723911E+02 -0.26591188714E+03  0.29560341034E+03  0.41800000000E+01 0.  1.
</event>
<event>
11    1  0.8039394E-009  0.1567765E+03  0.7561462E-02  0.1090149E+00
         22   -1    0    0    0    0  0.00000000000E+00  0.00000000000E+00  0.12127958332E+04  0.12127958332E+04  0.00000000000E+00 0.  1.
         22   -1    0    0    0    0 -0.00000000000E+00 -0.00000000000E+00 -0.14786719127E+03  0.14786719127E+03  0.00000000000E+00 0.  1.
        -24    2    1    2    0    0 -0.77545281833E+02  0.57972024254E+02 -0.10186860943E+03  0.16127179243E+03  0.79103420381E+02 0.  0.
         25    2    1    2    0    0  0.73782532115E+02 -0.70088293768E+01  0.38029658901E+03  0.40714357042E+03  0.12508959027E+03 0.  0.
         24    2    1    2    0    0  0.37627497181E+01 -0.50963194877E+02  0.78650066230E+03  0.79224766158E+03  0.80384450928E+02 0.  0.
        -11    1    5    5    0    0  0.14011042810E+02 -0.55242408067E+00  0.55168839123E+03  0.55186655589E+03  0.00000000000E+00 0.  1.
         12    1    5    5    0    0 -0.10248293092E+02 -0.50410770796E+02  0.23481227107E+03  0.24038110569E+03  0.00000000000E+00 0. -1.
         13    1    3    3    0    0 -0.28338294231E+02  0.30130740201E+02  0.36882847567E+01  0.41527386980E+02  0.00000000000E+00 0. -1.
        -14    1    3    3    0    0 -0.49206987603E+02  0.27841284053E+02 -0.10555689418E+03  0.11974440545E+03  0.00000000000E+00 0.  1.
          5    1    4    4  501    0  0.73329832806E+02 -0.51544208860E+02  0.17092310634E+03  0.19304468531E+03  0.41800000000E+01 0. -1.
         -5    1    4    4    0  501  0.45269930908E+00  0.44535379484E+02  0.20937348267E+03  0.21409888512E+03  0.41800000000E+01 0. -1.
</event>
<event>
11    1  0.8039394E-009  0.1382663E+03  0.7561462E-02  0.1109510E+00
         22   -1    0    0    0    0  0.00000000000E+00  0.00000000000E+00  0.10638150250E+04  0.10638150250E+04  0.00000000000E+00 0.  1.
         22   -1    0    0    0    0 -0.00000000000E+00 -0.00000000000E+00 -0.12143804722E+03  0.12143804722E+03  0.00000000000E+00 0. -1.
        -24    2    1    2    0    0  0.60012001544E+02 -0.18204914665E+02 -0.74647408549E+02  0.12644481917E+03  0.80518305032E+02 0.  0.
         25    2    1    2    0    0 -0.21004499415E+02  0.20052841852E+02  0.20469947685E+03  0.24164691064E+03  0.12509215857E+03 0.  0.
         24    2    1    2    0    0 -0.39007502129E+02 -0.18479271862E+01  0.81232490950E+03  0.81716134242E+03  0.79723904213E+02 0.  0.
        -13    1    5    5    0    0 -0.63404838862E+02 -0.65324272116E+01  0.55966604324E+03  0.56328405459E+03  0.00000000000E+00 0.  1.
         14    1    5    5    0    0  0.24397336734E+02  0.46845000255E+01  0.25265886626E+03  0.25387728784E+03  0.00000000000E+00 0. -1.
         13    1    3    3    0    0  0.41695402011E+02  0.28809898672E+02 -0.28927079596E+02  0.58354886207E+02  0.00000000000E+00 0. -1.
        -14    1    3    3    0    0  0.18316599533E+02 -0.47014813337E+02 -0.45720328954E+02  0.68089932965E+02  0.00000000000E+00 0.  1.
          5    1    4    4  501    0 -0.10620498688E+02 -0.48657885672E+02  0.13126915942E+03  0.14046155861E+03  0.41800000000E+01 0.  1.
         -5    1    4    4    0  501 -0.10384000727E+02  0.68710727523E+02  0.73430317428E+02  0.10118535203E+03  0.41800000000E+01 0.  1.
</event>
<event>
11    1  0.8039394E-009  0.1333392E+03  0.7561462E-02  0.1115233E+00
         22   -1    0    0    0    0  0.00000000000E+00  0.00000000000E+00  0.72180688453E+03  0.72180688453E+03  0.00000000000E+00 0.  1.
         22   -1    0    0    0    0 -0.00000000000E+00 -0.00000000000E+00 -0.10100392186E+04  0.10100392186E+04  0.00000000000E+00 0. -1.
         24    2    1    2    0    0  0.29011142747E+02 -0.16131345605E+02 -0.87784780431E+03  0.88221828271E+03  0.81181673455E+02 0.  0.
         25    2    1    2    0    0  0.51679435394E+01 -0.16061146230E+02 -0.95439962663E+02  0.15824385495E+03  0.12509061954E+03 0.  0.
        -24    2    1    2    0    0 -0.34179086286E+02  0.32192491835E+02  0.68505543291E+03  0.69138396546E+03  0.80661484369E+02 0.  0.
        -11    1    3    3    0    0  0.84475067070E+01  0.16975226951E+02 -0.50328674279E+02  0.53781912891E+02  0.00000000000E+00 0.  1.
         12    1    3    3    0    0  0.20563636040E+02 -0.33106572556E+02 -0.82751913003E+03  0.82843636982E+03  0.00000000000E+00 0. -1.
         11    1    5    5    0    0 -0.99997846022E+00  0.12283367899E+02  0.11946952044E+02  0.17164228704E+02  0.00000000000E+00 0. -1.
        -12    1    5    5    0    0 -0.33179107826E+02  0.19909123935E+02  0.67310848087E+03  0.67421973676E+03  0.00000000000E+00 0.  1.
          5    1    4    4  501    0 -0.44954349816E+02  0.28477567697E+02 -0.66027252369E+02  0.84905452621E+02  0.41800000000E+01 0. -1.
         -5    1    4    4    0  501  0.50122293356E+02 -0.44538713927E+02 -0.29412710294E+02  0.73338402330E+02  0.41800000000E+01 0. -1.
</event>
<event>
11    1  0.8039394E-009  0.1626394E+03  0.7561462E-02  0.1084621E+00
         22   -1    0    0    0    0  0.00000000000E+00  0.00000000000E+00  0.21438207207E+03  0.21438207207E+03  0.00000000000E+00 0.  1.
         22   -1    0    0    0    0 -0.00000000000E+00 -0.00000000000E+00 -0.44262346137E+03  0.44262346137E+03  0.00000000000E+00 0.  1.
        -24    2    1    2    0    0  0.63126204761E+01  0.10426369012E+03 -0.33848002730E+03  0.36282711180E+03  0.78511259838E+02 0.  0.
         25    2    1    2    0    0 -0.32526678898E+02 -0.98102391277E+02  0.10280880780E+02  0.16258925587E+03  0.12508999001E+03 0.  0.
         24    2    1    2    0    0  0.26214058422E+02 -0.61612988408E+01  0.99957757228E+02  0.13158916577E+03  0.81234332979E+02 0.  0.
        -13    1    5    5    0    0 -0.52515375245E+01  0.68038326203E+01  0.97053635726E+02  0.97433459306E+02  0.00000000000E+00 0.  1.
         14    1    5    5    0    0  0.31465595946E+02 -0.12965131461E+02  0.29041215018E+01  0.34155706460E+02  0.00000000000E+00 0. -1.
         13    1    3    3    0    0 -0.20432765949E+02  0.69815269687E+02 -0.12235811705E+03  0.14234879211E+03  0.00000000000E+00 0. -1.
        -14    1    3    3    0    0  0.26745386425E+02  0.34448420431E+02 -0.21612191025E+03  0.22047831969E+03  0.00000000000E+00 0.  1.
          5    1    4    4  501    0 -0.75844640170E+02 -0.65024703546E+02 -0.17116019201E+02  0.10144482257E+03  0.41800000000E+01 0.  1.
         -5    1    4    4    0  501  0.43317961272E+02 -0.33077687731E+02  0.27396899981E+02  0.61144433295E+02  0.41800000000E+01 0.  1.
</event>
<event>
11    1  0.8039394E-009  0.1424441E+03  0.7561462E-02  0.1104859E+00
         22   -1    0    0    0    0  0.00000000000E+00  0.00000000000E+00  0.16117522957E+04  0.16117522957E+04  0.00000000000E+00 0. -1.
         22   -1    0    0    0    0 -0.00000000000E+00 -0.00000000000E+00 -0.11268301656E+03  0.11268301656E+03  0.00000000000E+00 0.  1.
        -24    2    1    2    0    0  0.66685115571E+02 -0.21220347389E+02 -0.65530507154E+02  0.12528195580E+03  0.80648083050E+02 0.  0.
         25    2    1    2    0    0 -0.49459776436E+02  0.11160832123E+02  0.26905161651E+03  0.30101094302E+03  0.12509189347E+03 0.  0.
         24    2    1    2    0    0 -0.17225339135E+02  0.10059515265E+02  0.12955481698E+04  0.12981424134E+04  0.79566067935E+02 0.  0.
        -11    1    5    5    0    0  0.26459084318E+02 -0.86197117840E+01  0.25577145317E+03  0.25728081707E+03  0.00000000000E+00 0.  1.
         12    1    5    5    0    0 -0.43684423453E+02  0.18679227049E+02  0.10397767166E+04  0.10408615964E+04  0.00000000000E+00 0. -1.
         13    1    3    3    0    0  0.96567848629E+01 -0.43719537660E+02 -0.20663271903E+02  0.49311482160E+02  0.00000000000E+00 0. -1.
        -14    1    3    3    0    0  0.57028330708E+02  0.22499190271E+02 -0.44867235251E+02  0.75970473642E+02  0.00000000000E+00 0.  1.
          5    1    4    4  501    0  0.27818370770E+02 -0.14184919452E+02  0.16945696915E+03  0.17236069878E+03  0.41800000000E+01 0.  1.
         -5    1    4    4    0  501 -0.77278147206E+02  0.25345751575E+02  0.99594647361E+02  0.12865024423E+03  0.41800000000E+01 0.  1.
</event>
<event>
11    1  0.8039394E-009  0.1435191E+03  0.7561462E-02  0.1103691E+00
         22   -1    0    0    0    0  0.00000000000E+00  0.00000000000E+00  0.44745704363E+03  0.44745704363E+03  0.00000000000E+00 0. -1.
         22   -1    0    0    0    0 -0.00000000000E+00 -0.00000000000E+00 -0.18604809409E+04  0.18604809409E+04  0.00000000000E+00 0.  1.
        -24    2    1    2    0    0  0.18171022411E+02 -0.67042180311E+02 -0.17011347071E+04  0.17044419451E+04  0.80238472648E+02 0.  0.
         25    2    1    2    0    0 -0.75103897594E+01  0.93439596013E+02 -0.11149933202E+03  0.19200708278E+03  0.12508898728E+03 0.  0.
         24    2    1    2    0    0 -0.10660632651E+02 -0.26397415702E+02  0.39961014180E+03  0.41148895672E+03  0.93938402282E+02 0.  0.
        -11    1    5    5    0    0 -0.21194465468E+02  0.30069969436E+01  0.16294215383E+02  0.26902580769E+02  0.00000000000E+00 0.  1.
         12    1    5    5    0    0  0.10533832817E+02 -0.29404412646E+02  0.38331592642E+03  0.38458637595E+03  0.00000000000E+00 0. -1.
         11    1    3    3    0    0 -0.22684557610E+02 -0.16784553346E+02 -0.20828880016E+03  0.21019166173E+03  0.00000000000E+00 0. -1.
        -12    1    3    3    0    0  0.40855580021E+02 -0.50257626965E+02 -0.14928459069E+04  0.14942502833E+04  0.00000000000E+00 0.  1.
          5    1    4    4  501    0  0.45898468613E+02  0.76568862763E+02 -0.32540014374E+02  0.95109332357E+02  0.41800000000E+01 0. -1.
         -5    1    4    4    0  501 -0.53408858372E+02  0.16870733250E+02 -0.78959317649E+02  0.96897750421E+02  0.41800000000E+01 0. -1.
</event>
<event>
11    1  0.8039394E-009  0.1603102E+03  0.7561462E-02  0.1086786E+00
         22   -1    0    0    0    0  0.00000000000E+00  0.00000000000E+00  0.49066463501E+03  0.49066463501E+03  0.00000000000E+00 0.  1.
         22   -1    0    0    0    0 -0.00000000000E+00 -0.00000000000E+00 -0.28107619305E+03  0.28107619305E+03  0.00000000000E+00 0.  1.
         24    2    1    2    0    0  0.97587819029E+02  0.86034767120E+01 -0.16275269424E+03  0.20628694442E+03  0.80426747537E+02 0.  0.
         25    2    1    2    0    0 -0.10712561177E+03 -0.14909422165E+02 -0.18339347028E+02  0.16637924610E+03  0.12509010479E+03 0.  0.
        -24    2    1    2    0    0  0.95377927403E+01  0.63059454535E+01  0.39068048323E+03  0.39907463755E+03  0.80613844455E+02 0.  0.
        -13    1    3    3    0    0  0.10473531289E+03  0.25841693508E+02 -0.13430448669E+03  0.17226425640E+03  0.00000000000E+00 0.  1.
         14    1    3    3    0    0 -0.71474938581E+01 -0.17238216796E+02 -0.28448207553E+02  0.34022688015E+02  0.00000000000E+00 0. -1.
         11    1    5    5    0    0 -0.21032603946E+02 -0.10724401255E+02  0.38517152901E+02  0.45176921969E+02  0.00000000000E+00 0. -1.
        -12    1    5    5    0    0  0.30570396686E+02  0.17030346708E+02  0.35216333033E+03  0.35389771558E+03  0.00000000000E+00 0.  1.
          5    1    4    4  501    0 -0.95742646456E+02 -0.35293672704E+02  0.35037897924E+02  0.10796955300E+03  0.41800000000E+01 0. -1.
         -5    1    4    4    0  501 -0.11382965314E+02  0.20384250538E+02 -0.53377244952E+02  0.58409693100E+02  0.41800000000E+01 0. -1.
</event>
<event>
11    1  0.8039394E-009  0.2332445E+03  0.7561462E-02  0.1033224E+00
         22   -1    0    0    0    0  0.00000000000E+00  0.00000000000E+00  0.41751570011E+03  0.41751570011E+03  0.00000000000E+00 0.  1.
         22   -1    0    0    0    0 -0.00000000000E+00 -0.00000000000E+00 -0.31633169165E+03  0.31633169165E+03  0.00000000000E+00 0.  1.
         24    2    1    2    0    0  0.17638764780E+03 -0.13789749716E+02 -0.12199735740E+03  0.23022587264E+03  0.82570198786E+02 0.  0.
         25    2    1    2    0    0 -0.28479360839E+03 -0.20040100145E+02  0.13071501121E+03  0.33799834762E+03  0.12508982313E+03 0.  0.
        -24    2    1    2    0    0  0.10840596059E+03  0.33829849861E+02  0.92466354645E+02  0.16562317149E+03  0.77360824465E+02 0.  0.
        -13    1    3    3    0    0  0.14866739367E+03  0.45980379707E+01 -0.61026690293E+02  0.16077124377E+03  0.00000000000E+00 0.  1.
         14    1    3    3    0    0  0.27720254129E+02 -0.18387787686E+02 -0.60970667103E+02  0.69454628873E+02  0.00000000000E+00 0. -1.
         13    1    5    5    0    0  0.40809412191E+02 -0.24703032113E+02  0.27126192987E+02  0.54876937460E+02  0.00000000000E+00 0. -1.
        -14    1    5    5    0    0  0.67596548396E+02  0.58532881974E+02  0.65340161658E+02  0.11074623403E+03  0.00000000000E+00 0.  1.
          5    1    4    4  501    0 -0.26373016915E+03 -0.46002369953E+02  0.84414887302E+02  0.28073682651E+03  0.41800000000E+01 0. -1.
         -5    1    4    4    0  501 -0.21063439233E+02  0.25962269808E+02  0.46300123910E+02  0.57261521111E+02  0.41800000000E+01 0. -1.
</event>
<event>
11    1  0.8039394E-009  0.2083008E+03  0.7561462E-02  0.1048804E+00
         22   -1    0    0    0    0  0.00000000000E+00  0.00000000000E+00  0.40615817061E+03  0.40615817061E+03  0.00000000000E+00 0.  1.
         22   -1    0    0    0    0 -0.00000000000E+00 -0.00000000000E+00 -0.85169852996E+03  0.85169852996E+03  0.00000000000E+00 0. -1.
        -24    2    1    2    0    0 -0.93332133885E+01 -0.35683720616E+02 -0.63820447555E+03  0.64393263025E+03  0.77355302957E+02 0.  0.
         25    2    1    2    0    0  0.41628913816E+02 -0.13169736402E+03 -0.13908716490E+03  0.23252953924E+03  0.12509030748E+03 0.  0.
         24    2    1    2    0    0 -0.32295700428E+02  0.16738108463E+03  0.33175128110E+03  0.38139453108E+03  0.79645690832E+02 0.  0.
        -13    1    5    5    0    0 -0.37368364129E+02  0.11123435462E+03  0.14619445432E+03  0.18746278233E+03  0.00000000000E+00 0.  1.
         14    1    5    5    0    0  0.50726637016E+01  0.56146730010E+02  0.18555682678E+03  0.19393174875E+03  0.00000000000E+00 0. -1.
         13    1    3    3    0    0  0.21661931817E+02 -0.24631682410E+02 -0.11211333753E+03  0.11681335335E+03  0.00000000000E+00 0. -1.
        -14    1    3    3    0    0 -0.30995145206E+02 -0.11052038206E+02 -0.52609113802E+03  0.52711927690E+03  0.00000000000E+00 0.  1.
          5    1    4    4  501    0  0.59215593815E+02 -0.88985363760E+02 -0.25684709832E+02  0.11000935521E+03  0.41800000000E+01 0.  1.
         -5    1    4    4    0  501 -0.17586679999E+02 -0.42712000255E+02 -0.11340245507E+03  0.12252018403E+03  0.41800000000E+01 0.  1.
</event>
<event>
11    1  0.8039394E-009  0.1324212E+03  0.7561462E-02  0.1116329E+00
         22   -1    0    0    0    0  0.00000000000E+00  0.00000000000E+00  0.10264960875E+04  0.10264960875E+04  0.00000000000E+00 0.  1.
         22   -1    0    0    0    0 -0.00000000000E+00 -0.00000000000E+00 -0.16604194634E+03  0.16604194634E+03  0.00000000000E+00 0. -1.
        -24    2    1    2    0    0  0.15691566901E+02 -0.89636937313E+01 -0.11588247319E+03  0.14354357170E+03  0.82761321328E+02 0.  0.
         25    2    1    2    0    0 -0.46490760415E+02 -0.21192271262E+02  0.10042492940E+03  0.16835672318E+03  0.12509323175E+03 0.  0.
         24    2    1    2    0    0  0.30799193514E+02  0.30155964994E+02  0.87591168495E+03  0.88063773896E+03  0.80271881131E+02 0.  0.
        -11    1    5    5    0    0 -0.17817782236E+02  0.31762409298E+02  0.53945251086E+03  0.54068043748E+03  0.00000000000E+00 0.  1.
         12    1    5    5    0    0  0.48616975750E+02 -0.16064443047E+01  0.33645917409E+03  0.33995730147E+03  0.00000000000E+00 0. -1.
         11    1    3    3    0    0  0.16768768725E+02 -0.36475419850E+01 -0.12858830456E+03  0.12972836327E+03  0.00000000000E+00 0. -1.
        -12    1    3    3    0    0 -0.10772018243E+01 -0.53161517463E+01  0.12705831372E+02  0.13815208432E+02  0.00000000000E+00 0.  1.
          5    1    4    4  501    0  0.38279352708E+02 -0.29730980903E+02  0.26050076541E+02  0.55184408640E+02  0.41800000000E+01 0. -1.
         -5    1    4    4    0  501 -0.84770113123E+02  0.85387096401E+01  0.74374852859E+02  0.11317231454E+03  0.41800000000E+01 0. -1.
</event>
<event>
11    1  0.9511958E-009  0.1714047E+03  0.7561462E-02  0.1076816E+00
         22   -1    0    0    0    0  0.00000000000E+00  0.00000000000E+00  0.34588197780E+03  0.34588197780E+03  0.00000000000E+00 0. -1.
         22   -1    0    0    0    0 -0.00000000000E+00 -0.00000000000E+00 -0.13502727362E+04  0.13502727362E+04  0.00000000000E+00 0.  1.
        -24    2    1    2    0    0 -0.55535364610E+02 -0.11245196424E+03 -0.95589057524E+03  0.96765114780E+03  0.83020064027E+02 0.  0.
         25    2    1    2    0    0 -0.39770023138E+02  0.11157902721E+03 -0.35662362565E+03  0.39605485970E+03  0.12508999747E+03 0.  0.
         24    2    1    2    0    0  0.95305387748E+02  0.87293702520E+00  0.30812344251E+03  0.33244870648E+03  0.80611461111E+02 0.  0.
        -13    1    5    5    0    0 -0.20727694124E+01 -0.15541844349E+02  0.10501480763E+02  0.18871311481E+02  0.00000000000E+00 0.  1.
         14    1    5    5    0    0  0.97378157160E+02  0.16414781374E+02  0.29762196174E+03  0.31357739499E+03  0.00000000000E+00 0. -1.
         11    1    3    3    0    0 -0.55497587088E+02 -0.66623542014E+02 -0.37231496873E+03  0.38227884386E+03  0.00000000000E+00 0. -1.
        -12    1    3    3    0    0 -0.37777521980E-01 -0.45828422223E+02 -0.58357560651E+03  0.58537230394E+03  0.00000000000E+00 0.  1.
          5    1    4    4  501    0  0.31515028331E+02  0.53151971150E+02 -0.63284907977E+02  0.88548184766E+02  0.41800000000E+01 0. -1.
         -5    1    4    4    0  501 -0.71285051469E+02  0.58427056062E+02 -0.29333871767E+03  0.30750667493E+03  0.41800000000E+01 0. -1.
</event>
<event>
11    1  0.8039394E-009  0.1514674E+03  0.7561462E-02  0.1095389E+00
         22   -1    0    0    0    0  0.00000000000E+00  0.00000000000E+00  0.14332396974E+03  0.14332396974E+03  0.00000000000E+00 0.  1.
         22   -1    0    0    0    0 -0.00000000000E+00 -0.00000000000E+00 -0.85211971475E+03  0.85211971475E+03  0.00000000000E+00 0. -1.
        -24    2    1    2    0    0  0.29869587793E+02 -0.21556185483E+02 -0.48285405301E+03  0.49081819233E+03  0.79984998625E+02 0.  0.
         25    2    1    2    0    0 -0.95203142110E+02  0.72617340222E+02 -0.31861781790E+03  0.36263290862E+03  0.12509354965E+03 0.  0.
         24    2    1    2    0    0  0.65333554317E+02 -0.51061154739E+02  0.92676125902E+02  0.14199258354E+03  0.68536958093E+02 0.  0.
        -13    1    5    5    0    0  0.60415330444E+02 -0.45766221796E+01  0.57042517550E+02  0.83215421838E+02  0.00000000000E+00 0.  1.
         14    1    5    5    0    0  0.49182238730E+01 -0.46484532560E+02  0.35633608352E+02  0.58777161700E+02  0.00000000000E+00 0. -1.
         11    1    3    3    0    0  0.43014364534E+02  0.14009655395E+02 -0.34085409589E+03  0.34384301751E+03  0.00000000000E+00 0. -1.
        -12    1    3    3    0    0 -0.13144776741E+02 -0.35565840878E+02 -0.14199995711E+03  0.14697517482E+03  0.00000000000E+00 0.  1.
          5    1    4    4  501    0 -0.30100097988E+02  0.38664496928E+02 -0.16775121467E+02  0.51959949209E+02  0.41800000000E+01 0.  1.
         -5    1    4    4    0  501 -0.65103044123E+02  0.33952843294E+02 -0.30184269643E+03  0.31067295941E+03  0.41800000000E+01 0.  1.
</event>
<event>
11    1  0.8039394E-009  0.2426814E+03  0.7561462E-02  0.1027872E+00
         22   -1    0    0    0    0  0.00000000000E+00  0.00000000000E+00  0.89579839848E+03  0.89579839848E+03  0.00000000000E+00 0. -1.
         22   -1    0    0    0    0 -0.00000000000E+00 -0.00000000000E+00 -0.49800211776E+03  0.49800211776E+03  0.00000000000E+00 0. -1.
         24    2    1    2    0    0  0.91402644293E+01  0.15261089554E+02 -0.12814297137E+03  0.15291515420E+03  0.81522867860E+02 0.  0.
         25    2    1    2    0    0  0.16260686415E+03 -0.13242831156E+03 -0.29916007001E+03  0.38616755664E+03  0.12510149617E+03 0.  0.
        -24    2    1    2    0    0 -0.17174712858E+03  0.11716722200E+03  0.82509932211E+03  0.85471780539E+03  0.80798523614E+02 0.  0.
        -11    1    3    3    0    0  0.25221384021E+02 -0.27197036723E+01 -0.30880548589E+01  0.25554864171E+02  0.00000000000E+00 0.  1.
         12    1    3    3    0    0 -0.16081119592E+02  0.17980793227E+02 -0.12505491651E+03  0.12736029003E+03  0.00000000000E+00 0. -1.
         13    1    5    5    0    0 -0.14288030641E+03  0.11429124683E+03  0.77940073752E+03  0.80058902110E+03  0.00000000000E+00 0. -1.
        -14    1    5    5    0    0 -0.28866822162E+02  0.28759751751E+01  0.45698584590E+02  0.54128784288E+02  0.00000000000E+00 0.  1.
          5    1    4    4  501    0  0.10650602715E+02  0.53682690504E+01  0.93085082433E+01  0.15696317291E+02  0.41800000000E+01 0.  1.
         -5    1    4    4    0  501  0.15195626143E+03 -0.13779658061E+03 -0.30846857826E+03  0.37047123935E+03  0.41800000000E+01 0.  1.
</event>
<event>
11    1  0.8039394E-009  0.2854886E+03  0.7561462E-02  0.1006527E+00
         22   -1    0    0    0    0  0.00000000000E+00  0.00000000000E+00  0.13592306958E+04  0.13592306958E+04  0.00000000000E+00 0. -1.
         22   -1    0    0    0    0 -0.00000000000E+00 -0.00000000000E+00 -0.36183734816E+03  0.36183734816E+03  0.00000000000E+00 0.  1.
         24    2    1    2    0    0 -0.66206710674E+02  0.24687538703E+03 -0.27938464340E+03  0.38682419564E+03  0.79034132560E+02 0.  0.
         25    2    1    2    0    0  0.54949230472E+02 -0.27089140479E+03  0.98452594807E+03  0.10302131727E+04  0.12508504150E+03 0.  0.
        -24    2    1    2    0    0  0.11257480202E+02  0.24016017760E+02  0.29225204293E+03  0.30403067560E+03  0.79497768157E+02 0.  0.
        -13    1    3    3    0    0 -0.55671794842E+02  0.10659440870E+03 -0.17188479140E+03  0.20977630519E+03  0.00000000000E+00 0.  1.
         14    1    3    3    0    0 -0.10534915833E+02  0.14028097833E+03 -0.10749985200E+03  0.17704789045E+03  0.00000000000E+00 0. -1.
         11    1    5    5    0    0 -0.34220176277E+02  0.14471370139E+02  0.11994399582E+03  0.12556672788E+03  0.00000000000E+00 0. -1.
        -12    1    5    5    0    0  0.45477656479E+02  0.95446476217E+01  0.17230804711E+03  0.17846394772E+03  0.00000000000E+00 0.  1.
          5    1    4    4  501    0  0.55272255551E+01 -0.11102628675E+02  0.26671982553E+01  0.13356830925E+02  0.41800000000E+01 0.  1.
         -5    1    4    4    0  501  0.49422004917E+02 -0.25978877612E+03  0.98185874982E+03  0.10168563418E+04  0.41800000000E+01 0.  1.
</event>
<event>
11    1  0.8039394E-009  0.3392580E+03  0.7561462E-02  0.9848217E-01
         22   -1    0    0    0    0  0.00000000000E+00  0.00000000000E+00  0.51808767147E+03  0.51808767147E+03  0.00000000000E+00 0. -1.
         22   -1    0    0    0    0 -0.00000000000E+00 -0.00000000000E+00 -0.43037753004E+03  0.43037753004E+03  0.00000000000E+00 0.  1.
        -24    2    1    2    0    0  0.76048162754E+02 -0.26444269659E+03 -0.69195736605E+02  0.30045219305E+03  0.98844360005E+02 0.  0.
         25    2    1    2    0    0 -0.28686790165E+02  0.38354018490E+03 -0.32259679986E+02  0.40572622082E+03  0.12508826464E+03 0.  0.
         24    2    1    2    0    0 -0.47361372590E+02 -0.11909748830E+03  0.18916555801E+03  0.24228678764E+03  0.80572748441E+02 0.  0.
        -11    1    5    5    0    0 -0.12357463573E+02  0.84062584030E+01  0.41329064750E+02  0.43948420670E+02  0.00000000000E+00 0.  1.
         12    1    5    5    0    0 -0.35003909017E+02 -0.12750374671E+03  0.14783649326E+03  0.19833836697E+03  0.00000000000E+00 0. -1.
         11    1    3    3    0    0  0.88812501376E+02 -0.13702998447E+03 -0.51267970926E+02  0.17115280274E+03  0.00000000000E+00 0. -1.
        -12    1    3    3    0    0 -0.12764338621E+02 -0.12741271213E+03 -0.17927765679E+02  0.12929939031E+03  0.00000000000E+00 0.  1.
          5    1    4    4  501    0 -0.32859924979E+02  0.33162126540E+03  0.17283458662E+02  0.33371938612E+03  0.41800000000E+01 0. -1.
         -5    1    4    4    0  501  0.41731348141E+01  0.51918919502E+02 -0.49543138648E+02  0.72006834700E+02  0.41800000000E+01 0. -1.
</event>
<event>
11    1  0.8039394E-009  0.1302185E+03  0.7561462E-02  0.1119001E+00
         22   -1    0    0    0    0  0.00000000000E+00  0.00000000000E+00  0.40216637966E+03  0.40216637966E+03  0.00000000000E+00 0. -1.
         22   -1    0    0    0    0 -0.00000000000E+00 -0.00000000000E+00 -0.14141330488E+03  0.14141330488E+03  0.00000000000E+00 0.  1.
        -24    2    1    2    0    0 -0.30993593011E+02 -0.12374243958E+02 -0.68264608411E+02  0.10849898594E+03  0.77448360007E+02 0.  0.
         25    2    1    2    0    0  0.50709680100E+02  0.38019623437E+02  0.60669499357E+02  0.15279032350E+03  0.12508849419E+03 0.  0.
         24    2    1    2    0    0 -0.19716087088E+02 -0.25645379479E+02  0.26834818383E+03  0.28229037511E+03  0.81429101254E+02 0.  0.
        -11    1    5    5    0    0 -0.50110300227E+02 -0.44222587083E+01  0.14399022000E+03  0.15252469314E+03  0.00000000000E+00 0.  1.
         12    1    5    5    0    0  0.30394213139E+02 -0.21223120770E+02  0.12435796383E+03  0.12976568197E+03  0.00000000000E+00 0. -1.
         13    1    3    3    0    0  0.30809951249E+01 -0.34199759160E+02 -0.69487821050E+01  0.35034292205E+02  0.00000000000E+00 0. -1.
        -14    1    3    3    0    0 -0.34074588136E+02  0.21825515201E+02 -0.61315826306E+02  0.73464693738E+02  0.00000000000E+00 0.  1.
          5    1    4    4  501    0  0.33129254946E+02  0.71705513889E+01 -0.36059183463E+02  0.49665898286E+02  0.41800000000E+01 0.  1.
         -5    1    4    4    0  501  0.17580425154E+02  0.30849072048E+02  0.96728682820E+02  0.10312442521E+03  0.41800000000E+01 0.  1.
</event>
<event>
11    1  0.8039394E-009  0.1482520E+03  0.7561462E-02  0.1098678E+00
         22   -1    0    0    0    0  0.00000000000E+00  0.00000000000E+00  0.52139942956E+03  0.52139942956E+03  0.00000000000E+00 0. -1.
         22   -1    0    0    0    0 -0.00000000000E+00 -0.00000000000E+00 -0.10729290373E+04  0.10729290373E+04  0.00000000000E+00 0. -1.
         24    2    1    2    0    0 -0.54772217241E+02  0.61141664591E+02 -0.10174460685E+04  0.10238957944E+04  0.80173539876E+02 0.  0.
         25    2    1    2    0    0 -0.59129203666E+01 -0.18848953004E+02  0.43907521220E+02  0.13403433489E+03  0.12508831622E+03 0.  0.
        -24    2    1    2    0    0  0.60685137607E+02 -0.42292711587E+02  0.42200893956E+03  0.43639833758E+03  0.82949409867E+02 0.  0.
        -13    1    3    3    0    0 -0.50551707084E+02  0.60474511634E+02 -0.47967515419E+03  0.48610790489E+03  0.00000000000E+00 0.  1.
         14    1    3    3    0    0 -0.42205101566E+01  0.66715295706E+00 -0.53777091429E+03  0.53778788947E+03  0.00000000000E+00 0. -1.
         13    1    5    5    0    0  0.86194505832E+01 -0.16153589903E+01  0.27596015880E+03  0.27609946316E+03  0.00000000000E+00 0. -1.
        -14    1    5    5    0    0  0.52065687024E+02 -0.40677352597E+02  0.14604878076E+03  0.16029887442E+03  0.00000000000E+00 0.  1.
          5    1    4    4  501    0 -0.54067076836E+02 -0.45305348730E+02  0.16835558452E+02  0.72641116797E+02  0.41800000000E+01 0. -1.
         -5    1    4    4    0  501  0.48154156469E+02  0.26456395726E+02  0.27071962767E+02  0.61393218096E+02  0.41800000000E+01 0. -1.
</event>
<event>
11    1  0.8039394E-009  0.1345404E+03  0.7561462E-02  0.1113813E+00
         22   -1    0    0    0    0  0.00000000000E+00  0.00000000000E+00  0.41868925671E+03  0.41868925671E+03  0.00000000000E+00 0. -1.
         22   -1    0    0    0    0 -0.00000000000E+00 -0.00000000000E+00 -0.52713016580E+03  0.52713016580E+03  0.00000000000E+00 0.  1.
        -24    2    1    2    0    0 -0.46628081368E+02  0.11316987611E+02 -0.42111318920E+03  0.43195799173E+03  0.83361479821E+02 0.  0.
         25    2    1    2    0    0  0.58673188989E+02 -0.30902349696E+02 -0.43497414373E+02  0.14811003916E+03  0.12508821015E+03 0.  0.
         24    2    1    2    0    0 -0.12045107621E+02  0.19585362085E+02  0.35616969448E+03  0.36575139162E+03  0.79928456646E+02 0.  0.
        -13    1    5    5    0    0 -0.77024267769E+01 -0.20822007656E+02  0.31439334434E+02  0.38487856926E+02  0.00000000000E+00 0.  1.
         14    1    5    5    0    0 -0.43426808441E+01  0.40407369741E+02  0.32473036005E+03  0.32726353470E+03  0.00000000000E+00 0. -1.
         13    1    3    3    0    0 -0.54091558498E+02  0.33186359080E+02 -0.20461485336E+03  0.21422994503E+03  0.00000000000E+00 0. -1.
        -14    1    3    3    0    0  0.74634771300E+01 -0.21869371469E+02 -0.21649833584E+03  0.21772804670E+03  0.00000000000E+00 0.  1.
          5    1    4    4  501    0  0.92229753358E+02 -0.19918337595E+02 -0.33866371104E+01  0.94509307944E+02  0.41800000000E+01 0.  1.
         -5    1    4    4    0  501 -0.33556564370E+02 -0.10984012101E+02 -0.40110777263E+02  0.53600731215E+02  0.41800000000E+01 0.  1.
</event>
<event>
11    1  0.8039394E-009  0.1910823E+03  0.7561462E-02  0.1061015E+00
         22   -1    0    0    0    0  0.00000000000E+00  0.00000000000E+00  0.15552525049E+04  0.15552525049E+04  0.00000000000E+00 0.  1.
         22   -1    0    0    0    0 -0.00000000000E+00 -0.00000000000E+00 -0.15448533405E+04  0.15448533405E+04  0.00000000000E+00 0.  1.
        -24    2    1    2    0    0  0.78455278452E+02 -0.29028492708E+02 -0.12377114016E+04  0.12431433945E+04  0.80486654469E+02 0.  0.
         25    2    1    2    0    0 -0.16393332399E+03  0.14420491505E+03 -0.24724059923E+03  0.35276620508E+03  0.12508752656E+03 0.  0.
         24    2    1    2    0    0  0.85478045541E+02 -0.11517642234E+03  0.14953511653E+04  0.15041962457E+04  0.77195425218E+02 0.  0.
        -11    1    5    5    0    0  0.40417909093E+02 -0.94686006503E+02  0.12274825669E+04  0.12317923929E+04  0.00000000000E+00 0.  1.
         12    1    5    5    0    0  0.45060136447E+02 -0.20490415840E+02  0.26786859842E+03  0.27240385287E+03  0.00000000000E+00 0. -1.
         13    1    3    3    0    0  0.25252682090E+01 -0.12831654802E+02 -0.67222643450E+03  0.67235363283E+03  0.00000000000E+00 0. -1.
        -14    1    3    3    0    0  0.75930010243E+02 -0.16196837906E+02 -0.56548496711E+03  0.57078976168E+03  0.00000000000E+00 0.  1.
          5    1    4    4  501    0 -0.13905001884E+02 -0.47101184325E+01 -0.84743531107E+02  0.86107332775E+02  0.41800000000E+01 0. -1.
         -5    1    4    4    0  501 -0.15002832211E+03  0.14891503348E+03 -0.16249706812E+03  0.26665887231E+03  0.41800000000E+01 0. -1.
</event>
<event>
11    1  0.8039394E-009  0.1572000E+03  0.7561462E-02  0.1089741E+00
         22   -1    0    0    0    0  0.00000000000E+00  0.00000000000E+00  0.42766716789E+03  0.42766716789E+03  0.00000000000E+00 0.  1.
         22   -1    0    0    0    0 -0.00000000000E+00 -0.00000000000E+00 -0.59068791507E+03  0.59068791507E+03  0.00000000000E+00 0. -1.
        -24    2    1    2    0    0 -0.33779712079E+02 -0.62742189822E+01 -0.45516065192E+03  0.46329554828E+03  0.79316525532E+02 0.  0.
         25    2    1    2    0    0  0.43869517459E+02  0.10012933039E+03 -0.64180221996E+02  0.17809402597E+03  0.12509182157E+03 0.  0.
         24    2    1    2    0    0 -0.10089805379E+02 -0.93855111413E+02  0.35632012674E+03  0.37696550871E+03  0.78920060339E+02 0.  0.
        -11    1    5    5    0    0 -0.39070725536E+02 -0.32208589549E+02  0.20254230879E+03  0.20877572101E+03  0.00000000000E+00 0.  1.
         12    1    5    5    0    0  0.28980920157E+02 -0.61646521864E+02  0.15377781795E+03  0.16818978770E+03  0.00000000000E+00 0. -1.
         11    1    3    3    0    0 -0.69265226260E+01 -0.56767659971E+01 -0.41430285287E+03  0.41439963354E+03  0.00000000000E+00 0. -1.
        -12    1    3    3    0    0 -0.26853189453E+02 -0.59745298511E+00 -0.40857799057E+02  0.48895914734E+02  0.00000000000E+00 0.  1.
          5    1    4    4  501    0 -0.16487955701E+02  0.43418044188E+02  0.27769953602E+02  0.54273584435E+02  0.41800000000E+01 0.  1.
         -5    1    4    4    0  501  0.60357473160E+02  0.56711286206E+02 -0.91950175597E+02  0.12382044153E+03  0.41800000000E+01 0.  1.
</event>
<event>
11    1  0.8039394E-009  0.1380781E+03  0.7561462E-02  0.1109724E+00
         22   -1    0    0    0    0  0.00000000000E+00  0.00000000000E+00  0.76343445700E+03  0.76343445700E+03  0.00000000000E+00 0. -1.
         22   -1    0    0    0    0 -0.00000000000E+00 -0.00000000000E+00 -0.50325998901E+03  0.50325998901E+03  0.00000000000E+00 0.  1.
         24    2    1    2    0    0 -0.76812362927E+01 -0.66790972214E+02 -0.45842432565E+03  0.46964874849E+03  0.76792247289E+02 0.  0.
         25    2    1    2    0    0 -0.24629810688E+01  0.19610654552E+01  0.76668886272E+02  0.14675243846E+03  0.12509295751E+03 0.  0.
        -24    2    1    2    0    0  0.10144217361E+02  0.64829906759E+02  0.64192990738E+03  0.65029325906E+03  0.80631847522E+02 0.  0.
        -13    1    3    3    0    0  0.22464707052E+02  0.32047341942E+00 -0.19003002576E+03  0.19135353787E+03  0.00000000000E+00 0.  1.
         14    1    3    3    0    0 -0.30145943345E+02 -0.67111445634E+02 -0.26839429990E+03  0.27829521062E+03  0.00000000000E+00 0. -1.
         13    1    5    5    0    0 -0.33501933621E+02  0.43508644137E+02  0.30960853062E+03  0.31444049342E+03  0.00000000000E+00 0. -1.
        -14    1    5    5    0    0  0.43646150983E+02  0.21321262622E+02  0.33232137676E+03  0.33585276564E+03  0.00000000000E+00 0.  1.
          5    1    4    4  501    0 -0.53436085320E+01  0.42791683964E+02  0.92911999073E+02  0.10251728801E+03  0.41800000000E+01 0.  1.
         -5    1    4    4    0  501  0.28806274632E+01 -0.40830618508E+02 -0.16243112801E+02  0.44235150456E+02  0.41800000000E+01 0.  1.
</event>
<event>
11    1  0.8039394E-009  0.1302643E+03  0.7561462E-02  0.1118945E+00
         22   -1    0    0    0    0  0.00000000000E+00  0.00000000000E+00  0.99859344419E+02  0.99859344419E+02  0.00000000000E+00 0.  1.
         22   -1    0    0    0    0 -0.00000000000E+00 -0.00000000000E+00 -0.22650270455E+04  0.22650270455E+04  0.00000000000E+00 0. -1.
         24    2    1    2    0    0  0.14455586922E+01 -0.91096292914E+00 -0.15427107646E+04  0.15446157711E+04  0.76671101122E+02 0.  0.
         25    2    1    2    0    0 -0.30893760090E+02  0.22148583647E+02 -0.69483304401E+03  0.70702544744E+03  0.12508812939E+03 0.  0.
        -24    2    1    2    0    0  0.29448201398E+02 -0.21237620717E+02  0.72376107503E+02  0.11324517136E+03  0.79170289882E+02 0.  0.
        -13    1    3    3    0    0  0.33989538061E+01  0.16024538652E+02 -0.73383239276E+02  0.75189351192E+02  0.00000000000E+00 0.  1.
         14    1    3    3    0    0 -0.19533951138E+01 -0.16935501581E+02 -0.14693275253E+04  0.14694264199E+04  0.00000000000E+00 0. -1.
         13    1    5    5    0    0 -0.64290711517E+01  0.26530379911E+02  0.24661404223E+02  0.36788298035E+02  0.00000000000E+00 0. -1.
        -14    1    5    5    0    0  0.35877272549E+02 -0.47768000628E+02  0.47714703280E+02  0.76456873326E+02  0.00000000000E+00 0.  1.
          5    1    4    4  501    0 -0.67779734307E+02  0.38458814783E+02 -0.29524345161E+03  0.30538392383E+03  0.41800000000E+01 0. -1.
         -5    1    4    4    0  501  0.36885974217E+02 -0.16310231137E+02 -0.39958959240E+03  0.40164152361E+03  0.41800000000E+01 0. -1.
</event>
<event>
11    1  0.8039394E-009  0.1461965E+03  0.7561462E-02  0.1100830E+00
         22   -1    0    0    0    0  0.00000000000E+00  0.00000000000E+00  0.39918606532E+03  0.39918606532E+03  0.00000000000E+00 0.  1.
         22   -1    0    0    0    0 -0.00000000000E+00 -0.00000000000E+00 -0.51262012406E+03  0.51262012406E+03  0.00000000000E+00 0. -1.
         24    2    1    2    0    0 -0.54014559346E+02 -0.23227315338E+02 -0.40433612801E+03  0.41675784875E+03  0.82111626953E+02 0.  0.
         25    2    1    2    0    0 -0.26158552225E+02  0.10515163672E+02 -0.47600605838E+02  0.13677783220E+03  0.12509004430E+03 0.  0.
        -24    2    1    2    0    0  0.80173111571E+02  0.12712151666E+02  0.33850267510E+03  0.35827050843E+03  0.84760660328E+02 0.  0.
        -11    1    3    3    0    0 -0.40309264157E+02  0.11919900050E+02 -0.81275582637E+02  0.91502137282E+02  0.00000000000E+00 0.  1.
         12    1    3    3    0    0 -0.13705295189E+02 -0.35147215388E+02 -0.32306054537E+03  0.32525571146E+03  0.00000000000E+00 0. -1.
         11    1    5    5    0    0  0.60609736083E+02  0.16170539581E+02  0.94285206926E+02  0.11324630989E+03  0.00000000000E+00 0. -1.
        -12    1    5    5    0    0  0.19563375488E+02 -0.34583879144E+01  0.24421746818E+03  0.24502419854E+03  0.00000000000E+00 0.  1.
          5    1    4    4  501    0 -0.67119904585E+02 -0.10282159989E+01 -0.62182403708E+02  0.91598376353E+02  0.41800000000E+01 0.  1.
         -5    1    4    4    0  501  0.40961352360E+02  0.11543379671E+02  0.14581797869E+02  0.45179455845E+02  0.41800000000E+01 0.  1.
</event>
<event>
11    1  0.8039394E-009  0.1590819E+03  0.7561462E-02  0.1087944E+00
         22   -1    0    0    0    0  0.00000000000E+00  0.00000000000E+00  0.20224407826E+04  0.20224407826E+04  0.00000000000E+00 0.  1.
         22   -1    0    0    0    0 -0.00000000000E+00 -0.00000000000E+00 -0.35871111828E+03  0.35871111828E+03  0.00000000000E+00 0.  1.
         24    2    1    2    0    0 -0.16391428548E+02 -0.95017553071E+02 -0.30248048160E+03  0.32767661081E+03  0.81120313127E+02 0.  0.
         25    2    1    2    0    0  0.23662064462E+01  0.12730072512E+03  0.14467963406E+03  0.22976202896E+03  0.12508924771E+03 0.  0.
        -24    2    1    2    0    0  0.14025222102E+02 -0.32283172049E+02  0.18215305119E+04  0.18237132611E+04  0.81961838721E+02 0.  0.
        -13    1    3    3    0    0 -0.25867143603E+02 -0.10333485445E+03 -0.29339956825E+03  0.31213860369E+03  0.00000000000E+00 0.  1.
         14    1    3    3    0    0  0.94757150549E+01  0.83173013796E+01 -0.90809133455E+01  0.15538007119E+02  0.00000000000E+00 0. -1.
         11    1    5    5    0    0  0.90824673521E+01  0.41089108241E+01  0.26592594329E+02  0.28399655535E+02  0.00000000000E+00 0. -1.
        -12    1    5    5    0    0  0.49427547497E+01 -0.36392082873E+02  0.17949379176E+04  0.17953136056E+04  0.00000000000E+00 0.  1.
          5    1    4    4  501    0 -0.79616201433E+00  0.10180880380E+03  0.16689602886E+03  0.19554391644E+03  0.41800000000E+01 0. -1.
         -5    1    4    4    0  501  0.31623684605E+01  0.25491921317E+02 -0.22216394805E+02  0.34218112526E+02  0.41800000000E+01 0. -1.
</event>
<event>
11    1  0.8039394E-009  0.2101991E+03  0.7561462E-02  0.1047537E+00
         22   -1    0    0    0    0  0.00000000000E+00  0.00000000000E+00  0.19234299068E+04  0.19234299068E+04  0.00000000000E+00 0. -1.
         22   -1    0    0    0    0 -0.00000000000E+00 -0.00000000000E+00 -0.19872156490E+04  0.19872156490E+04  0.00000000000E+00 0. -1.
         24    2    1    2    0    0  0.46116342857E+01 -0.19740309075E+02 -0.18699193040E+04  0.18717818270E+04  0.80981833149E+02 0.  0.
         25    2    1    2    0    0  0.62674753888E+02  0.17395961360E+03  0.95734276194E-01  0.22324162728E+03  0.12508694196E+03 0.  0.
        -24    2    1    2    0    0 -0.67286388173E+02 -0.15421930452E+03  0.18060378275E+04  0.18156221016E+04  0.79999559820E+02 0.  0.
        -13    1    3    3    0    0  0.36621624627E+02  0.10887458265E+02 -0.72542236593E+03  0.72642775905E+03  0.00000000000E+00 0.  1.
         14    1    3    3    0    0 -0.32009990341E+02 -0.30627767340E+02 -0.11444969381E+04  0.11453540679E+04  0.00000000000E+00 0. -1.
         11    1    5    5    0    0 -0.78300698105E+02 -0.15197236075E+03  0.17577041537E+04  0.17659984398E+04  0.00000000000E+00 0. -1.
        -12    1    5    5    0    0  0.11014309931E+02 -0.22469437698E+01  0.48333673808E+02  0.49623661728E+02  0.00000000000E+00 0.  1.
          5    1    4    4  501    0  0.82898101132E+02  0.66286340565E+02 -0.28416976503E+02  0.10995895175E+03  0.41800000000E+01 0. -1.
         -5    1    4    4    0  501 -0.20223347245E+02  0.10767327303E+03  0.28512710779E+02  0.11328267553E+03  0.41800000000E+01 0. -1.
</event>
<event>
11    1  0.8039394E-009  0.1328790E+03  0.7561462E-02  0.1115781E+00
         22   -1    0    0    0    0  0.00000000000E+00  0.00000000000E+00  0.34191341569E+03  0.34191341569E+03  0.00000000000E+00 0.  1.
         22   -1    0    0    0    0 -0.00000000000E+00 -0.00000000000E+00 -0.29185563155E+04  0.29185563155E+04  0.00000000000E+00 0.  1.
        -24    2    1    2    0    0  0.44822501970E+02  0.63996793606E+01 -0.28354531537E+04  0.28369530299E+04  0.80361026570E+02 0.  0.
         25    2    1    2    0    0 -0.14750790306E+02  0.14904060875E+02 -0.22828781164E+02  0.12887524732E+03  0.12509180339E+03 0.  0.
         24    2    1    2    0    0 -0.30071711664E+02 -0.21303740236E+02  0.28163903499E+03  0.29464145401E+03  0.78325495232E+02 0.  0.
        -13    1    5    5    0    0 -0.46416877547E+02 -0.12079931070E+02  0.26577120748E+03  0.27006441080E+03  0.00000000000E+00 0.  1.
         14    1    5    5    0    0  0.16345165882E+02 -0.92238091659E+01  0.15867827511E+02  0.24577043214E+02  0.00000000000E+00 0. -1.
         11    1    3    3    0    0  0.48430327118E+02 -0.58554550058E+01 -0.81454496639E+03  0.81600446397E+03  0.00000000000E+00 0. -1.
        -12    1    3    3    0    0 -0.36078251477E+01  0.12255134366E+02 -0.20209081873E+04  0.20209485659E+04  0.00000000000E+00 0.  1.
          5    1    4    4  501    0  0.17672296005E+02  0.59878946535E+02 -0.35370557137E+02  0.71877305155E+02  0.41800000000E+01 0.  1.
         -5    1    4    4    0  501 -0.32423086311E+02 -0.44974885659E+02  0.12541775973E+02  0.56997942161E+02  0.41800000000E+01 0.  1.
</event>
<event>
11    1  0.8039394E-009  0.1300784E+03  0.7561462E-02  0.1119173E+00
         22   -1    0    0    0    0  0.00000000000E+00  0.00000000000E+00  0.12157844240E+03  0.12157844240E+03  0.00000000000E+00 0.  1.
         22   -1    0    0    0    0 -0.00000000000E+00 -0.00000000000E+00 -0.57246575920E+03  0.57246575920E+03  0.00000000000E+00 0.  1.
        -24    2    1    2    0    0  0.70681407876E+01 -0.14957727667E+02 -0.45994324826E+03  0.46542989607E+03  0.69307317831E+02 0.  0.
         25    2    1    2    0    0  0.30234909406E+02  0.67867207366E+01 -0.29212256461E+02  0.13214017821E+03  0.12508981351E+03 0.  0.
         24    2    1    2    0    0 -0.37303050194E+02  0.81710069301E+01  0.38268187920E+02  0.96474127325E+02  0.79903192229E+02 0.  0.
        -11    1    5    5    0    0 -0.11599995880E+01  0.34042166009E+01  0.55873895446E+02  0.55989521181E+02  0.00000000000E+00 0.  1.
         12    1    5    5    0    0 -0.36143050606E+02  0.47667903292E+01 -0.17605707526E+02  0.40484606144E+02  0.00000000000E+00 0. -1.
         11    1    3    3    0    0  0.29285082362E+02 -0.19651716053E+02 -0.12977782430E+03  0.13448453321E+03  0.00000000000E+00 0. -1.
        -12    1    3    3    0    0 -0.22216941574E+02  0.46939883866E+01 -0.33016542396E+03  0.33094536286E+03  0.00000000000E+00 0.  1.
          5    1    4    4  501    0 -0.17398459541E+02 -0.16646457021E+02  0.38742769536E+02  0.45807046588E+02  0.41800000000E+01 0.  1.
         -5    1    4    4    0  501  0.47633368947E+02  0.23433177758E+02 -0.67955025997E+02  0.86333131620E+02  0.41800000000E+01 0.  1.
</event>
<event>
11    1  0.8039394E-009  0.1623430E+03  0.7561462E-02  0.1084894E+00
         22   -1    0    0    0    0  0.00000000000E+00  0.00000000000E+00  0.10842573449E+04  0.10842573449E+04  0.00000000000E+00 0.  1.
         22   -1    0    0    0    0 -0.00000000000E+00 -0.00000000000E+00 -0.68934182851E+02  0.68934182851E+02  0.00000000000E+00 0. -1.
         24    2    1    2    0    0  0.51181115727E+02 -0.91954307307E+02  0.26197430537E+02  0.13433480516E+03  0.79274417504E+02 0.  0.
         25    2    1    2    0    0 -0.48710148663E+02  0.78049938192E+02  0.51560906488E+03  0.53848421491E+03  0.12509224792E+03 0.  0.
        -24    2    1    2    0    0 -0.24709670645E+01  0.13904369115E+02  0.47351666667E+03  0.48037250772E+03  0.79625846300E+02 0.  0.
        -11    1    3    3    0    0  0.84835302218E+00  0.51593430903E+01  0.24383345435E+02  0.24937643404E+02  0.00000000000E+00 0.  1.
         12    1    3    3    0    0  0.50332762705E+02 -0.97113650397E+02  0.18140851028E+01  0.10939716175E+03  0.00000000000E+00 0. -1.
         11    1    5    5    0    0 -0.52531510456E+01  0.46941829732E+02  0.25202624359E+03  0.25641442712E+03  0.00000000000E+00 0. -1.
        -12    1    5    5    0    0  0.27821839811E+01 -0.33037460617E+02  0.22149042308E+03  0.22395808060E+03  0.00000000000E+00 0.  1.
          5    1    4    4  501    0 -0.32402435984E+02  0.67772373164E+02  0.51311677028E+03  0.51860322479E+03  0.41800000000E+01 0. -1.
         -5    1    4    4    0  501 -0.16307712679E+02  0.10277565028E+02  0.24922945967E+01  0.19880990118E+02  0.41800000000E+01 0. -1.
</event>
<event>
11    1  0.8039394E-009  0.1387776E+03  0.7561462E-02  0.1108931E+00
         22   -1    0    0    0    0  0.00000000000E+00  0.00000000000E+00  0.89019066053E+03  0.89019066053E+03  0.00000000000E+00 0. -1.
         22   -1    0    0    0    0 -0.00000000000E+00 -0.00000000000E+00 -0.10029544302E+03  0.10029544302E+03  0.00000000000E+00 0. -1.
        -24    2    1    2    0    0  0.10462439959E+02 -0.56770059706E+02 -0.41351483772E+02  0.10699177001E+03  0.80031189606E+02 0.  0.
         25    2    1    2    0    0  0.51546174774E+01  0.78834353439E+02  0.21141994784E+03  0.25804751946E+03  0.12509477444E+03 0.  0.
         24    2    1    2    0    0 -0.15617057436E+02 -0.22064293732E+02  0.61982675344E+03  0.62544681409E+03  0.79169359140E+02 0.  0.
        -13    1    5    5    0    0 -0.18710941971E+02 -0.42868438383E+02  0.21293163932E+03  0.21800845255E+03  0.00000000000E+00 0.  1.
         14    1    5    5    0    0  0.30938845351E+01  0.20804144651E+02  0.40689511413E+03  0.40743836154E+03  0.00000000000E+00 0. -1.
         13    1    3    3    0    0 -0.84172371565E+01 -0.61701693487E+02 -0.11261357053E+01  0.62283360877E+02  0.00000000000E+00 0. -1.
        -14    1    3    3    0    0  0.18879677115E+02  0.49316337804E+01 -0.40225348066E+02  0.44708409128E+02  0.00000000000E+00 0.  1.
          5    1    4    4  501    0  0.37727844789E+02  0.94814787369E+02  0.18999397398E+03  0.21570446617E+03  0.41800000000E+01 0.  1.
         -5    1    4    4    0  501 -0.32573227312E+02 -0.15980433930E+02  0.21425973852E+02  0.42343053287E+02  0.41800000000E+01 0.  1.
</event>
<event>
11    1  0.8039394E-009  0.1349301E+03  0.7561462E-02  0.1113356E+00
         22   -1    0    0    0    0  0.00000000000E+00  0.00000000000E+00  0.25398518144E+02  0.25398518144E+02  0.00000000000E+00 0.  1.
         22   -1    0    0    0    0 -0.00000000000E+00 -0.00000000000E+00 -0.27385797116E+04  0.27385797116E+04  0.00000000000E+00 0.  1.
         24    2    1    2    0    0  0.69185327692E+02  0.10991539587E+01 -0.15064287317E+04  0.15100663067E+04  0.78644193920E+02 0.  0.
         25    2    1    2    0    0 -0.72243287040E+02  0.48204262627E+02 -0.10678338203E+04  0.10786378043E+04  0.12509077399E+03 0.  0.
        -24    2    1    2    0    0  0.30579593479E+01 -0.49303416585E+02 -0.13891864146E+03  0.17527411870E+03  0.94775786664E+02 0.  0.
        -13    1    3    3    0    0  0.86330628221E+02  0.68768681598E+01 -0.12639417806E+04  0.12669053215E+04  0.00000000000E+00 0.  1.
         14    1    3    3    0    0 -0.17145300528E+02 -0.57777142012E+01 -0.24248695109E+03  0.24316098528E+03  0.00000000000E+00 0. -1.
         13    1    5    5    0    0 -0.37878663109E+02  0.50558413804E+01 -0.41183485767E+02  0.56182151533E+02  0.00000000000E+00 0. -1.
        -14    1    5    5    0    0  0.40936622457E+02 -0.54359257966E+02 -0.97735155696E+02  0.11909196717E+03  0.00000000000E+00 0.  1.
          5    1    4    4  501    0  0.16455442061E+02 -0.25045926080E+02 -0.38334677786E+03  0.38453908057E+03  0.41800000000E+01 0.  1.
         -5    1    4    4    0  501 -0.88698729102E+02  0.73250188707E+02 -0.68448704240E+03  0.69409872375E+03  0.41800000000E+01 0.  1.
</event>
<event>
11    1  0.8039394E-009  0.2346701E+03  0.7561462E-02  0.1032398E+00
         22   -1    0    0    0    0  0.00000000000E+00  0.00000000000E+00  0.22689415825E+03  0.22689415825E+03  0.00000000000E+00 0. -1.
         22   -1    0    0    0    0 -0.00000000000E+00 -0.00000000000E+00 -0.61720010944E+03  0.61720010944E+03  0.00000000000E+00 0. -1.
         24    2    1    2    0    0  0.47298260394E+02  0.59135185019E+02 -0.24978932405E+03  0.27361750022E+03  0.82083704068E+02 0.  0.
         25    2    1    2    0    0 -0.12103437824E+03  0.13282237362E+03 -0.24382559078E+03  0.32770677081E+03  0.12509878204E+03 0.  0.
        -24    2    1    2    0    0  0.73736117849E+02 -0.19195755864E+03  0.10330896363E+03  0.24276999666E+03  0.77329230666E+02 0.  0.
        -11    1    3    3    0    0 -0.84947160894E+01 -0.72657427811E+01 -0.99285332645E+02  0.99912604300E+02  0.00000000000E+00 0.  1.
         12    1    3    3    0    0  0.55792976484E+02  0.66400927800E+02 -0.15050399141E+03  0.17370489592E+03  0.00000000000E+00 0. -1.
         13    1    5    5    0    0  0.58754627847E+02 -0.12246436562E+03  0.27016500640E+02  0.13849013845E+03  0.00000000000E+00 0. -1.
        -14    1    5    5    0    0  0.14981490003E+02 -0.69493193020E+02  0.76292462994E+02  0.10427985821E+03  0.00000000000E+00 0.  1.
          5    1    4    4  501    0 -0.13318975711E+03  0.13509587580E+03 -0.24950980261E+03  0.31346933033E+03  0.41800000000E+01 0. -1.
         -5    1    4    4    0  501  0.12155378862E+02 -0.22735021825E+01  0.56842118320E+01  0.14237440486E+02  0.41800000000E+01 0. -1.
</event>
<event>
11    1  0.8039394E-009  0.1544574E+03  0.7561462E-02  0.1092409E+00
         22   -1    0    0    0    0  0.00000000000E+00  0.00000000000E+00  0.15857951878E+04  0.15857951878E+04  0.00000000000E+00 0.  1.
         22   -1    0    0    0    0 -0.00000000000E+00 -0.00000000000E+00 -0.15969925174E+04  0.15969925174E+04  0.00000000000E+00 0.  1.
        -24    2    1    2    0    0  0.33923600725E+01 -0.86533706536E+02 -0.15088832818E+04  0.15133528625E+04  0.77514758816E+02 0.  0.
         25    2    1    2    0    0  0.53430754564E+02  0.13388686408E+02 -0.27405986627E+02  0.13940020371E+03  0.12508887334E+03 0.  0.
         24    2    1    2    0    0 -0.56823114636E+02  0.73145020128E+02  0.15250919389E+04  0.15300346390E+04  0.80755892896E+02 0.  0.
        -13    1    5    5    0    0 -0.16251321650E+02  0.54023559446E+02  0.12531119804E+04  0.12543812362E+04  0.00000000000E+00 0.  1.
         14    1    5    5    0    0 -0.40571792986E+02  0.19121460682E+02  0.27197995849E+03  0.27565340278E+03  0.00000000000E+00 0. -1.
         11    1    3    3    0    0  0.39226904655E+02 -0.35502593037E+02 -0.59683074791E+03  0.59917119908E+03  0.00000000000E+00 0. -1.
        -12    1    3    3    0    0 -0.35834544582E+02 -0.51031113499E+02 -0.91205253393E+03  0.91418166344E+03  0.00000000000E+00 0.  1.
          5    1    4    4  501    0 -0.14064364541E+01  0.40760261839E+02  0.33462321421E+02  0.52920472065E+02  0.41800000000E+01 0.  1.
         -5    1    4    4    0  501  0.54837191018E+02 -0.27371575431E+02 -0.60868308048E+02  0.86479731642E+02  0.41800000000E+01 0.  1.
</event>
<event>
11    1  0.8039394E-009  0.1482372E+03  0.7561462E-02  0.1098694E+00
         22   -1    0    0    0    0  0.00000000000E+00  0.00000000000E+00  0.15189762239E+03  0.15189762239E+03  0.00000000000E+00 0.  1.
         22   -1    0    0    0    0 -0.00000000000E+00 -0.00000000000E+00 -0.14383232867E+04  0.14383232867E+04  0.00000000000E+00 0.  1.
         24    2    1    2    0    0 -0.35126181931E+02 -0.68883408634E+02 -0.11888628458E+04  0.11941132564E+04  0.80825925982E+02 0.  0.
         25    2    1    2    0    0  0.41206304653E+02  0.95584894166E+02 -0.20199204016E+03  0.25938646832E+03  0.12508446794E+03 0.  0.
        -24    2    1    2    0    0 -0.60801227216E+01 -0.26701485532E+02  0.10442922169E+03  0.13672118436E+03  0.83888513447E+02 0.  0.
        -11    1    3    3    0    0 -0.10033599948E+02 -0.32799313634E+02 -0.98359315921E+03  0.98419102361E+03  0.00000000000E+00 0.  1.
         12    1    3    3    0    0 -0.25092581983E+02 -0.36084094999E+02 -0.20526968661E+03  0.20992223280E+03  0.00000000000E+00 0. -1.
         13    1    5    5    0    0 -0.11156921724E+02 -0.49856277413E+02  0.31461565043E+02  0.59999628122E+02  0.00000000000E+00 0. -1.
        -14    1    5    5    0    0  0.50767990024E+01  0.23154791881E+02  0.72967656647E+02  0.76721556239E+02  0.00000000000E+00 0.  1.
          5    1    4    4  501    0  0.79966412276E+02  0.48259419164E+02 -0.80816973788E+02  0.12358177164E+03  0.41800000000E+01 0. -1.
         -5    1    4    4    0  501 -0.38760107623E+02  0.47325475002E+02 -0.12117506637E+03  0.13580469667E+03  0.41800000000E+01 0. -1.
</event>
<event>
11    1  0.8039394E-009  0.3482626E+03  0.7561462E-02  0.9816098E-01
         22   -1    0    0    0    0  0.00000000000E+00  0.00000000000E+00  0.77475407174E+03  0.77475407174E+03  0.00000000000E+00 0.  1.
         22   -1    0    0    0    0 -0.00000000000E+00 -0.00000000000E+00 -0.76058075064E+03  0.76058075064E+03  0.00000000000E+00 0. -1.
        -24    2    1    2    0    0 -0.64775612234E+01  0.27676225472E+02 -0.52312626976E+03  0.53006522255E+03  0.80623283121E+02 0.  0.
         25    2    1    2    0    0  0.37861312325E+02  0.30113938784E+03 -0.44704524995E+02  0.33130727560E+03  0.12509039305E+03 0.  0.
         24    2    1    2    0    0 -0.31383751102E+02 -0.32881561331E+03  0.58200411585E+03  0.67396232424E+03  0.79948584889E+02 0.  0.
        -11    1    5    5    0    0 -0.16231132881E+02 -0.16244243830E+03  0.20857454118E+03  0.26486663562E+03  0.00000000000E+00 0.  1.
         12    1    5    5    0    0 -0.15152618221E+02 -0.16637317501E+03  0.37342957467E+03  0.40909568861E+03  0.00000000000E+00 0. -1.
         13    1    3    3    0    0  0.25403314843E+02 -0.16922147588E+02 -0.20198118768E+03  0.20427453992E+03  0.00000000000E+00 0. -1.
        -14    1    3    3    0    0 -0.31880876066E+02  0.44598373060E+02 -0.32114508208E+03  0.32579068262E+03  0.00000000000E+00 0.  1.
          5    1    4    4  501    0  0.88732160125E+01  0.29351301146E+03 -0.24036644518E+02  0.29465887826E+03  0.41800000000E+01 0. -1.
         -5    1    4    4    0  501  0.28988096313E+02  0.76263763838E+01 -0.20667880477E+02  0.36648397346E+02  0.41800000000E+01 0. -1.
</event>
<event>
11    1  0.8039394E-009  0.1483275E+03  0.7561462E-02  0.1098600E+00
         22   -1    0    0    0    0  0.00000000000E+00  0.00000000000E+00  0.18460605552E+04  0.18460605552E+04  0.00000000000E+00 0.  1.
         22   -1    0    0    0    0 -0.00000000000E+00 -0.00000000000E+00 -0.29621158985E+03  0.29621158985E+03  0.00000000000E+00 0.  1.
         24    2    1    2    0    0  0.66971821288E+02  0.44327157199E+02 -0.27134167068E+03  0.29324799043E+03  0.76928277846E+02 0.  0.
         25    2    1    2    0    0 -0.48640441778E+02 -0.33982539710E+02  0.36423692233E+03  0.38966014733E+03  0.12508312936E+03 0.  0.
        -24    2    1    2    0    0 -0.18331379510E+02 -0.10344617489E+02  0.14569537137E+04  0.14593640072E+04  0.81154983244E+02 0.  0.
        -11    1    3    3    0    0  0.67523226091E+02  0.61713939366E+02 -0.24645691068E+03  0.26288591669E+03  0.00000000000E+00 0.  1.
         12    1    3    3    0    0 -0.55140480305E+00 -0.17386782168E+02 -0.24884760005E+02  0.30362073742E+02  0.00000000000E+00 0. -1.
         11    1    5    5    0    0 -0.22014218586E+02 -0.34283656951E+02  0.38749697732E+03  0.38963303554E+03  0.00000000000E+00 0. -1.
        -12    1    5    5    0    0  0.36828390766E+01  0.23939039462E+02  0.10694567363E+04  0.10697309717E+04  0.00000000000E+00 0.  1.
          5    1    4    4  501    0 -0.12509914361E+01  0.24058046413E+02  0.81832440833E+01  0.25783569585E+02  0.41800000000E+01 0. -1.
         -5    1    4    4    0  501 -0.47389450342E+02 -0.58040586123E+02  0.35605367824E+03  0.36387657775E+03  0.41800000000E+01 0. -1.
</event>
<event>
11    1  0.8039394E-009  0.2069340E+03  0.7561462E-02  0.1049726E+00
         22   -1    0    0    0    0  0.00000000000E+00  0.00000000000E+00  0.29762734391E+04  0.29762734391E+04  0.00000000000E+00 0.  1.
         22   -1    0    0    0    0 -0.00000000000E+00 -0.00000000000E+00 -0.49142489112E+03  0.49142489112E+03  0.00000000000E+00 0. -1.
         24    2    1    2    0    0 -0.22607524729E+02  0.49139931132E+02 -0.41771026131E+03  0.42841977274E+03  0.78331387502E+02 0.  0.
         25    2    1    2    0    0 -0.95194717909E+02 -0.16330491972E+03  0.13104899309E+03  0.26182699655E+03  0.12509598879E+03 0.  0.
        -24    2    1    2    0    0  0.11780224264E+03  0.11416498859E+03  0.27715098162E+04  0.27774515609E+04  0.77842783860E+02 0.  0.
        -11    1    3    3    0    0 -0.12261374067E+02 -0.20885073570E+02 -0.11865996823E+03  0.12110621641E+03  0.00000000000E+00 0.  1.
         12    1    3    3    0    0 -0.10346150662E+02  0.70025004703E+02 -0.29905029307E+03  0.30731355633E+03  0.00000000000E+00 0. -1.
         13    1    5    5    0    0  0.53518458103E+02  0.16908113127E+02  0.54262779031E+03  0.54552271123E+03  0.00000000000E+00 0. -1.
        -14    1    5    5    0    0  0.64283784535E+02  0.97256875460E+02  0.22288820259E+04  0.22319288497E+04  0.00000000000E+00 0.  1.
          5    1    4    4  501    0  0.12886626966E+02 -0.98193760160E+02  0.43834890748E+02  0.10838380753E+03  0.41800000000E+01 0.  1.
         -5    1    4    4    0  501 -0.10808134487E+03 -0.65111159561E+02  0.87214102339E+02  0.15344318902E+03  0.41800000000E+01 0.  1.
</event>
<event>
11    1  0.8039394E-009  0.1323661E+03  0.7561462E-02  0.1116396E+00
         22   -1    0    0    0    0  0.00000000000E+00  0.00000000000E+00  0.10703838720E+04  0.10703838720E+04  0.00000000000E+00 0. -1.
         22   -1    0    0    0    0 -0.00000000000E+00 -0.00000000000E+00 -0.10188161276E+03  0.10188161276E+03  0.00000000000E+00 0.  1.
         24    2    1    2    0    0 -0.29842474576E+02  0.14017219071E+02 -0.45141833208E+02  0.82740978289E+02  0.61001874263E+02 0.  0.
         25    2    1    2    0    0  0.58104516251E+02  0.17992507594E+02  0.99889097869E+02  0.17124294057E+03  0.12508576132E+03 0.  0.
        -24    2    1    2    0    0 -0.28262041675E+02 -0.32009726666E+02  0.91375499461E+03  0.91828156593E+03  0.80433068666E+02 0.  0.
        -13    1    3    3    0    0 -0.44253004867E+02  0.17117904747E+02 -0.48255590850E+02  0.67675351133E+02  0.00000000000E+00 0.  1.
         14    1    3    3    0    0  0.14410530291E+02 -0.31006856762E+01  0.31137576422E+01  0.15065627156E+02  0.00000000000E+00 0. -1.
         11    1    5    5    0    0  0.11500137987E+02 -0.42727685400E+02  0.63023135283E+03  0.63178276833E+03  0.00000000000E+00 0. -1.
        -12    1    5    5    0    0 -0.39762179662E+02  0.10717958734E+02  0.28352364178E+03  0.28649879759E+03  0.00000000000E+00 0.  1.
          5    1    4    4  501    0  0.78254601982E+01  0.32058130246E+02 -0.21108605231E+02  0.39395522042E+02  0.41800000000E+01 0. -1.
         -5    1    4    4    0  501  0.50279056053E+02 -0.14065622652E+02  0.12099770310E+03  0.13184741853E+03  0.41800000000E+01 0. -1.
</event>
<event>
11    1  0.8039394E-009  0.1629089E+03  0.7561462E-02  0.1084373E+00
         22   -1    0    0    0    0  0.00000000000E+00  0.00000000000E+00  0.96708747134E+02  0.96708747134E+02  0.00000000000E+00 0. -1.
         22   -1    0    0    0    0 -0.00000000000E+00 -0.00000000000E+00 -0.17841660390E+04  0.17841660390E+04  0.00000000000E+00 0. -1.
         24    2    1    2    0    0 -0.22836209669E+02  0.11237523712E+03 -0.13631258641E+04  0.13703263524E+04  0.80823909129E+02 0.  0.
         25    2    1    2    0    0  0.67234263008E+02 -0.46261117170E+02 -0.35959760127E+03  0.38938198272E+03  0.12508939420E+03 0.  0.
        -24    2    1    2    0    0 -0.44398053339E+02 -0.66114119954E+02  0.35266173464E+02  0.12116645107E+03  0.84233852312E+02 0.  0.
        -13    1    3    3    0    0 -0.34187786657E+02  0.16193279307E+02 -0.23221906338E+03  0.23528008936E+03  0.00000000000E+00 0.  1.
         14    1    3    3    0    0  0.11351576987E+02  0.96181957817E+02 -0.11309068007E+04  0.11350462630E+04  0.00000000000E+00 0. -1.
         11    1    5    5    0    0 -0.38584004991E+02 -0.69523622246E+02  0.57375845863E+02  0.98052267592E+02  0.00000000000E+00 0. -1.
        -12    1    5    5    0    0 -0.58140483473E+01  0.34095022923E+01 -0.22109672398E+02  0.23114183473E+02  0.00000000000E+00 0.  1.
          5    1    4    4  501    0  0.97688753703E+02 -0.22162770526E+02 -0.31253228721E+03  0.32821971901E+03  0.41800000000E+01 0.  1.
         -5    1    4    4    0  501 -0.30454490695E+02 -0.24098346645E+02 -0.47065314058E+02  0.61162263708E+02  0.41800000000E+01 0.  1.
</event>
<event>
11    1  0.8039394E-009  0.1724493E+03  0.7561462E-02  0.1075920E+00
         22   -1    0    0    0    0  0.00000000000E+00  0.00000000000E+00  0.61030315371E+03  0.61030315371E+03  0.00000000000E+00 0. -1.
         22   -1    0    0    0    0 -0.00000000000E+00 -0.00000000000E+00 -0.38579678923E+03  0.38579678923E+03  0.00000000000E+00 0.  1.
         24    2    1    2    0    0  0.27183718000E+02  0.11284241732E+03 -0.22793481151E+03  0.26730929179E+03  0.77637706761E+02 0.  0.
         25    2    1    2    0    0 -0.30955382060E+02 -0.12273313662E+03 -0.76157911494E+02  0.19356891501E+03  0.12508892385E+03 0.  0.
        -24    2    1    2    0    0  0.37716640603E+01  0.98907192948E+01  0.52859908748E+03  0.53522173614E+03  0.83266198285E+02 0.  0.
        -13    1    3    3    0    0  0.26428437249E+02  0.94286607999E+02 -0.22863856514E+03  0.24872478809E+03  0.00000000000E+00 0.  1.
         14    1    3    3    0    0  0.75528075099E+00  0.18555809322E+02  0.70375363157E+00  0.18584503700E+02  0.00000000000E+00 0. -1.
         11    1    5    5    0    0  0.25338679867E+02  0.24020314064E+02  0.10134981398E+03  0.10719519103E+03  0.00000000000E+00 0. -1.
        -12    1    5    5    0    0 -0.21567015807E+02 -0.14129594769E+02  0.42724927349E+03  0.42802654511E+03  0.00000000000E+00 0.  1.
          5    1    4    4  501    0 -0.10871296637E+02 -0.98460680108E+01 -0.77337451655E+02  0.78826924172E+02  0.41800000000E+01 0.  1.
         -5    1    4    4    0  501 -0.20084085423E+02 -0.11288706860E+03  0.11795401612E+01  0.11474199083E+03  0.41800000000E+01 0.  1.
</event>
<event>
11    1  0.8039394E-009  0.3381220E+03  0.7561462E-02  0.9852345E-01
         22   -1    0    0    0    0  0.00000000000E+00  0.00000000000E+00  0.80233402662E+02  0.80233402662E+02  0.00000000000E+00 0. -1.
         22   -1    0    0    0    0 -0.00000000000E+00 -0.00000000000E+00 -0.25877641163E+04  0.25877641163E+04  0.00000000000E+00 0. -1.
         24    2    1    2    0    0  0.18794896625E+03  0.13958671198E+03 -0.21911694222E+04  0.22049522091E+04  0.76036461195E+02 0.  0.
         25    2    1    2    0    0 -0.11295078598E+03 -0.15939834480E+02 -0.19218467322E+03  0.25611411838E+03  0.12509010606E+03 0.  0.
        -24    2    1    2    0    0 -0.74998180272E+02 -0.12364687750E+03 -0.12417661820E+03  0.20693119150E+03  0.80544448271E+02 0.  0.
        -11    1    3    3    0    0  0.47294760845E+01  0.21714091705E+02 -0.98650167892E+02  0.10112232863E+03  0.00000000000E+00 0.  1.
         12    1    3    3    0    0  0.18321949016E+03  0.11787262028E+03 -0.20925192543E+04  0.21038298804E+04  0.00000000000E+00 0. -1.
         11    1    5    5    0    0 -0.54765341747E+02 -0.22017995364E+02 -0.27138140965E+02  0.64965479076E+02  0.00000000000E+00 0. -1.
        -12    1    5    5    0    0 -0.20232838525E+02 -0.10162888214E+03 -0.97038477236E+02  0.14196571243E+03  0.00000000000E+00 0.  1.
          5    1    4    4  501    0 -0.10072428780E+03 -0.56035727546E+02 -0.92346671450E+02  0.14775237745E+03  0.41800000000E+01 0.  1.
         -5    1    4    4    0  501 -0.12226498179E+02  0.40095893066E+02 -0.99838001774E+02  0.10836174093E+03  0.41800000000E+01 0.  1.
</event>
<event>
11    1  0.8039394E-009  0.1899974E+03  0.7561462E-02  0.1061831E+00
         22   -1    0    0    0    0  0.00000000000E+00  0.00000000000E+00  0.57752679706E+02  0.57752679706E+02  0.00000000000E+00 0. -1.
         22   -1    0    0    0    0 -0.00000000000E+00 -0.00000000000E+00 -0.15225002535E+04  0.15225002535E+04  0.00000000000E+00 0. -1.
        -24    2    1    2    0    0 -0.42687432913E+02  0.22921967138E+02 -0.33568916026E+03  0.34874743817E+03  0.81178382632E+02 0.  0.
         25    2    1    2    0    0 -0.10298142515E+03 -0.51621027321E+02 -0.99891428059E+03  0.10132845797E+04  0.12508395196E+03 0.  0.
         24    2    1    2    0    0  0.14566885807E+03  0.28699060182E+02 -0.13014413290E+03  0.21822091533E+03  0.92950633633E+02 0.  0.
        -11    1    5    5    0    0  0.24779664886E+02  0.13340702131E+02  0.12343102249E+02  0.30730413247E+02  0.00000000000E+00 0.  1.
         12    1    5    5    0    0  0.12088919318E+03  0.15358358052E+02 -0.14248723515E+03  0.18749050208E+03  0.00000000000E+00 0. -1.
         13    1    3    3    0    0 -0.65690301573E+02  0.11963562198E+02 -0.27368096679E+03  0.28170838490E+03  0.00000000000E+00 0. -1.
        -14    1    3    3    0    0  0.23002868660E+02  0.10958404940E+02 -0.62008193477E+02  0.67039053273E+02  0.00000000000E+00 0.  1.
          5    1    4    4  501    0 -0.90132770014E+01  0.56121930055E+01 -0.58091631154E+03  0.58102837219E+03  0.41800000000E+01 0.  1.
         -5    1    4    4    0  501 -0.93968148151E+02 -0.57233220326E+02 -0.41799796905E+03  0.43225620748E+03  0.41800000000E+01 0.  1.
</event>
<event>
11    1  0.8039394E-009  0.1711527E+03  0.7561462E-02  0.1077033E+00
         22   -1    0    0    0    0  0.00000000000E+00  0.00000000000E+00  0.23904741178E+03  0.23904741178E+03  0.00000000000E+00 0.  1.
         22   -1    0    0    0    0 -0.00000000000E+00 -0.00000000000E+00 -0.67576244004E+03  0.67576244004E+03  0.00000000000E+00 0. -1.
         24    2    1    2    0    0  0.12126355158E+03 -0.43132784199E+02 -0.55270420138E+03  0.57316616286E+03  0.80450170942E+02 0.  0.
         25    2    1    2    0    0 -0.62679004740E+02 -0.86118610008E+01 -0.43490433805E+02  0.14677420123E+03  0.12509367102E+03 0.  0.
        -24    2    1    2    0    0 -0.58584546842E+02  0.51744645200E+02  0.15947960693E+03  0.19486948773E+03  0.80191737634E+02 0.  0.
        -13    1    3    3    0    0 -0.19938440500E+01  0.61473358359E+00 -0.14461922340E+03  0.14463427356E+03  0.00000000000E+00 0.  1.
         14    1    3    3    0    0  0.12325739563E+03 -0.43747517783E+02 -0.40808497798E+03  0.42853188930E+03  0.00000000000E+00 0. -1.
         13    1    5    5    0    0 -0.14150709091E+02  0.49256983504E+02  0.33415920464E+02  0.61181016109E+02  0.00000000000E+00 0. -1.
        -14    1    5    5    0    0 -0.44433837751E+02  0.24876616962E+01  0.12606368647E+03  0.13368847162E+03  0.00000000000E+00 0.  1.
          5    1    4    4  501    0 -0.49912728992E+02 -0.41654061013E+02  0.24819678188E+02  0.69712481950E+02  0.41800000000E+01 0. -1.
         -5    1    4    4    0  501 -0.12766275748E+02  0.33042200012E+02 -0.68310111994E+02  0.77061719282E+02  0.41800000000E+01 0. -1.
</event>
<event>
11    1  0.8039394E-009  0.1476357E+03  0.7561462E-02  0.1099319E+00
         22   -1    0    0    0    0  0.00000000000E+00  0.00000000000E+00  0.63569922959E+03  0.63569922959E+03  0.00000000000E+00 0.  1.
         22   -1    0    0    0    0 -0.00000000000E+00 -0.00000000000E+00 -0.88611330509E+03  0.88611330509E+03  0.00000000000E+00 0. -1.
         24    2    1    2    0    0  0.52258316649E+02  0.55930104002E+02 -0.76306305478E+03  0.77201254664E+03  0.88763947715E+02 0.  0.
         25    2    1    2    0    0 -0.39171267122E+02 -0.10520490258E+03 -0.52790465782E+02  0.17616564215E+03  0.12508013632E+03 0.  0.
        -24    2    1    2    0    0 -0.13087049527E+02  0.49274798582E+02  0.56543944506E+03  0.57363434588E+03  0.82068995989E+02 0.  0.
        -13    1    3    3    0    0 -0.79464947201E+01 -0.31069483930E+01 -0.64002447417E+01  0.10665975783E+02  0.00000000000E+00 0.  1.
         14    1    3    3    0    0  0.60204811369E+02  0.59037052395E+02 -0.75666281004E+03  0.76134657086E+03  0.00000000000E+00 0. -1.
         11    1    5    5    0    0  0.20056960374E+01 -0.22520435668E+02  0.10710501479E+03  0.10946541478E+03  0.00000000000E+00 0. -1.
        -12    1    5    5    0    0 -0.15092745564E+02  0.71795234250E+02  0.45833443027E+03  0.46416893110E+03  0.00000000000E+00 0.  1.
          5    1    4    4  501    0 -0.79147939417E+02 -0.93170005138E+02 -0.22393593896E+02  0.12435429876E+03  0.41800000000E+01 0. -1.
         -5    1    4    4    0  501  0.39976672295E+02 -0.12034897446E+02 -0.30396871886E+02  0.51811343399E+02  0.41800000000E+01 0. -1.
</event>
<event>
11    1  0.8039394E-009  0.1465234E+03  0.7561462E-02  0.1100485E+00
         22   -1    0    0    0    0  0.00000000000E+00  0.00000000000E+00  0.69946954973E+03  0.69946954973E+03  0.00000000000E+00 0.  1.
         22   -1    0    0    0    0 -0.00000000000E+00 -0.00000000000E+00 -0.12059623097E+04  0.12059623097E+04  0.00000000000E+00 0. -1.
         24    2    1    2    0    0 -0.10266522116E+02 -0.80963723891E+02 -0.99398307983E+03  0.10008619275E+04  0.84033974589E+02 0.  0.
         25    2    1    2    0    0  0.51597638782E+02  0.31719441168E+02 -0.18100425387E+03  0.22820817856E+03  0.12509194045E+03 0.  0.
        -24    2    1    2    0    0 -0.41331116666E+02  0.49244282723E+02  0.66849457372E+03  0.67636175337E+03  0.80292999345E+02 0.  0.
        -11    1    3    3    0    0  0.27051568024E+02 -0.14600364576E+02 -0.51012420269E+03  0.51104956722E+03  0.00000000000E+00 0.  1.
         12    1    3    3    0    0 -0.37318090141E+02 -0.66363359315E+02 -0.48385887713E+03  0.48981236029E+03  0.00000000000E+00 0. -1.
         11    1    5    5    0    0  0.55588696962E+01  0.51922663340E+02  0.26124193708E+03  0.26640986035E+03  0.00000000000E+00 0. -1.
        -12    1    5    5    0    0 -0.46889986362E+02 -0.26783806171E+01  0.40725263664E+03  0.40995189302E+03  0.00000000000E+00 0.  1.
          5    1    4    4  501    0 -0.28584830839E+02  0.42250666059E+02 -0.37564076831E+02  0.63488137512E+02  0.41800000000E+01 0. -1.
         -5    1    4    4    0  501  0.80182469621E+02 -0.10531224891E+02 -0.14344017704E+03  0.16472004104E+03  0.41800000000E+01 0. -1.
</event>
<event>
11    1  0.8039394E-009  0.1465564E+03  0.7561462E-02  0.1100450E+00
         22   -1    0    0    0    0  0.00000000000E+00  0.00000000000E+00  0.13255869418E+03  0.13255869418E+03  0.00000000000E+00 0. -1.
         22   -1    0    0    0    0 -0.00000000000E+00 -0.00000000000E+00 -0.75347448206E+03  0.75347448206E+03  0.00000000000E+00 0. -1.
         24    2    1    2    0    0  0.79039932007E+02 -0.17271048459E+02 -0.56423194995E+03  0.57577793367E+03  0.81344548615E+02 0.  0.
         25    2    1    2    0    0 -0.57093218245E+02 -0.15372398860E+02 -0.13365417385E+03  0.19236992674E+03  0.12508718684E+03 0.  0.
        -24    2    1    2    0    0 -0.21946713762E+02  0.32643447319E+02  0.76970335927E+02  0.11788531582E+03  0.80157733105E+02 0.  0.
        -13    1    3    3    0    0 -0.15616913596E+02 -0.25463384325E+01 -0.43060978942E+02  0.45876134723E+02  0.00000000000E+00 0.  1.
         14    1    3    3    0    0  0.94656845603E+02 -0.14724710027E+02 -0.52117097101E+03  0.52990179895E+03  0.00000000000E+00 0. -1.
         11    1    5    5    0    0 -0.47727393365E+02  0.24997687377E+01  0.53744407181E+02  0.71920888651E+02  0.00000000000E+00 0. -1.
        -12    1    5    5    0    0  0.25780679603E+02  0.30143678582E+02  0.23225928746E+02  0.45964427173E+02  0.00000000000E+00 0.  1.
          5    1    4    4  501    0 -0.61954993422E+02 -0.64001255948E+02 -0.90228739539E+02  0.12685929139E+03  0.41800000000E+01 0.  1.
         -5    1    4    4    0  501  0.48617751769E+01  0.48628857088E+02 -0.43425434307E+02  0.65510635352E+02  0.41800000000E+01 0.  1.
</event>
<event>
11    1  0.8039394E-009  0.1734932E+03  0.7561462E-02  0.1075031E+00
         22   -1    0    0    0    0  0.00000000000E+00  0.00000000000E+00  0.91237968420E+03  0.91237968420E+03  0.00000000000E+00 0.  1.
         22   -1    0    0    0    0 -0.00000000000E+00 -0.00000000000E+00 -0.30163426054E+04  0.30163426054E+04  0.00000000000E+00 0. -1.
        -24    2    1    2    0    0  0.38399861394E+02  0.11321054080E+03 -0.29327743339E+04  0.29362849087E+04  0.79451843310E+02 0.  0.
         25    2    1    2    0    0 -0.78542551319E+02 -0.16286764254E+03  0.75794635480E+02  0.23256520441E+03  0.12508775392E+03 0.  0.
         24    2    1    2    0    0  0.40142689925E+02  0.49657101736E+02  0.75301677725E+03  0.75987217648E+03  0.79335959408E+02 0.  0.
        -13    1    5    5    0    0  0.50462538485E+02  0.60744710127E+02  0.70766685156E+03  0.71205952026E+03  0.00000000000E+00 0.  1.
         14    1    5    5    0    0 -0.10319848560E+02 -0.11087608391E+02  0.45349925689E+02  0.47812656213E+02  0.00000000000E+00 0. -1.
         11    1    3    3    0    0  0.53973659190E+02  0.98466631654E+02 -0.27439501606E+04  0.27462467692E+04  0.00000000000E+00 0. -1.
        -12    1    3    3    0    0 -0.15573797795E+02  0.14743909149E+02 -0.18882417331E+03  0.19003813949E+03  0.00000000000E+00 0.  1.
          5    1    4    4  501    0 -0.31802802298E+02 -0.12546000209E+03 -0.77194738910E+01  0.12972545253E+03  0.41800000000E+01 0. -1.
         -5    1    4    4    0  501 -0.46739749021E+02 -0.37407640453E+02  0.83514109371E+02  0.10283975188E+03  0.41800000000E+01 0. -1.
</event>
<event>
11    1  0.8039394E-009  0.1292355E+03  0.7561462E-02  0.1120212E+00
         22   -1    0    0    0    0  0.00000000000E+00  0.00000000000E+00  0.69523749529E+03  0.69523749529E+03  0.00000000000E+00 0.  1.
         22   -1    0    0    0    0 -0.00000000000E+00 -0.00000000000E+00 -0.13796412845E+04  0.13796412845E+04  0.00000000000E+00 0.  1.
         24    2    1    2    0    0 -0.25578953159E+01  0.26597943902E+02 -0.12586554726E+04  0.12611257597E+04  0.74233345740E+02 0.  0.
         25    2    1    2    0    0 -0.70725712255E+01 -0.57042986360E+02 -0.76975414255E+02  0.15773262806E+03  0.12510173460E+03 0.  0.
        -24    2    1    2    0    0  0.96304665414E+01  0.30445042458E+02  0.65122709768E+03  0.65602039200E+03  0.72431867821E+02 0.  0.
        -11    1    3    3    0    0 -0.91893514704E+01  0.46204807805E+02 -0.11141465814E+04  0.11151421135E+04  0.00000000000E+00 0.  1.
         12    1    3    3    0    0  0.66314561545E+01 -0.19606863903E+02 -0.14450889118E+03  0.14598364618E+03  0.00000000000E+00 0. -1.
         13    1    5    5    0    0 -0.25240370920E+02 -0.85050650171E+01  0.24482410787E+03  0.24626866680E+03  0.00000000000E+00 0. -1.
        -14    1    5    5    0    0  0.34870837461E+02  0.38950107475E+02  0.40640298981E+03  0.40975172520E+03  0.00000000000E+00 0.  1.
          5    1    4    4  501    0  0.25328193544E+02 -0.36147028525E+02 -0.10224658798E+03  0.11144488419E+03  0.41800000000E+01 0.  1.
         -5    1    4    4    0  501 -0.32400764770E+02 -0.20895957835E+02  0.25271173722E+02  0.46287743872E+02  0.41800000000E+01 0.  1.
</event>
<event>
11    1  0.8039394E-009  0.1846779E+03  0.7561462E-02  0.1065921E+00
         22   -1    0    0    0    0  0.00000000000E+00  0.00000000000E+00  0.13271220960E+04  0.13271220960E+04  0.00000000000E+00 0. -1.
         22   -1    0    0    0    0 -0.00000000000E+00 -0.00000000000E+00 -0.54887385838E+03  0.54887385838E+03  0.00000000000E+00 0.  1.
         24    2    1    2    0    0 -0.11616290874E+03 -0.49579035051E+02 -0.38572455210E+03  0.41391487018E+03  0.81179970319E+02 0.  0.
         25    2    1    2    0    0  0.16376983833E+03  0.14873945107E+03 -0.34386911920E+02  0.25646358709E+03  0.12508847885E+03 0.  0.
        -24    2    1    2    0    0 -0.47606929590E+02 -0.99160416021E+02  0.11983597016E+04  0.12056174971E+04  0.73132530237E+02 0.  0.
        -11    1    3    3    0    0 -0.84612802667E+01 -0.30945827607E+01 -0.15331257205E+03  0.15357706357E+03  0.00000000000E+00 0.  1.
         12    1    3    3    0    0 -0.10770162847E+03 -0.46484452290E+02 -0.23241198005E+03  0.26033780661E+03  0.00000000000E+00 0. -1.
         11    1    5    5    0    0 -0.28190625978E+02 -0.89885530516E+02  0.11307265508E+04  0.11346438440E+04  0.00000000000E+00 0. -1.
        -12    1    5    5    0    0 -0.19416303613E+02 -0.92748855047E+01  0.67633150862E+02  0.70973653158E+02  0.00000000000E+00 0.  1.
          5    1    4    4  501    0  0.37340412832E+01  0.51110147607E+02 -0.45452225484E+02  0.68626288361E+02  0.41800000000E+01 0.  1.
         -5    1    4    4    0  501  0.16003579705E+03  0.97629303465E+02  0.11065313563E+02  0.18783729873E+03  0.41800000000E+01 0.  1.
</event>
<event>
11    1  0.8039394E-009  0.1480300E+03  0.7561462E-02  0.1098909E+00
         22   -1    0    0    0    0  0.00000000000E+00  0.00000000000E+00  0.25009761883E+03  0.25009761883E+03  0.00000000000E+00 0. -1.
         22   -1    0    0    0    0 -0.00000000000E+00 -0.00000000000E+00 -0.12968786593E+04  0.12968786593E+04  0.00000000000E+00 0.  1.
        -24    2    1    2    0    0 -0.59022385200E+02 -0.50565215960E+02 -0.91406722922E+03  0.92093205661E+03  0.80972034346E+02 0.  0.
         25    2    1    2    0    0  0.39214755917E+02  0.83879457216E+02 -0.35451812204E+03  0.38717525771E+03  0.12509204972E+03 0.  0.
         24    2    1    2    0    0  0.19807629283E+02 -0.33314241257E+02  0.22180431080E+03  0.23886896379E+03  0.79743643792E+02 0.  0.
        -13    1    5    5    0    0 -0.19708814498E+02 -0.11534580497E+02  0.15288167986E+02  0.27481120729E+02  0.00000000000E+00 0.  1.
         14    1    5    5    0    0  0.39516443781E+02 -0.21779660760E+02  0.20651614282E+03  0.21138784306E+03  0.00000000000E+00 0. -1.
         13    1    3    3    0    0 -0.30790882844E+02  0.18599433343E+02 -0.37329173386E+03  0.37502098069E+03  0.00000000000E+00 0. -1.
        -14    1    3    3    0    0 -0.28231502356E+02 -0.69164649303E+02 -0.54077549535E+03  0.54591107592E+03  0.00000000000E+00 0.  1.
          5    1    4    4  501    0  0.80432771848E+02  0.51264067671E+02 -0.28045914469E+03  0.29626380080E+03  0.41800000000E+01 0. -1.
         -5    1    4    4    0  501 -0.41218015930E+02  0.32615389546E+02 -0.74058977351E+02  0.90911456917E+02  0.41800000000E+01 0. -1.
</event>
<event>
11    1  0.8039394E-009  0.3559939E+03  0.7561462E-02  0.9789340E-01
         22   -1    0    0    0    0  0.00000000000E+00  0.00000000000E+00  0.88502829768E+03  0.88502829768E+03  0.00000000000E+00 0.  1.
         22   -1    0    0    0    0 -0.00000000000E+00 -0.00000000000E+00 -0.20215761626E+03  0.20215761626E+03  0.00000000000E+00 0.  1.
         24    2    1    2    0    0 -0.10374030896E+02 -0.10716755644E+03  0.10122773447E+03  0.16829574165E+03  0.80522647493E+02 0.  0.
         25    2    1    2    0    0 -0.31335514723E+03 -0.51002196095E+02  0.30416458817E+03  0.45711789046E+03  0.12509195329E+03 0.  0.
        -24    2    1    2    0    0  0.32372917813E+03  0.15816975254E+03  0.27747835878E+03  0.46177228184E+03  0.80132074066E+02 0.  0.
        -11    1    3    3    0    0 -0.21419257673E+02 -0.25329616225E+02  0.74412104394E+02  0.81471070557E+02  0.00000000000E+00 0.  1.
         12    1    3    3    0    0  0.11045226777E+02 -0.81837940216E+02  0.26815630081E+02  0.86824671090E+02  0.00000000000E+00 0. -1.
         13    1    5    5    0    0  0.13569807015E+03  0.51781408438E+02  0.15909360626E+03  0.21542064910E+03  0.00000000000E+00 0. -1.
        -14    1    5    5    0    0  0.18803110797E+03  0.10638834410E+03  0.11838475251E+03  0.24635163274E+03  0.00000000000E+00 0.  1.
          5    1    4    4  501    0 -0.84847761773E+02 -0.13262144692E+02  0.16720742414E+03  0.18801814340E+03  0.41800000000E+01 0. -1.
         -5    1    4    4    0  501 -0.22850738546E+03 -0.37740051403E+02  0.13695716403E+03  0.26909974706E+03  0.41800000000E+01 0. -1.
</event>
<event>
11    1  0.9187069E-009  0.1670604E+03  0.7561462E-02  0.1080619E+00
         22   -1    0    0    0    0  0.00000000000E+00  0.00000000000E+00  0.33813620892E+03  0.33813620892E+03  0.00000000000E+00 0.  1.
         22   -1    0    0    0    0 -0.00000000000E+00 -0.00000000000E+00 -0.76267122295E+03  0.76267122295E+03  0.00000000000E+00 0. -1.
        -24    2    1    2    0    0 -0.46928349550E+02 -0.10884132404E+01 -0.44160658378E+03  0.45161048406E+03  0.82049983800E+02 0.  0.
         25    2    1    2    0    0  0.15539595348E+03 -0.31556314463E+00 -0.26782113467E+03  0.33395267739E+03  0.12509287999E+03 0.  0.
         24    2    1    2    0    0 -0.10846760393E+03  0.14039763850E+01  0.28489270441E+03  0.31524427041E+03  0.80298846496E+02 0.  0.
        -11    1    5    5    0    0 -0.28601803477E+01 -0.38667956984E+01  0.11522069513E+03  0.11532103592E+03  0.00000000000E+00 0.  1.
         12    1    5    5    0    0 -0.10560742358E+03  0.52707720834E+01  0.16967200929E+03  0.19992323449E+03  0.00000000000E+00 0. -1.
         13    1    3    3    0    0 -0.30717111761E+02 -0.32342586421E+02 -0.35972836385E+03  0.36248321287E+03  0.00000000000E+00 0. -1.
        -14    1    3    3    0    0 -0.16211237789E+02  0.31254173181E+02 -0.81878219927E+02  0.89127271193E+02  0.00000000000E+00 0.  1.
          5    1    4    4  501    0  0.11629140774E+03 -0.57398224505E+02 -0.18469829420E+03  0.22571925033E+03  0.41800000000E+01 0.  1.
         -5    1    4    4    0  501  0.39104545738E+02  0.57082661361E+02 -0.83122840470E+02  0.10823342706E+03  0.41800000000E+01 0.  1.
</event>
<event>
11    1  0.8039394E-009  0.1367927E+03  0.7561462E-02  0.1111194E+00
         22   -1    0    0    0    0  0.00000000000E+00  0.00000000000E+00  0.18026182976E+03  0.18026182976E+03  0.00000000000E+00 0. -1.
         22   -1    0    0    0    0 -0.00000000000E+00 -0.00000000000E+00 -0.11836482495E+04  0.11836482495E+04  0.00000000000E+00 0. -1.
        -24    2    1    2    0    0 -0.46597578329E+01  0.55050198439E+02 -0.10632451272E+04  0.10676982521E+04  0.80231660263E+02 0.  0.
         25    2    1    2    0    0 -0.12800366368E+02 -0.58977858513E+02 -0.59528374105E+02  0.15110488407E+03  0.12508725552E+03 0.  0.
         24    2    1    2    0    0  0.17460124201E+02  0.39276600744E+01  0.11938708153E+03  0.14510694313E+03  0.80513770607E+02 0.  0.
        -11    1    5    5    0    0  0.10975665201E+02  0.41944976821E+02  0.54747382272E+02  0.69836395760E+02  0.00000000000E+00 0.  1.
         12    1    5    5    0    0  0.64844589995E+01 -0.38017316747E+02  0.64639699260E+02  0.75270547371E+02  0.00000000000E+00 0. -1.
         13    1    3    3    0    0  0.64071999121E+01  0.72289138226E+02 -0.93655504726E+03  0.93936261809E+03  0.00000000000E+00 0. -1.
        -14    1    3    3    0    0 -0.11066957745E+02 -0.17238939788E+02 -0.12669007990E+03  0.12833563396E+03  0.00000000000E+00 0.  1.
          5    1    4    4  501    0  0.39603728489E+02 -0.70748448236E+02 -0.18188492368E+02  0.83199109926E+02  0.41800000000E+01 0.  1.
         -5    1    4    4    0  501 -0.52404094856E+02  0.11770589722E+02 -0.41339881737E+02  0.67905774144E+02  0.41800000000E+01 0.  1.
</event>
<event>
11    1  0.8039394E-009  0.5021728E+03  0.7561462E-02  0.9388679E-01
         22   -1    0    0    0    0  0.00000000000E+00  0.00000000000E+00  0.11407756154E+04  0.11407756154E+04  0.00000000000E+00 0. -1.
         22   -1    0    0    0    0 -0.00000000000E+00 -0.00000000000E+00 -0.39039682708E+03  0.39039682708E+03  0.00000000000E+00 0. -1.
         24    2    1    2    0    0 -0.54701865024E+02 -0.46911568535E+02 -0.15137625607E+03  0.18589178311E+03  0.80299407375E+02 0.  0.
         25    2    1    2    0    0  0.49991820175E+03  0.13374516995E+03  0.55424440882E+03  0.76853063896E+03  0.12508596801E+03 0.  0.
        -24    2    1    2    0    0 -0.44521633673E+03 -0.86833601413E+02  0.34751063556E+03  0.57675002040E+03  0.78225848507E+02 0.  0.
        -11    1    3    3    0    0 -0.43968107417E+02  0.23113605301E+01 -0.26873303362E+02  0.51582083042E+02  0.00000000000E+00 0.  1.
         12    1    3    3    0    0 -0.10733757607E+02 -0.49222929065E+02 -0.12450295271E+03  0.13430970006E+03  0.00000000000E+00 0. -1.
         13    1    5    5    0    0 -0.40461479197E+03 -0.70201016248E+02  0.28298575896E+03  0.49872061551E+03  0.00000000000E+00 0. -1.
        -14    1    5    5    0    0 -0.40601544760E+02 -0.16632585166E+02  0.64524876604E+02  0.78029404886E+02  0.00000000000E+00 0.  1.
          5    1    4    4  501    0  0.31513674814E+03  0.12252070006E+03  0.42311485217E+03  0.54163284842E+03  0.41800000000E+01 0. -1.
         -5    1    4    4    0  501  0.18478145362E+03  0.11224469894E+02  0.13112955665E+03  0.22689779054E+03  0.41800000000E+01 0. -1.
</event>
<event>
11    1  0.8039394E-009  0.1379023E+03  0.7561462E-02  0.1109924E+00
         22   -1    0    0    0    0  0.00000000000E+00  0.00000000000E+00  0.14758312228E+04  0.14758312228E+04  0.00000000000E+00 0. -1.
         22   -1    0    0    0    0 -0.00000000000E+00 -0.00000000000E+00 -0.10713664587E+04  0.10713664587E+04  0.00000000000E+00 0.  1.
         24    2    1    2    0    0 -0.32739443573E+02  0.11351373603E+02 -0.85358587521E+03  0.85801711889E+03  0.79898717775E+02 0.  0.
         25    2    1    2    0    0  0.39074744596E+02 -0.68927849846E+02 -0.18820616760E+03  0.23947328282E+03  0.12509199620E+03 0.  0.
        -24    2    1    2    0    0 -0.63353010222E+01  0.57576476243E+02  0.14462568069E+04  0.14497072798E+04  0.81469374760E+02 0.  0.
        -11    1    3    3    0    0 -0.19318703250E+02  0.13659409765E+02 -0.83299252773E+03  0.83332847246E+03  0.00000000000E+00 0.  1.
         12    1    3    3    0    0 -0.13420740323E+02 -0.23080361622E+01 -0.20593347479E+02  0.24688646421E+02  0.00000000000E+00 0. -1.
         11    1    5    5    0    0 -0.15723582452E+02  0.64744045577E+02  0.14100367300E+04  0.14116099329E+04  0.00000000000E+00 0. -1.
        -12    1    5    5    0    0  0.93882814301E+01 -0.71675693337E+01  0.36220076875E+02  0.38097346984E+02  0.00000000000E+00 0.  1.
          5    1    4    4  501    0 -0.43178565428E+02 -0.64275825981E+01 -0.68075163619E+02  0.80977790981E+02  0.41800000000E+01 0. -1.
         -5    1    4    4    0  501  0.82253310024E+02 -0.62500267248E+02 -0.12013100398E+03  0.15849549184E+03  0.41800000000E+01 0. -1.
</event>
<event>
11    1  0.8039394E-009  0.1749556E+03  0.7561462E-02  0.1073798E+00
         22   -1    0    0    0    0  0.00000000000E+00  0.00000000000E+00  0.12399289519E+03  0.12399289519E+03  0.00000000000E+00 0.  1.
         22   -1    0    0    0    0 -0.00000000000E+00 -0.00000000000E+00 -0.99308942693E+03  0.99308942693E+03  0.00000000000E+00 0.  1.
        -24    2    1    2    0    0  0.51815876614E+02 -0.11200114819E+03 -0.76107974429E+03  0.77627946936E+03  0.90212499737E+02 0.  0.
         25    2    1    2    0    0 -0.56551113368E+02  0.10300282897E+03 -0.16885585423E+03  0.24075549764E+03  0.12507317433E+03 0.  0.
         24    2    1    2    0    0  0.47352367537E+01  0.89983192168E+01  0.60839066778E+02  0.10004735512E+03  0.78769848318E+02 0.  0.
        -13    1    5    5    0    0  0.33147111178E+02 -0.15049029281E+02  0.48889252291E+02  0.60953779632E+02  0.00000000000E+00 0.  1.
         14    1    5    5    0    0 -0.28411874424E+02  0.24047348498E+02  0.11949814486E+02  0.39093575487E+02  0.00000000000E+00 0. -1.
         13    1    3    3    0    0  0.70954386802E+02 -0.47088518305E+02 -0.43183027904E+03  0.44014684306E+03  0.00000000000E+00 0. -1.
        -14    1    3    3    0    0 -0.19138510187E+02 -0.64912629886E+02 -0.32924946526E+03  0.33613262630E+03  0.00000000000E+00 0.  1.
          5    1    4    4  501    0 -0.63136112343E+02  0.89195843072E+02 -0.18701750058E+03  0.21664506693E+03  0.41800000000E+01 0.  1.
         -5    1    4    4    0  501  0.65849989752E+01  0.13806985902E+02  0.18161646344E+02  0.24110430712E+02  0.41800000000E+01 0.  1.
</event>
<event>
11    1  0.8039394E-009  0.1469785E+03  0.7561462E-02  0.1100007E+00
         22   -1    0    0    0    0  0.00000000000E+00  0.00000000000E+00  0.50778006487E+03  0.50778006487E+03  0.00000000000E+00 0.  1.
         22   -1    0    0    0    0 -0.00000000000E+00 -0.00000000000E+00 -0.13535845421E+03  0.13535845421E+03  0.00000000000E+00 0.  1.
         24    2    1    2    0    0  0.38824128525E+02  0.20313097441E+02 -0.73375168102E+02  0.11581547901E+03  0.78162491015E+02 0.  0.
         25    2    1    2    0    0 -0.10536340756E+03 -0.23975492115E+02  0.19642459502E+03  0.25672245760E+03  0.12509007487E+03 0.  0.
        -24    2    1    2    0    0  0.66539279038E+02  0.36623946744E+01  0.24937218374E+03  0.27060058246E+03  0.81223767562E+02 0.  0.
        -13    1    3    3    0    0  0.24234866687E+02 -0.41864114257E+01 -0.82332485052E+02  0.85927253528E+02  0.00000000000E+00 0.  1.
         14    1    3    3    0    0  0.14589261838E+02  0.24499508866E+02  0.89573169506E+01  0.29888225485E+02  0.00000000000E+00 0. -1.
         13    1    5    5    0    0  0.75144497062E+02  0.16015362181E+02  0.13574505265E+03  0.15598046860E+03  0.00000000000E+00 0. -1.
        -14    1    5    5    0    0 -0.86052180243E+01 -0.12352967507E+02  0.11362713109E+03  0.11462011386E+03  0.00000000000E+00 0.  1.
          5    1    4    4  501    0 -0.50406898319E+01 -0.54302941660E+01 -0.17622327484E+02  0.19568226151E+02  0.41800000000E+01 0.  1.
         -5    1    4    4    0  501 -0.10032271773E+03 -0.18545197949E+02  0.21404692251E+03  0.23715423145E+03  0.41800000000E+01 0.  1.
</event>
<event>
11    1  0.8039394E-009  0.1417504E+03  0.7561462E-02  0.1105619E+00
         22   -1    0    0    0    0  0.00000000000E+00  0.00000000000E+00  0.13922200816E+04  0.13922200816E+04  0.00000000000E+00 0.  1.
         22   -1    0    0    0    0 -0.00000000000E+00 -0.00000000000E+00 -0.42330302216E+03  0.42330302216E+03  0.00000000000E+00 0.  1.
        -24    2    1    2    0    0 -0.63025105488E+02  0.20200251248E+00 -0.28205139424E+03  0.30012485678E+03  0.80930438895E+02 0.  0.
         25    2    1    2    0    0  0.84190849454E+02  0.69466173875E+01 -0.87450132754E+02  0.17444674616E+03  0.12509111440E+03 0.  0.
         24    2    1    2    0    0 -0.21165743966E+02 -0.71486199000E+01  0.13384185864E+04  0.13409515008E+04  0.79293906324E+02 0.  0.
        -13    1    5    5    0    0 -0.19870469520E+02  0.15892831529E+02  0.12221432296E+04  0.12224080707E+04  0.00000000000E+00 0.  1.
         14    1    5    5    0    0 -0.12952744461E+01 -0.23041451429E+02  0.11627535676E+03  0.11854343005E+03  0.00000000000E+00 0. -1.
         13    1    3    3    0    0 -0.62489743711E+01 -0.31945978890E+02 -0.14108076956E+03  0.14478735714E+03  0.00000000000E+00 0. -1.
        -14    1    3    3    0    0 -0.56776131117E+02  0.32147981403E+02 -0.14097062468E+03  0.15533749965E+03  0.00000000000E+00 0.  1.
          5    1    4    4  501    0  0.58207023173E+02  0.92183105180E+01  0.21094952165E+02  0.62733597078E+02  0.41800000000E+01 0.  1.
         -5    1    4    4    0  501  0.25983826282E+02 -0.22716931305E+01 -0.10854508492E+03  0.11171314908E+03  0.41800000000E+01 0.  1.
</event>
<event>
11    1  0.8039394E-009  0.1416263E+03  0.7561462E-02  0.1105756E+00
         22   -1    0    0    0    0  0.00000000000E+00  0.00000000000E+00  0.30214747427E+03  0.30214747427E+03  0.00000000000E+00 0.  1.
         22   -1    0    0    0    0 -0.00000000000E+00 -0.00000000000E+00 -0.11371709211E+04  0.11371709211E+04  0.00000000000E+00 0. -1.
         24    2    1    2    0    0 -0.65848009849E+02  0.68041819323E+01 -0.10420052863E+04  0.10472543418E+04  0.81144207635E+02 0.  0.
         25    2    1    2    0    0  0.74495175767E+02  0.18159523503E+02 -0.21659510240E+02  0.14829457649E+03  0.12507136974E+03 0.  0.
        -24    2    1    2    0    0 -0.86471659180E+01 -0.24963705436E+02  0.22864134972E+03  0.24376947706E+03  0.80303991654E+02 0.  0.
        -13    1    3    3    0    0 -0.35499095379E+02  0.13856376336E+02 -0.15200999102E+03  0.15671382296E+03  0.00000000000E+00 0.  1.
         14    1    3    3    0    0 -0.30348914469E+02 -0.70521944036E+01 -0.88999529526E+03  0.89054051880E+03  0.00000000000E+00 0. -1.
         11    1    5    5    0    0  0.21937699355E+02  0.63236240532E+01  0.19272336319E+02  0.29877647520E+02  0.00000000000E+00 0. -1.
        -12    1    5    5    0    0 -0.30584865273E+02 -0.31287329489E+02  0.20936901341E+03  0.21389182954E+03  0.00000000000E+00 0.  1.
          5    1    4    4  501    0  0.10464382490E+03  0.18172332762E+02 -0.39051555358E+02  0.11323895153E+03  0.41800000000E+01 0.  1.
         -5    1    4    4    0  501 -0.30148649130E+02 -0.12809259130E-01  0.17392045118E+02  0.35055624967E+02  0.41800000000E+01 0.  1.
</event>
<event>
11    1  0.8039394E-009  0.2030944E+03  0.7561462E-02  0.1052357E+00
         22   -1    0    0    0    0  0.00000000000E+00  0.00000000000E+00  0.30716629700E+04  0.30716629700E+04  0.00000000000E+00 0. -1.
         22   -1    0    0    0    0 -0.00000000000E+00 -0.00000000000E+00 -0.24606473214E+03  0.24606473214E+03  0.00000000000E+00 0. -1.
         24    2    1    2    0    0 -0.79101149615E+02 -0.14453662123E+03 -0.18080623870E+03  0.25772164725E+03  0.81127829758E+02 0.  0.
         25    2    1    2    0    0 -0.18417354418E+02  0.13999634961E+03  0.32523624187E+03  0.37600244261E+03  0.12514410484E+03 0.  0.
        -24    2    1    2    0    0  0.97518504033E+02  0.45402716210E+01  0.26811682347E+04  0.26840036123E+04  0.75377817163E+02 0.  0.
        -11    1    3    3    0    0 -0.49136528245E+02 -0.11838978613E+03 -0.84500928914E+02  0.15352832591E+03  0.00000000000E+00 0.  1.
         12    1    3    3    0    0 -0.29964621370E+02 -0.26146835096E+02 -0.96305309783E+02  0.10419332134E+03  0.00000000000E+00 0. -1.
         13    1    5    5    0    0  0.10823644845E+03 -0.58644580794E+01  0.23482520649E+04  0.23507524925E+04  0.00000000000E+00 0. -1.
        -14    1    5    5    0    0 -0.10717944420E+02  0.10404729700E+02  0.33291616978E+03  0.33325111978E+03  0.00000000000E+00 0.  1.
          5    1    4    4  501    0 -0.60457418389E+01  0.90000314756E+02  0.30886999406E+03  0.32179924375E+03  0.41800000000E+01 0.  1.
         -5    1    4    4    0  501 -0.12371612579E+02  0.49996034852E+02  0.16366247806E+02  0.54203198854E+02  0.41800000000E+01 0.  1.
</event>
<event>
11    1  0.8039394E-009  0.2091095E+03  0.7561462E-02  0.1048262E+00
         22   -1    0    0    0    0  0.00000000000E+00  0.00000000000E+00  0.31919596778E+03  0.31919596778E+03  0.00000000000E+00 0. -1.
         22   -1    0    0    0    0 -0.00000000000E+00 -0.00000000000E+00 -0.30832821628E+03  0.30832821628E+03  0.00000000000E+00 0. -1.
         24    2    1    2    0    0  0.31597603615E+02  0.98704963933E+02 -0.13883303139E+03  0.19147753195E+03  0.81534999716E+02 0.  0.
         25    2    1    2    0    0 -0.64024397206E+02 -0.21791187700E+03  0.12190214098E+03  0.28651999036E+03  0.12509541689E+03 0.  0.
        -24    2    1    2    0    0  0.32426793591E+02  0.11920691306E+03  0.27798641901E+02  0.14952666174E+03  0.79521525487E+02 0.  0.
        -11    1    3    3    0    0  0.14903607417E+02  0.10325000336E+03 -0.13946518448E+03  0.17416434305E+03  0.00000000000E+00 0.  1.
         12    1    3    3    0    0  0.16693996198E+02 -0.45450394249E+01  0.63215309346E+00  0.17313188902E+02  0.00000000000E+00 0. -1.
         13    1    5    5    0    0 -0.10192453286E+01  0.10853856463E+03  0.34278452166E+02  0.11382737437E+03  0.00000000000E+00 0. -1.
        -14    1    5    5    0    0  0.33446038920E+02  0.10668348430E+02 -0.64798102656E+01  0.35699287370E+02  0.00000000000E+00 0.  1.
          5    1    4    4  501    0 -0.88797790817E+02 -0.14852584047E+03  0.42736612211E+02  0.17829431669E+03  0.41800000000E+01 0. -1.
         -5    1    4    4    0  501  0.24773393611E+02 -0.69386036529E+02  0.79165528772E+02  0.10822567367E+03  0.41800000000E+01 0. -1.
</event>
<event>
11    1  0.8039394E-009  0.3964641E+03  0.7561462E-02  0.9660249E-01
         22   -1    0    0    0    0  0.00000000000E+00  0.00000000000E+00  0.93039102164E+03  0.93039102164E+03  0.00000000000E+00 0. -1.
         22   -1    0    0    0    0 -0.00000000000E+00 -0.00000000000E+00 -0.13911126413E+04  0.13911126413E+04  0.00000000000E+00 0.  1.
        -24    2    1    2    0    0 -0.24127573320E+03 -0.26423086524E+03 -0.76464959925E+03  0.84801738927E+03  0.80078419716E+02 0.  0.
         25    2    1    2    0    0  0.31967704593E+03  0.26370419271E+03 -0.49981650563E+03  0.66120889296E+03  0.12508935162E+03 0.  0.
         24    2    1    2    0    0 -0.78401312724E+02  0.52667253328E+00  0.80374448518E+03  0.81227738074E+03  0.87420264188E+02 0.  0.
        -11    1    5    5    0    0 -0.91658973991E+01 -0.76758153289E+01  0.10313853944E+02  0.15789471152E+02  0.00000000000E+00 0.  1.
         12    1    5    5    0    0 -0.69235415325E+02  0.82024878621E+01  0.79343063123E+03  0.79648790959E+03  0.00000000000E+00 0. -1.
         13    1    3    3    0    0 -0.75712443044E+01 -0.45352026857E+02 -0.11133736880E+03  0.12045804154E+03  0.00000000000E+00 0. -1.
        -14    1    3    3    0    0 -0.23370448890E+03 -0.21887883838E+03 -0.65331223044E+03  0.72755934773E+03  0.00000000000E+00 0.  1.
          5    1    4    4  501    0  0.60919112816E+02  0.11606411027E+03 -0.11420486223E+03  0.17390295844E+03  0.41800000000E+01 0. -1.
         -5    1    4    4    0  501  0.25875793311E+03  0.14764008244E+03 -0.38561164340E+03  0.48730593452E+03  0.41800000000E+01 0. -1.
</event>
<event>
11    1  0.8039394E-009  0.2329603E+03  0.7561462E-02  0.1033389E+00
         22   -1    0    0    0    0  0.00000000000E+00  0.00000000000E+00  0.79648241515E+03  0.79648241515E+03  0.00000000000E+00 0.  1.
         22   -1    0    0    0    0 -0.00000000000E+00 -0.00000000000E+00 -0.31697285830E+03  0.31697285830E+03  0.00000000000E+00 0.  1.
         24    2    1    2    0    0 -0.18129199243E+03  0.78990199821E+02 -0.23551783253E+03  0.31760860742E+03  0.79374680348E+02 0.  0.
         25    2    1    2    0    0  0.18815238880E+03 -0.30486324237E+02  0.34266353538E+03  0.41158005497E+03  0.12509638600E+03 0.  0.
        -24    2    1    2    0    0 -0.68603963643E+01 -0.48503875584E+02  0.37236385400E+03  0.38426661106E+03  0.81279134009E+02 0.  0.
        -11    1    3    3    0    0 -0.16062230856E+03  0.95291415622E+02 -0.20595343773E+03  0.27802301777E+03  0.00000000000E+00 0.  1.
         12    1    3    3    0    0 -0.20669683878E+02 -0.16301215801E+02 -0.29564394797E+02  0.39585589650E+02  0.00000000000E+00 0. -1.
         11    1    5    5    0    0  0.35294268143E+02 -0.23502441658E+02  0.22516165138E+03  0.22911966171E+03  0.00000000000E+00 0. -1.
        -12    1    5    5    0    0 -0.42154664508E+02 -0.25001433926E+02  0.14720220261E+03  0.15514694935E+03  0.00000000000E+00 0.  1.
          5    1    4    4  501    0  0.14107777092E+03 -0.16127426827E+02  0.12770945152E+03  0.19102410254E+03  0.41800000000E+01 0. -1.
         -5    1    4    4    0  501  0.47074617883E+02 -0.14358897410E+02  0.21495408386E+03  0.22055595243E+03  0.41800000000E+01 0. -1.
</event>
<event>
11    1  0.8039394E-009  0.1752590E+03  0.7561462E-02  0.1073544E+00
         22   -1    0    0    0    0  0.00000000000E+00  0.00000000000E+00  0.99229746408E+03  0.99229746408E+03  0.00000000000E+00 0. -1.
         22   -1    0    0    0    0 -0.00000000000E+00 -0.00000000000E+00 -0.74603414055E+03  0.74603414055E+03  0.00000000000E+00 0.  1.
        -24    2    1    2    0    0  0.38301519982E+02  0.83230222313E+02 -0.70701435596E+03  0.71753876657E+03  0.81229955383E+02 0.  0.
         25    2    1    2    0    0  0.56951493645E+02  0.27311602507E+02  0.17311019742E+03  0.22272019082E+03  0.12509095366E+03 0.  0.
         24    2    1    2    0    0 -0.95253013626E+02 -0.11054182482E+03  0.78016748207E+03  0.79807264725E+03  0.83462677649E+02 0.  0.
        -13    1    5    5    0    0 -0.64899746986E+01  0.96946896561E+00  0.21867858313E+03  0.21877701515E+03  0.00000000000E+00 0.  1.
         14    1    5    5    0    0 -0.88763038928E+02 -0.11151129379E+03  0.56148889895E+03  0.57929563209E+03  0.00000000000E+00 0. -1.
         11    1    3    3    0    0 -0.79640365373E+01  0.56003337025E+02 -0.20496391880E+03  0.21262645096E+03  0.00000000000E+00 0. -1.
        -12    1    3    3    0    0  0.46265556519E+02  0.27226885288E+02 -0.50205043716E+03  0.50491231561E+03  0.00000000000E+00 0.  1.
          5    1    4    4  501    0  0.70676674692E+02 -0.32977074200E+02  0.99661897539E+02  0.12662008525E+03  0.41800000000E+01 0.  1.
         -5    1    4    4    0  501 -0.13725181047E+02  0.60288676707E+02  0.73448299880E+02  0.96100105563E+02  0.41800000000E+01 0.  1.
</event>
<event>
11    1  0.8039394E-009  0.1622951E+03  0.7561462E-02  0.1084938E+00
         22   -1    0    0    0    0  0.00000000000E+00  0.00000000000E+00  0.11395497579E+04  0.11395497579E+04  0.00000000000E+00 0.  1.
         22   -1    0    0    0    0 -0.00000000000E+00 -0.00000000000E+00 -0.44354571446E+03  0.44354571446E+03  0.00000000000E+00 0.  1.
        -24    2    1    2    0    0 -0.25576443809E+02 -0.10062019298E+03 -0.41381078321E+03  0.43303622078E+03  0.74178342470E+02 0.  0.
         25    2    1    2    0    0  0.72301941215E+02  0.71000639716E+02  0.36553112848E+03  0.39941017113E+03  0.12508723902E+03 0.  0.
         24    2    1    2    0    0 -0.46725497406E+02  0.29619553263E+02  0.74428369816E+03  0.75064908044E+03  0.80344437166E+02 0.  0.
        -13    1    5    5    0    0 -0.69267452937E+02  0.26629653299E+02  0.53199176331E+03  0.53714276939E+03  0.00000000000E+00 0.  1.
         14    1    5    5    0    0  0.22541955531E+02  0.29898999641E+01  0.21229193484E+03  0.21350631105E+03  0.00000000000E+00 0. -1.
         11    1    3    3    0    0 -0.14430237699E+02 -0.47848417647E+02 -0.76086766917E+02  0.91032405940E+02  0.00000000000E+00 0. -1.
        -12    1    3    3    0    0 -0.11146206110E+02 -0.52771775332E+02 -0.33772401629E+03  0.34200381484E+03  0.00000000000E+00 0.  1.
          5    1    4    4  501    0 -0.15400346585E+02  0.54029945835E+02  0.65800073933E+02  0.86622906044E+02  0.41800000000E+01 0.  1.
         -5    1    4    4    0  501  0.87702287800E+02  0.16970693881E+02  0.29973105455E+03  0.31278726508E+03  0.41800000000E+01 0.  1.
</event>
<event>
11    1  0.8039394E-009  0.1782075E+03  0.7561462E-02  0.1071102E+00
         22   -1    0    0    0    0  0.00000000000E+00  0.00000000000E+00  0.37787789973E+04  0.37787789973E+04  0.00000000000E+00 0. -1.
         22   -1    0    0    0    0 -0.00000000000E+00 -0.00000000000E+00 -0.20529887488E+04  0.20529887488E+04  0.00000000000E+00 0. -1.
         24    2    1    2    0    0  0.12441648298E+03 -0.35310251323E+02 -0.18275129869E+04  0.18338435177E+04  0.80324685115E+02 0.  0.
         25    2    1    2    0    0 -0.85242662823E+02  0.73076435870E+02 -0.18982922947E+03  0.25355262036E+03  0.12508923969E+03 0.  0.
        -24    2    1    2    0    0 -0.39173820156E+02 -0.37766184548E+02  0.37431324648E+04  0.37443716080E+04  0.79480921921E+02 0.  0.
        -11    1    3    3    0    0  0.50556763388E+02  0.21638976918E+02 -0.48832171982E+03  0.49140852017E+03  0.00000000000E+00 0.  1.
         12    1    3    3    0    0  0.73859719591E+02 -0.56949228240E+02 -0.13391912671E+04  0.13424349975E+04  0.00000000000E+00 0. -1.
         13    1    5    5    0    0  0.62348473332E+01  0.15625543628E+02  0.16101110310E+04  0.16101989204E+04  0.00000000000E+00 0. -1.
        -14    1    5    5    0    0 -0.45408667489E+02 -0.53391728176E+02  0.21330214338E+04  0.21341726877E+04  0.00000000000E+00 0.  1.
          5    1    4    4  501    0  0.50768506091E+01  0.61518721587E+02 -0.13152189376E+03  0.14534719968E+03  0.41800000000E+01 0.  1.
         -5    1    4    4    0  501 -0.90319513432E+02  0.11557714283E+02 -0.58307335714E+02  0.10820542068E+03  0.41800000000E+01 0.  1.
</event>
<event>
11    1  0.8039394E-009  0.1323310E+03  0.7561462E-02  0.1116438E+00
         22   -1    0    0    0    0  0.00000000000E+00  0.00000000000E+00  0.24844474935E+04  0.24844474935E+04  0.00000000000E+00 0. -1.
         22   -1    0    0    0    0 -0.00000000000E+00 -0.00000000000E+00 -0.43538845198E+03  0.43538845198E+03  0.00000000000E+00 0. -1.
         24    2    1    2    0    0  0.24459422973E+02 -0.34353298466E+02 -0.38737874403E+03  0.39747833330E+03  0.78411234042E+02 0.  0.
         25    2    1    2    0    0 -0.60507178972E+02  0.39773414064E+02  0.81758378238E+02  0.16605686788E+03  0.12508959902E+03 0.  0.
        -24    2    1    2    0    0  0.36047755999E+02 -0.54201155977E+01  0.23546794073E+04  0.23563007443E+04  0.79430900726E+02 0.  0.
        -13    1    3    3    0    0 -0.36219978677E+01  0.66381227490E+01 -0.26884899577E+03  0.26895532356E+03  0.00000000000E+00 0.  1.
         14    1    3    3    0    0  0.28081420841E+02 -0.40991421215E+02 -0.11852974826E+03  0.12852300974E+03  0.00000000000E+00 0. -1.
         13    1    5    5    0    0  0.18810061771E+02  0.80092721715E+01  0.21990233800E+04  0.21991184126E+04  0.00000000000E+00 0. -1.
        -14    1    5    5    0    0  0.17237694228E+02 -0.13429387769E+02  0.15565602733E+03  0.15718233171E+03  0.00000000000E+00 0.  1.
          5    1    4    4  501    0 -0.97391450823E+02  0.12841990401E+02  0.61069812330E+02  0.11574543528E+03  0.41800000000E+01 0.  1.
         -5    1    4    4    0  501  0.36884271850E+02  0.26931423663E+02  0.20688565908E+02  0.50311432595E+02  0.41800000000E+01 0.  1.
</event>
<event>
11    1  0.8039394E-009  0.2128995E+03  0.7561462E-02  0.1045759E+00
         22   -1    0    0    0    0  0.00000000000E+00  0.00000000000E+00  0.54630551439E+03  0.54630551439E+03  0.00000000000E+00 0.  1.
         22   -1    0    0    0    0 -0.00000000000E+00 -0.00000000000E+00 -0.21099383111E+04  0.21099383111E+04  0.00000000000E+00 0. -1.
         24    2    1    2    0    0 -0.43457647725E+02  0.16448733416E+03 -0.18749550990E+04  0.18843416092E+04  0.79636844302E+02 0.  0.
         25    2    1    2    0    0  0.30954938180E+02 -0.19927453517E+03 -0.16408225608E+03  0.28851312938E+03  0.12509312730E+03 0.  0.
        -24    2    1    2    0    0  0.12502709545E+02  0.34787201008E+02  0.47540455836E+03  0.48338908684E+03  0.79303518643E+02 0.  0.
        -13    1    3    3    0    0  0.54116464042E+01  0.12000405223E+03 -0.10859164455E+04  0.10925405187E+04  0.00000000000E+00 0.  1.
         14    1    3    3    0    0 -0.48869294129E+02  0.44483281930E+02 -0.78903865349E+03  0.79180109054E+03  0.00000000000E+00 0. -1.
         11    1    5    5    0    0  0.88678635357E+01 -0.19972199640E+02  0.51466042119E+02  0.55913158143E+02  0.00000000000E+00 0. -1.
        -12    1    5    5    0    0  0.36348460091E+01  0.54759400648E+02  0.42393851624E+03  0.42747592870E+03  0.00000000000E+00 0.  1.
          5    1    4    4  501    0  0.39779860524E+02 -0.17253307220E+03 -0.18273416042E+03  0.25447857295E+03  0.41800000000E+01 0.  1.
         -5    1    4    4    0  501 -0.88249223441E+01 -0.26741462966E+02  0.18651904335E+02  0.34034556428E+02  0.41800000000E+01 0.  1.
</event>
<event>
11    1  0.8039394E-009  0.1742899E+03  0.7561462E-02  0.1074358E+00
         22   -1    0    0    0    0  0.00000000000E+00  0.00000000000E+00  0.42886198467E+03  0.42886198467E+03  0.00000000000E+00 0. -1.
         22   -1    0    0    0    0 -0.00000000000E+00 -0.00000000000E+00 -0.12514692847E+04  0.12514692847E+04  0.00000000000E+00 0. -1.
         24    2    1    2    0    0  0.55095623674E+02  0.32067417152E+02 -0.11293205346E+04  0.11340334108E+04  0.81259214926E+02 0.  0.
         25    2    1    2    0    0  0.73117940973E+02 -0.19604933659E+02 -0.53102582434E+02  0.15554212728E+03  0.12507150908E+03 0.  0.
        -24    2    1    2    0    0 -0.12821356465E+03 -0.12462483494E+02  0.35981581696E+03  0.39075573130E+03  0.81416139416E+02 0.  0.
        -13    1    3    3    0    0 -0.52812620321E+01  0.66598554444E+01 -0.11525743075E+02  0.14320899296E+02  0.00000000000E+00 0.  1.
         14    1    3    3    0    0  0.60376885706E+02  0.25407561708E+02 -0.11177947915E+04  0.11197125115E+04  0.00000000000E+00 0. -1.
         13    1    5    5    0    0 -0.53110538642E+02 -0.25301172150E+02  0.25173847570E+03  0.25852106061E+03  0.00000000000E+00 0. -1.
        -14    1    5    5    0    0 -0.75103026005E+02  0.12838688657E+02  0.10807734126E+03  0.13223467070E+03  0.00000000000E+00 0.  1.
          5    1    4    4  501    0  0.18689924083E+02 -0.67951088487E+02 -0.11319484367E+02  0.71500117589E+02  0.41800000000E+01 0.  1.
         -5    1    4    4    0  501  0.54428016890E+02  0.48346154829E+02 -0.41783098067E+02  0.84042009694E+02  0.41800000000E+01 0.  1.
</event>
<event>
11    1  0.8039394E-009  0.1771918E+03  0.7561462E-02  0.1071937E+00
         22   -1    0    0    0    0  0.00000000000E+00  0.00000000000E+00  0.87972811942E+03  0.87972811942E+03  0.00000000000E+00 0. -1.
         22   -1    0    0    0    0 -0.00000000000E+00 -0.00000000000E+00 -0.24093195739E+03  0.24093195739E+03  0.00000000000E+00 0.  1.
        -24    2    1    2    0    0  0.60778560118E+01 -0.75505794341E+02 -0.16726622829E+03  0.20023217988E+03  0.79855303036E+02 0.  0.
         25    2    1    2    0    0 -0.11368066177E+03  0.12863242089E+03  0.17807486413E+03  0.27718089567E+03  0.12509595969E+03 0.  0.
         24    2    1    2    0    0  0.10760280576E+03 -0.53126626544E+02  0.62798752619E+03  0.64324700125E+03  0.70693488488E+02 0.  0.
        -11    1    5    5    0    0  0.55830784268E+01 -0.19105337370E+02  0.32381266630E+02  0.38009618642E+02  0.00000000000E+00 0.  1.
         12    1    5    5    0    0  0.10201972733E+03 -0.34021289174E+02  0.59560625956E+03  0.60523738261E+03  0.00000000000E+00 0. -1.
         13    1    3    3    0    0 -0.22536606506E+01  0.10598164230E+02 -0.66720295972E+02  0.67594363419E+02  0.00000000000E+00 0. -1.
        -14    1    3    3    0    0  0.83315166625E+01 -0.86103958571E+02 -0.10054593231E+03  0.13263781646E+03  0.00000000000E+00 0.  1.
          5    1    4    4  501    0 -0.61151611550E+02  0.29404385101E+02  0.14486510141E+03  0.16002345911E+03  0.41800000000E+01 0. -1.
         -5    1    4    4    0  501 -0.52529050217E+02  0.99228035784E+02  0.33209762712E+02  0.11715743656E+03  0.41800000000E+01 0. -1.
</event>
<event>
11    1  0.8039394E-009  0.1579534E+03  0.7561462E-02  0.1089018E+00
         22   -1    0    0    0    0  0.00000000000E+00  0.00000000000E+00  0.15547329653E+03  0.15547329653E+03  0.00000000000E+00 0. -1.
         22   -1    0    0    0    0 -0.00000000000E+00 -0.00000000000E+00 -0.11028422377E+04  0.11028422377E+04  0.00000000000E+00 0.  1.
        -24    2    1    2    0    0 -0.12704046635E+02 -0.41196626538E+01 -0.70195912786E+03  0.70673772300E+03  0.80952007430E+02 0.  0.
         25    2    1    2    0    0 -0.35466505536E+02  0.87914744228E+02 -0.35272040007E+03  0.38606192629E+03  0.12508099393E+03 0.  0.
         24    2    1    2    0    0  0.48170552171E+02 -0.83795081575E+02  0.10731058671E+03  0.16551588498E+03  0.80857457098E+02 0.  0.
        -11    1    5    5    0    0  0.37099283009E+02 -0.87831589290E+02  0.51282404270E+02  0.10826185785E+03  0.00000000000E+00 0.  1.
         12    1    5    5    0    0  0.11071269162E+02  0.40365077154E+01  0.56028182440E+02  0.57254027133E+02  0.00000000000E+00 0. -1.
         13    1    3    3    0    0 -0.46303885897E+02  0.51402058392E+01 -0.35840214976E+03  0.36141744911E+03  0.00000000000E+00 0. -1.
        -14    1    3    3    0    0  0.33599839262E+02 -0.92598684930E+01 -0.34355697810E+03  0.34532027389E+03  0.00000000000E+00 0.  1.
          5    1    4    4  501    0 -0.36095626948E+02  0.35360113913E+02 -0.29686681098E+02  0.58753752010E+02  0.41800000000E+01 0. -1.
         -5    1    4    4    0  501  0.62912141180E+00  0.52554630316E+02 -0.32303371897E+03  0.32730817428E+03  0.41800000000E+01 0. -1.
</event>
<event>
11    1  0.8039394E-009  0.1355519E+03  0.7561462E-02  0.1112630E+00
         22   -1    0    0    0    0  0.00000000000E+00  0.00000000000E+00  0.13816610787E+04  0.13816610787E+04  0.00000000000E+00 0.  1.
         22   -1    0    0    0    0 -0.00000000000E+00 -0.00000000000E+00 -0.10680838234E+03  0.10680838234E+03  0.00000000000E+00 0. -1.
        -24    2    1    2    0    0  0.25638655875E+02 -0.47608663460E+02 -0.97852600959E+01  0.95585499073E+02  0.78210682175E+02 0.  0.
         25    2    1    2    0    0 -0.14175949383E+02  0.47110293164E+02  0.32753706615E+02  0.13835103520E+03  0.12509143208E+03 0.  0.
         24    2    1    2    0    0 -0.11462706492E+02  0.49837029607E+00  0.12518842498E+04  0.12545329267E+04  0.80666271429E+02 0.  0.
        -11    1    5    5    0    0 -0.27233074358E+02  0.22268864550E+01  0.11992134387E+04  0.11995246855E+04  0.00000000000E+00 0.  1.
         12    1    5    5    0    0  0.15770367866E+02 -0.17285161590E+01  0.52670811067E+02  0.55008241284E+02  0.00000000000E+00 0. -1.
         13    1    3    3    0    0  0.51510564332E+02 -0.25245819664E+02 -0.18538606390E+02  0.60285732767E+02  0.00000000000E+00 0. -1.
        -14    1    3    3    0    0 -0.25871908457E+02 -0.22362843797E+02  0.87533462946E+01  0.35299766306E+02  0.00000000000E+00 0.  1.
          5    1    4    4  501    0 -0.25936053602E+02  0.20267905409E+02  0.77725223591E+02  0.84511239776E+02  0.41800000000E+01 0.  1.
         -5    1    4    4    0  501  0.11760104219E+02  0.26842387755E+02 -0.44971516976E+02  0.53839795419E+02  0.41800000000E+01 0.  1.
</event>
<event>
11    1  0.9582621E-009  0.1621407E+03  0.7561462E-02  0.1085081E+00
         22   -1    0    0    0    0  0.00000000000E+00  0.00000000000E+00  0.10850857752E+04  0.10850857752E+04  0.00000000000E+00 0.  1.
         22   -1    0    0    0    0 -0.00000000000E+00 -0.00000000000E+00 -0.91342200258E+03  0.91342200258E+03  0.00000000000E+00 0. -1.
         24    2    1    2    0    0 -0.18053074116E+02  0.39510931170E+02 -0.80480928741E+03  0.81070706199E+03  0.87412379539E+02 0.  0.
         25    2    1    2    0    0 -0.26940815671E+01  0.63286069056E+02 -0.52911952908E+02  0.14986612077E+03  0.12509114590E+03 0.  0.
        -24    2    1    2    0    0  0.20747155683E+02 -0.10279700023E+03  0.10293850130E+04  0.10379345951E+04  0.81713223826E+02 0.  0.
        -11    1    3    3    0    0  0.92450691939E+01  0.31094124758E+02 -0.96199680921E+02  0.10152189177E+03  0.00000000000E+00 0.  1.
         12    1    3    3    0    0 -0.27298143310E+02  0.84168064120E+01 -0.70860960649E+03  0.70918517023E+03  0.00000000000E+00 0. -1.
         13    1    5    5    0    0  0.78245998674E+01 -0.37366147485E+02  0.11605973189E+03  0.12217739033E+03  0.00000000000E+00 0. -1.
        -14    1    5    5    0    0  0.12922555816E+02 -0.65430852741E+02  0.91332528109E+03  0.91575720473E+03  0.00000000000E+00 0.  1.
          5    1    4    4  501    0  0.21125130038E+02  0.27180034061E+02  0.36565679433E+02  0.50393915140E+02  0.41800000000E+01 0. -1.
         -5    1    4    4    0  501 -0.23819211605E+02  0.36106034994E+02 -0.89477632341E+02  0.99472205635E+02  0.41800000000E+01 0. -1.
</event>
<event>
11    1  0.8039394E-009  0.1322080E+03  0.7561462E-02  0.1116585E+00
         22   -1    0    0    0    0  0.00000000000E+00  0.00000000000E+00  0.29411252094E+03  0.29411252094E+03  0.00000000000E+00 0.  1.
         22   -1    0    0    0    0 -0.00000000000E+00 -0.00000000000E+00 -0.67799432830E+03  0.67799432830E+03  0.00000000000E+00 0.  1.
        -24    2    1    2    0    0 -0.22440321699E+02 -0.40337758242E+02 -0.47045449071E+03  0.47933194832E+03  0.79378750766E+02 0.  0.
         25    2    1    2    0    0  0.37391992616E+02  0.75310251011E+01 -0.17442626457E+03  0.21800180536E+03  0.12508152508E+03 0.  0.
         24    2    1    2    0    0 -0.14951670917E+02  0.32806733141E+02  0.26099894792E+03  0.27477309557E+03  0.77974156165E+02 0.  0.
        -11    1    5    5    0    0 -0.10425934511E+02  0.63130691009E+01  0.24090902426E+03  0.24121714890E+03  0.00000000000E+00 0.  1.
         12    1    5    5    0    0 -0.45257364061E+01  0.26493664040E+02  0.20089923660E+02  0.33555946670E+02  0.00000000000E+00 0. -1.
         11    1    3    3    0    0  0.20070967345E+02 -0.32524950804E+02 -0.33439147482E+03  0.33656852881E+03  0.00000000000E+00 0. -1.
        -12    1    3    3    0    0 -0.42511289044E+02 -0.78128074381E+01 -0.13606301588E+03  0.14276341950E+03  0.00000000000E+00 0.  1.
          5    1    4    4  501    0  0.47517150244E+02 -0.32830703397E+02 -0.16536358934E+03  0.17520937113E+03  0.41800000000E+01 0.  1.
         -5    1    4    4    0  501 -0.10125157628E+02  0.40361728498E+02 -0.90626752279E+01  0.42792434222E+02  0.41800000000E+01 0.  1.
</event>
<event>
11    1  0.8039394E-009  0.1309722E+03  0.7561462E-02  0.1118080E+00
         22   -1    0    0    0    0  0.00000000000E+00  0.00000000000E+00  0.58958278898E+03  0.58958278898E+03  0.00000000000E+00 0.  1.
         22   -1    0    0    0    0 -0.00000000000E+00 -0.00000000000E+00 -0.52039198669E+03  0.52039198669E+03  0.00000000000E+00 0.  1.
        -24    2    1    2    0    0  0.85742995767E+00 -0.61790681700E+00 -0.44596127844E+03  0.45354357179E+03  0.82578403065E+02 0.  0.
         25    2    1    2    0    0 -0.39232969346E+02 -0.50851614848E+01 -0.24235461755E+01  0.13121087499E+03  0.12508131511E+03 0.  0.
         24    2    1    2    0    0  0.38375539388E+02  0.57030683018E+01  0.51757562691E+03  0.52522032889E+03  0.80415528964E+02 0.  0.
        -13    1    5    5    0    0  0.35498348590E+02 -0.22710094640E+02  0.44847834036E+03  0.45045388546E+03  0.00000000000E+00 0.  1.
         14    1    5    5    0    0  0.28771907980E+01  0.28413162942E+02  0.69097286545E+02  0.74766443430E+02  0.00000000000E+00 0. -1.
         11    1    3    3    0    0  0.12884716654E+02  0.33032731183E+01 -0.82555690752E+01  0.15655093654E+02  0.00000000000E+00 0. -1.
        -12    1    3    3    0    0 -0.12027286696E+02 -0.39211799353E+01 -0.43770570936E+03  0.43788847814E+03  0.00000000000E+00 0.  1.
          5    1    4    4  501    0  0.36794128751E+02  0.73302678491E+01  0.29309586403E+02  0.47791892538E+02  0.41800000000E+01 0. -1.
         -5    1    4    4    0  501 -0.76027098096E+02 -0.12415429334E+02 -0.31733132578E+02  0.83418982454E+02  0.41800000000E+01 0. -1.
</event>
<event>
11    1  0.8039394E-009  0.1620032E+03  0.7561462E-02  0.1085208E+00
         22   -1    0    0    0    0  0.00000000000E+00  0.00000000000E+00  0.35017037398E+03  0.35017037398E+03  0.00000000000E+00 0.  1.
         22   -1    0    0    0    0 -0.00000000000E+00 -0.00000000000E+00 -0.11645376487E+04  0.11645376487E+04  0.00000000000E+00 0. -1.
         24    2    1    2    0    0 -0.31677540852E+02 -0.28569888835E+02 -0.84031701534E+03  0.84541656117E+03  0.82321142461E+02 0.  0.
         25    2    1    2    0    0  0.11484377928E+03  0.86436968704E+02 -0.27994569024E+03  0.33864015713E+03  0.12508846205E+03 0.  0.
        -24    2    1    2    0    0 -0.83166238423E+02 -0.57867079869E+02  0.30589543089E+03  0.33065130435E+03  0.74115101552E+02 0.  0.
        -13    1    3    3    0    0 -0.82999220345E+01 -0.73316551222E+01 -0.11383787212E+02  0.15881828733E+02  0.00000000000E+00 0.  1.
         14    1    3    3    0    0 -0.23377618817E+02 -0.21238233713E+02 -0.82893322813E+03  0.82953473244E+03  0.00000000000E+00 0. -1.
         13    1    5    5    0    0 -0.38279618001E+02  0.74542913269E+01  0.15927834617E+03  0.16398319174E+03  0.00000000000E+00 0. -1.
        -14    1    5    5    0    0 -0.44886620423E+02 -0.65321371196E+02  0.14661708472E+03  0.16666811261E+03  0.00000000000E+00 0.  1.
          5    1    4    4  501    0 -0.15330556504E+02  0.30988861210E+02 -0.12047450563E+03  0.12540699497E+03  0.41800000000E+01 0.  1.
         -5    1    4    4    0  501  0.13017433578E+03  0.55448107494E+02 -0.15947118462E+03  0.21323316216E+03  0.41800000000E+01 0.  1.
</event>
<event>
11    1  0.8039394E-009  0.1388286E+03  0.7561462E-02  0.1108874E+00
         22   -1    0    0    0    0  0.00000000000E+00  0.00000000000E+00  0.25585133749E+03  0.25585133749E+03  0.00000000000E+00 0.  1.
         22   -1    0    0    0    0 -0.00000000000E+00 -0.00000000000E+00 -0.21153590265E+03  0.21153590265E+03  0.00000000000E+00 0. -1.
        -24    2    1    2    0    0 -0.73830114126E+01  0.12925328322E+02 -0.12832773404E+03  0.15237522536E+03  0.80799931989E+02 0.  0.
         25    2    1    2    0    0  0.65569809031E+02 -0.40022386405E+01  0.37207944780E+02  0.14610927253E+03  0.12509224834E+03 0.  0.
         24    2    1    2    0    0 -0.58186797618E+02 -0.89230896811E+01  0.13543522410E+03  0.16890274225E+03  0.81976286005E+02 0.  0.
        -11    1    5    5    0    0 -0.57388824203E+02 -0.26525898442E+02  0.13732624204E+03  0.15118067729E+03  0.00000000000E+00 0.  1.
         12    1    5    5    0    0 -0.79797341551E+00  0.17602808761E+02 -0.18910179416E+01  0.17722064967E+02  0.00000000000E+00 0. -1.
         11    1    3    3    0    0 -0.31582822644E+02 -0.22789533185E+02 -0.64066457972E+02  0.74975653021E+02  0.00000000000E+00 0. -1.
        -12    1    3    3    0    0  0.24199811231E+02  0.35714861506E+02 -0.64261276065E+02  0.77399572334E+02  0.00000000000E+00 0.  1.
          5    1    4    4  501    0 -0.60984083946E+00  0.29045736359E+01 -0.42151205629E+02  0.42461806248E+02  0.41800000000E+01 0.  1.
         -5    1    4    4    0  501  0.66179649871E+02 -0.69068122764E+01  0.79359150409E+02  0.10364746628E+03  0.41800000000E+01 0.  1.
</event>
<event>
11    1  0.8039394E-009  0.2304182E+03  0.7561462E-02  0.1034881E+00
         22   -1    0    0    0    0  0.00000000000E+00  0.00000000000E+00  0.36218919694E+03  0.36218919694E+03  0.00000000000E+00 0. -1.
         22   -1    0    0    0    0 -0.00000000000E+00 -0.00000000000E+00 -0.80505810862E+03  0.80505810862E+03  0.00000000000E+00 0. -1.
        -24    2    1    2    0    0 -0.72717711768E+02  0.12677941089E+02 -0.32693736260E+03  0.34470575314E+03  0.80532114005E+02 0.  0.
         25    2    1    2    0    0 -0.60127240261E+02 -0.15728960215E+03 -0.40964184350E+03  0.46022729508E+03  0.12508964475E+03 0.  0.
         24    2    1    2    0    0  0.13284495203E+03  0.14461166106E+03  0.29371029442E+03  0.36231425735E+03  0.80284308752E+02 0.  0.
        -13    1    5    5    0    0  0.64515259108E+01  0.46483534693E+02  0.10423106786E+03  0.11430860287E+03  0.00000000000E+00 0.  1.
         14    1    5    5    0    0  0.12639342612E+03  0.98128126369E+02  0.18947922656E+03  0.24800565447E+03  0.00000000000E+00 0. -1.
         13    1    3    3    0    0 -0.68922162497E+02 -0.15101779199E+02 -0.15252532784E+03  0.16805446692E+03  0.00000000000E+00 0. -1.
        -14    1    3    3    0    0 -0.37955492713E+01  0.27779720288E+02 -0.17441203476E+03  0.17665128622E+03  0.00000000000E+00 0.  1.
          5    1    4    4  501    0 -0.12295809807E+02  0.78084313475E-01 -0.16437509465E+03  0.16488734693E+03  0.41800000000E+01 0.  1.
         -5    1    4    4    0  501 -0.47831430455E+02 -0.15736768646E+03 -0.24526674885E+03  0.29533994815E+03  0.41800000000E+01 0.  1.
</event>
<event>
11    1  0.8039394E-009  0.1749554E+03  0.7561462E-02  0.1073798E+00
         22   -1    0    0    0    0  0.00000000000E+00  0.00000000000E+00  0.15308854098E+03  0.15308854098E+03  0.00000000000E+00 0. -1.
         22   -1    0    0    0    0 -0.00000000000E+00 -0.00000000000E+00 -0.12112176480E+04  0.12112176480E+04  0.00000000000E+00 0.  1.
         24    2    1    2    0    0 -0.60461944278E+02  0.15488922523E+01 -0.91440094798E+03  0.91986012808E+03  0.79721488934E+02 0.  0.
         25    2    1    2    0    0  0.34964000002E+02  0.11993992747E+03 -0.21699520712E+03  0.27989908585E+03  0.12509400803E+03 0.  0.
        -24    2    1    2    0    0  0.25497944276E+02 -0.12148881972E+03  0.73267048093E+02  0.16454697503E+03  0.79359739015E+02 0.  0.
        -11    1    3    3    0    0 -0.58052431352E+02  0.26544131286E+02 -0.80878184545E+03  0.81129695501E+03  0.00000000000E+00 0.  1.
         12    1    3    3    0    0 -0.24095129267E+01 -0.24995239033E+02 -0.10561910253E+03  0.10856317307E+03  0.00000000000E+00 0. -1.
         11    1    5    5    0    0 -0.14055575208E+02 -0.96545526342E+02  0.33475540684E+02  0.10314654466E+03  0.00000000000E+00 0. -1.
        -12    1    5    5    0    0  0.39553519484E+02 -0.24943293381E+02  0.39791507409E+02  0.61400430374E+02  0.00000000000E+00 0.  1.
          5    1    4    4  501    0  0.50469031247E+02  0.31679184668E+02 -0.19255010452E+02  0.62760829215E+02  0.41800000000E+01 0.  1.
         -5    1    4    4    0  501 -0.15505031244E+02  0.88260742803E+02 -0.19774019667E+03  0.21713825663E+03  0.41800000000E+01 0.  1.
</event>
<event>
11    1  0.8039394E-009  0.2301881E+03  0.7561462E-02  0.1035017E+00
         22   -1    0    0    0    0  0.00000000000E+00  0.00000000000E+00  0.15522616173E+03  0.15522616173E+03  0.00000000000E+00 0.  1.
         22   -1    0    0    0    0 -0.00000000000E+00 -0.00000000000E+00 -0.50964067785E+03  0.50964067785E+03  0.00000000000E+00 0.  1.
         24    2    1    2    0    0 -0.20254649969E+03 -0.97843715550E+02 -0.20770472736E+03  0.31613872499E+03  0.78765236355E+02 0.  0.
         25    2    1    2    0    0  0.11853691523E+03  0.10629997502E+03 -0.93017956766E+02  0.22282388703E+03  0.12508980529E+03 0.  0.
        -24    2    1    2    0    0  0.84009584461E+02 -0.84562594648E+01 -0.53691831996E+02  0.12590422756E+03  0.76419520343E+02 0.  0.
        -13    1    3    3    0    0 -0.13056182445E+03 -0.21630993828E+02 -0.13123316577E+03  0.18637712761E+03  0.00000000000E+00 0.  1.
         14    1    3    3    0    0 -0.71984675244E+02 -0.76212721722E+02 -0.76471561592E+02  0.12976159738E+03  0.00000000000E+00 0. -1.
         11    1    5    5    0    0  0.34072235158E+01  0.20269708706E+02 -0.31315931797E+02  0.37458748610E+02  0.00000000000E+00 0. -1.
        -12    1    5    5    0    0  0.80602360945E+02 -0.28725968171E+02 -0.22375900199E+02  0.88445478952E+02  0.00000000000E+00 0.  1.
          5    1    4    4  501    0  0.11801514121E+03  0.10118131971E+03 -0.11912301910E+03  0.19589027309E+03  0.41800000000E+01 0. -1.
         -5    1    4    4    0  501  0.52177402205E+00  0.51186553084E+01  0.26105062333E+02  0.26933613937E+02  0.41800000000E+01 0. -1.
</event>
<event>
11    1  0.8039394E-009  0.1432062E+03  0.7561462E-02  0.1104030E+00
         22   -1    0    0    0    0  0.00000000000E+00  0.00000000000E+00  0.42145974253E+03  0.42145974253E+03  0.00000000000E+00 0.  1.
         22   -1    0    0    0    0 -0.00000000000E+00 -0.00000000000E+00 -0.34253675280E+03  0.34253675280E+03  0.00000000000E+00 0.  1.
        -24    2    1    2    0    0 -0.24796321629E+02 -0.14583680776E+02 -0.27912162069E+03  0.29287641944E+03  0.83905760325E+02 0.  0.
         25    2    1    2    0    0  0.62527456856E+02  0.67878448200E+02  0.81239410121E+02  0.17539906518E+03  0.12509126156E+03 0.  0.
         24    2    1    2    0    0 -0.37731135227E+02 -0.53294767424E+02  0.27680520029E+03  0.29572101071E+03  0.81029787549E+02 0.  0.
        -11    1    5    5    0    0 -0.22321308142E+02 -0.25992317486E+02  0.25556744700E+03  0.25785375958E+03  0.00000000000E+00 0.  1.
         12    1    5    5    0    0 -0.15409827085E+02 -0.27302449938E+02  0.21237753290E+02  0.37867251131E+02  0.00000000000E+00 0. -1.
         13    1    3    3    0    0 -0.15505965388E+02 -0.54488672239E+01 -0.33202911558E+01  0.16767511741E+02  0.00000000000E+00 0. -1.
        -14    1    3    3    0    0 -0.92903562416E+01 -0.91348135524E+01 -0.27580132953E+03  0.27610890770E+03  0.00000000000E+00 0.  1.
          5    1    4    4  501    0  0.72632828480E+02 -0.12589491418E+02  0.45048863640E+02  0.86492170642E+02  0.41800000000E+01 0. -1.
         -5    1    4    4    0  501 -0.10105371623E+02  0.80467939619E+02  0.36190546481E+02  0.88906894540E+02  0.41800000000E+01 0. -1.
</event>
<event>
11    1  0.8039394E-009  0.2431814E+03  0.7561462E-02  0.1027596E+00
         22   -1    0    0    0    0  0.00000000000E+00  0.00000000000E+00  0.91244404053E+03  0.91244404053E+03  0.00000000000E+00 0. -1.
         22   -1    0    0    0    0 -0.00000000000E+00 -0.00000000000E+00 -0.76229273506E+03  0.76229273506E+03  0.00000000000E+00 0.  1.
        -24    2    1    2    0    0  0.23240235680E+02 -0.14954113864E+02 -0.66838715309E+03  0.67398470080E+03  0.82159944087E+02 0.  0.
         25    2    1    2    0    0 -0.14347234039E+03 -0.15507344819E+03  0.13130936370E+03  0.27842596435E+03  0.12508709701E+03 0.  0.
         24    2    1    2    0    0  0.12023210471E+03  0.17002756206E+03  0.68722909486E+03  0.72232611045E+03  0.78141219258E+02 0.  0.
        -13    1    5    5    0    0  0.13425122040E+02  0.55835239384E+02  0.10744592899E+03  0.12182953466E+03  0.00000000000E+00 0.  1.
         14    1    5    5    0    0  0.10680698267E+03  0.11419232267E+03  0.57978316587E+03  0.60049657579E+03  0.00000000000E+00 0. -1.
         13    1    3    3    0    0 -0.30779353334E+02 -0.27686313824E+01 -0.27140629716E+03  0.27316004842E+03  0.00000000000E+00 0. -1.
        -14    1    3    3    0    0  0.54019589013E+02 -0.12185482482E+02 -0.39698085593E+03  0.40082465238E+03  0.00000000000E+00 0.  1.
          5    1    4    4  501    0  0.20288843278E+02 -0.23407449786E+02  0.12773525176E+01  0.31283380516E+02  0.41800000000E+01 0. -1.
         -5    1    4    4    0  501 -0.16376118366E+03 -0.13166599841E+03  0.13003201118E+03  0.24714258383E+03  0.41800000000E+01 0. -1.
</event>
<event>
11    1  0.8039394E-009  0.1674364E+03  0.7561462E-02  0.1080284E+00
         22   -1    0    0    0    0  0.00000000000E+00  0.00000000000E+00  0.39559848327E+03  0.39559848327E+03  0.00000000000E+00 0.  1.
         22   -1    0    0    0    0 -0.00000000000E+00 -0.00000000000E+00 -0.54906276450E+03  0.54906276450E+03  0.00000000000E+00 0. -1.
         24    2    1    2    0    0 -0.87270205597E+02  0.65906819722E+02 -0.45318836687E+03  0.47286916275E+03  0.79156500330E+02 0.  0.
         25    2    1    2    0    0  0.92320737587E+02 -0.96166481063E+02  0.26008901919E+02  0.18466116861E+03  0.12510864696E+03 0.  0.
        -24    2    1    2    0    0 -0.50505319904E+01  0.30259661341E+02  0.27371518371E+03  0.28713091641E+03  0.81135728179E+02 0.  0.
        -11    1    3    3    0    0 -0.73159201301E+02  0.23713539265E+02 -0.17510756427E+03  0.19125182285E+03  0.00000000000E+00 0.  1.
         12    1    3    3    0    0 -0.14111004296E+02  0.42193280457E+02 -0.27808080260E+03  0.28161733990E+03  0.00000000000E+00 0. -1.
         13    1    5    5    0    0  0.19767496315E+02 -0.20332198741E+02  0.12297239089E+03  0.12619968755E+03  0.00000000000E+00 0. -1.
        -14    1    5    5    0    0 -0.24818028306E+02  0.50591860082E+02  0.15074279282E+03  0.16093122886E+03  0.00000000000E+00 0.  1.
          5    1    4    4  501    0  0.20562567682E+02 -0.10788783311E+03  0.18343949495E+02  0.11142969356E+03  0.41800000000E+01 0. -1.
         -5    1    4    4    0  501  0.71758169906E+02  0.11721352051E+02  0.76649524243E+01  0.73231475048E+02  0.41800000000E+01 0. -1.
</event>
<event>
11    1  0.8039394E-009  0.1612452E+03  0.7561462E-02  0.1085912E+00
         22   -1    0    0    0    0  0.00000000000E+00  0.00000000000E+00  0.14317225192E+04  0.14317225192E+04  0.00000000000E+00 0. -1.
         22   -1    0    0    0    0 -0.00000000000E+00 -0.00000000000E+00 -0.67312396247E+03  0.67312396247E+03  0.00000000000E+00 0.  1.
        -24    2    1    2    0    0  0.98589825577E+02 -0.35231727536E+02 -0.59052053853E+03  0.60506976835E+03  0.80210284942E+02 0.  0.
         25    2    1    2    0    0 -0.69778478903E+02  0.21822212679E+02 -0.33440451356E+01  0.14492713844E+03  0.12508975871E+03 0.  0.
         24    2    1    2    0    0 -0.28811346674E+02  0.13409514857E+02  0.13524631404E+04  0.13548495749E+04  0.73830316652E+02 0.  0.
        -11    1    5    5    0    0 -0.38877929221E+02 -0.14015751653E+02  0.44463086497E+03  0.44654735556E+03  0.00000000000E+00 0.  1.
         12    1    5    5    0    0  0.10066582547E+02  0.27425266510E+02  0.90783227547E+03  0.90830221937E+03  0.00000000000E+00 0. -1.
         11    1    3    3    0    0  0.27541867421E+01 -0.11434846493E+02 -0.79661171081E+01  0.14205642566E+02  0.00000000000E+00 0. -1.
        -12    1    3    3    0    0  0.95835638835E+02 -0.23796881044E+02 -0.58255442142E+03  0.59086412578E+03  0.00000000000E+00 0.  1.
          5    1    4    4  501    0  0.33169032859E+02  0.21906771287E+02 -0.11447631660E+02  0.41576580422E+02  0.41800000000E+01 0.  1.
         -5    1    4    4    0  501 -0.10294751176E+03 -0.84558607388E-01  0.81035865248E+01  0.10335055802E+03  0.41800000000E+01 0.  1.
</event>
<event>
11    1  0.8039394E-009  0.2438781E+03  0.7561462E-02  0.1027212E+00
         22   -1    0    0    0    0  0.00000000000E+00  0.00000000000E+00  0.17230949381E+04  0.17230949381E+04  0.00000000000E+00 0. -1.
         22   -1    0    0    0    0 -0.00000000000E+00 -0.00000000000E+00 -0.26801777870E+03  0.26801777870E+03  0.00000000000E+00 0.  1.
         24    2    1    2    0    0  0.19934376461E+03  0.30349425451E+02 -0.15555937920E+03  0.26728475208E+03  0.81138117540E+02 0.  0.
         25    2    1    2    0    0 -0.26655515847E+03 -0.38126125622E+01  0.34499953909E+03  0.45358419251E+03  0.12509096371E+03 0.  0.
        -24    2    1    2    0    0  0.67211393852E+02 -0.26536812889E+02  0.12656369995E+04  0.12702437722E+04  0.80378183705E+02 0.  0.
        -13    1    3    3    0    0  0.16947178842E+03  0.32134149981E+02 -0.16204108613E+03  0.23666559584E+03  0.00000000000E+00 0.  1.
         14    1    3    3    0    0  0.29871976198E+02 -0.17847245296E+01  0.64817069219E+01  0.30619156230E+02  0.00000000000E+00 0. -1.
         13    1    5    5    0    0  0.34827876776E+02  0.23906014126E+02  0.73898847952E+03  0.74019487392E+03  0.00000000000E+00 0. -1.
        -14    1    5    5    0    0  0.32383517076E+02 -0.50442827015E+02  0.52664851996E+03  0.53004889826E+03  0.00000000000E+00 0.  1.
          5    1    4    4  501    0 -0.11756514574E+03  0.58013835710E+02  0.18079960521E+03  0.22336771985E+03  0.41800000000E+01 0. -1.
         -5    1    4    4    0  501 -0.14899001273E+03 -0.61826448272E+02  0.16419993388E+03  0.23021647266E+03  0.41800000000E+01 0. -1.
</event>
<event>
11    1  0.8039394E-009  0.2204302E+03  0.7561462E-02  0.1040948E+00
         22   -1    0    0    0    0  0.00000000000E+00  0.00000000000E+00  0.33199265974E+03  0.33199265974E+03  0.00000000000E+00 0. -1.
         22   -1    0    0    0    0 -0.00000000000E+00 -0.00000000000E+00 -0.13228353328E+04  0.13228353328E+04  0.00000000000E+00 0.  1.
        -24    2    1    2    0    0 -0.60948115858E+02  0.12937970639E+03 -0.11545696307E+04  0.11661136925E+04  0.79601070989E+02 0.  0.
         25    2    1    2    0    0 -0.10212162655E+03 -0.19843471009E+03  0.41604074320E+02  0.25922262851E+03  0.12514116570E+03 0.  0.
         24    2    1    2    0    0  0.16306974241E+03  0.69055003703E+02  0.12212288330E+03  0.22949167153E+03  0.79950573810E+02 0.  0.
        -11    1    5    5    0    0  0.83842567248E+01 -0.14622096281E+02  0.19878871254E+02  0.26062827605E+02  0.00000000000E+00 0.  1.
         12    1    5    5    0    0  0.15468548568E+03  0.83677099984E+02  0.10224401205E+03  0.20342884393E+03  0.00000000000E+00 0. -1.
         11    1    3    3    0    0 -0.17709709048E+01 -0.47947757672E+01 -0.47413179926E+01  0.69718224956E+01  0.00000000000E+00 0. -1.
        -12    1    3    3    0    0 -0.59177144953E+02  0.13417448215E+03 -0.11498283127E+04  0.11591418700E+04  0.00000000000E+00 0.  1.
          5    1    4    4  501    0 -0.93852690835E+02 -0.18506721194E+03  0.76120886107E+02  0.22106574184E+03  0.41800000000E+01 0.  1.
         -5    1    4    4    0  501 -0.82689357145E+01 -0.13367498150E+02 -0.34516811787E+02  0.38156886673E+02  0.41800000000E+01 0.  1.
</event>
<event>
11    1  0.8039394E-009  0.1716074E+03  0.7561462E-02  0.1076641E+00
         22   -1    0    0    0    0  0.00000000000E+00  0.00000000000E+00  0.93440853040E+03  0.93440853040E+03  0.00000000000E+00 0.  1.
         22   -1    0    0    0    0 -0.00000000000E+00 -0.00000000000E+00 -0.13033019074E+04  0.13033019074E+04  0.00000000000E+00 0. -1.
        -24    2    1    2    0    0 -0.10686689863E+03 -0.51811398039E+02 -0.12747536702E+04  0.12826929604E+04  0.78735989028E+02 0.  0.
         25    2    1    2    0    0  0.22160900400E+02  0.48674295284E+02  0.21619954933E+03  0.25544039235E+03  0.12508899386E+03 0.  0.
         24    2    1    2    0    0  0.84705998233E+02  0.31371027553E+01  0.68966074388E+03  0.69957708505E+03  0.81186259481E+02 0.  0.
        -11    1    5    5    0    0  0.70743044063E+02  0.16804133644E+02  0.66041160694E+03  0.66440232373E+03  0.00000000000E+00 0.  1.
         12    1    5    5    0    0  0.13962954170E+02 -0.13667030889E+02  0.29249136933E+02  0.35174761318E+02  0.00000000000E+00 0. -1.
         11    1    3    3    0    0 -0.29607857226E+02 -0.47216160827E+02 -0.77286745559E+03  0.77487424461E+03  0.00000000000E+00 0. -1.
        -12    1    3    3    0    0 -0.77259041407E+02 -0.45952372120E+01 -0.50188621464E+03  0.50781871581E+03  0.00000000000E+00 0.  1.
          5    1    4    4  501    0 -0.33802110374E+02 -0.87797492708E+01  0.14133242416E+03  0.14564337671E+03  0.41800000000E+01 0. -1.
         -5    1    4    4    0  501  0.55963010775E+02  0.57454044554E+02  0.74867125177E+02  0.10979701564E+03  0.41800000000E+01 0. -1.
</event>
<event>
11    1  0.8039394E-009  0.1703887E+03  0.7561462E-02  0.1077694E+00
         22   -1    0    0    0    0  0.00000000000E+00  0.00000000000E+00  0.10008863721E+04  0.10008863721E+04  0.00000000000E+00 0. -1.
         22   -1    0    0    0    0 -0.00000000000E+00 -0.00000000000E+00 -0.36286808601E+03  0.36286808601E+03  0.00000000000E+00 0.  1.
        -24    2    1    2    0    0 -0.32527313189E+02 -0.64058974034E+02 -0.13081200170E+03  0.16944977269E+03  0.80248784511E+02 0.  0.
         25    2    1    2    0    0 -0.83388772680E+02  0.73723544981E+02 -0.17403880274E+03  0.24150567819E+03  0.12508652704E+03 0.  0.
         24    2    1    2    0    0  0.11591608587E+03 -0.96645709462E+01  0.94286909053E+03  0.95279900723E+03  0.72759077869E+02 0.  0.
        -13    1    5    5    0    0  0.20032008948E+02 -0.17929570427E+02  0.76211898699E+02  0.80814629749E+02  0.00000000000E+00 0.  1.
         14    1    5    5    0    0  0.95884076920E+02  0.82649994804E+01  0.86665719183E+03  0.87198437748E+03  0.00000000000E+00 0. -1.
         13    1    3    3    0    0 -0.15051450833E+01  0.17383607779E+02 -0.39713155327E+02  0.43377298062E+02  0.00000000000E+00 0. -1.
        -14    1    3    3    0    0 -0.31022168105E+02 -0.81442581813E+02 -0.91098846378E+02  0.12607247462E+03  0.00000000000E+00 0.  1.
          5    1    4    4  501    0  0.65778195093E+01 -0.18353538868E+02  0.53699764186E+01  0.20650160900E+02  0.41800000000E+01 0. -1.
         -5    1    4    4    0  501 -0.89966592189E+02  0.92077083848E+02 -0.17940877916E+03  0.22085551729E+03  0.41800000000E+01 0. -1.
</event>
<event>
11    1  0.8039394E-009  0.1699858E+03  0.7561462E-02  0.1078044E+00
         22   -1    0    0    0    0  0.00000000000E+00  0.00000000000E+00  0.12752257570E+03  0.12752257570E+03  0.00000000000E+00 0. -1.
         22   -1    0    0    0    0 -0.00000000000E+00 -0.00000000000E+00 -0.14293376864E+04  0.14293376864E+04  0.00000000000E+00 0. -1.
         24    2    1    2    0    0 -0.25554780405E+02  0.11101962989E+03 -0.99208010200E+03  0.10018545512E+04  0.80692056637E+02 0.  0.
         25    2    1    2    0    0  0.69583107427E+02 -0.10497497211E+03 -0.39502513772E+03  0.43307629288E+03  0.12509461382E+03 0.  0.
        -24    2    1    2    0    0 -0.44028327022E+02 -0.60446577733E+01  0.85290129043E+02  0.12192941798E+03  0.74948951893E+02 0.  0.
        -11    1    3    3    0    0 -0.25449212306E+02 -0.26482883817E+01 -0.15633257058E+03  0.15841258935E+03  0.00000000000E+00 0.  1.
         12    1    3    3    0    0 -0.10556809898E+00  0.11366791827E+03 -0.83574753141E+03  0.84344196188E+03  0.00000000000E+00 0. -1.
         11    1    5    5    0    0 -0.38135286131E+02  0.23869785272E+02  0.18757324209E+02  0.48743244750E+02  0.00000000000E+00 0. -1.
        -12    1    5    5    0    0 -0.58930408908E+01 -0.29914443045E+02  0.66532804833E+02  0.73186173234E+02  0.00000000000E+00 0.  1.
          5    1    4    4  501    0  0.10443636674E+03 -0.94354778304E+02 -0.31645046430E+03  0.34636418355E+03  0.41800000000E+01 0.  1.
         -5    1    4    4    0  501 -0.34853259311E+02 -0.10620193808E+02 -0.78574673420E+02  0.86712109329E+02  0.41800000000E+01 0.  1.
</event>
<event>
11    1  0.8039394E-009  0.1316391E+03  0.7561462E-02  0.1117271E+00
         22   -1    0    0    0    0  0.00000000000E+00  0.00000000000E+00  0.13458563810E+04  0.13458563810E+04  0.00000000000E+00 0.  1.
         22   -1    0    0    0    0 -0.00000000000E+00 -0.00000000000E+00 -0.24132484967E+03  0.24132484967E+03  0.00000000000E+00 0.  1.
         24    2    1    2    0    0 -0.34082566808E+02 -0.20854179944E+02 -0.20387689748E+03  0.22278339854E+03  0.80437150351E+02 0.  0.
         25    2    1    2    0    0  0.40769758204E+02  0.51855497559E+02  0.16336974045E+03  0.21607385689E+03  0.12508826373E+03 0.  0.
        -24    2    1    2    0    0 -0.66871913959E+01 -0.31001317615E+02  0.11450386884E+04  0.11483239753E+04  0.80799468138E+02 0.  0.
        -11    1    3    3    0    0 -0.48471880850E+02 -0.40218550560E+02 -0.16917468564E+03  0.18051905524E+03  0.00000000000E+00 0.  1.
         12    1    3    3    0    0  0.14389314042E+02  0.19364370617E+02 -0.34702211833E+02  0.42264343294E+02  0.00000000000E+00 0. -1.
         11    1    5    5    0    0  0.14777164510E+02  0.22825613855E+02  0.26901475982E+03  0.27038549192E+03  0.00000000000E+00 0. -1.
        -12    1    5    5    0    0 -0.21464355906E+02 -0.53826931470E+02  0.87602392857E+03  0.87793848335E+03  0.00000000000E+00 0.  1.
          5    1    4    4  501    0 -0.14375010357E+02  0.78248838315E+02  0.83556633553E+02  0.11545001096E+03  0.41800000000E+01 0. -1.
         -5    1    4    4    0  501  0.55144768561E+02 -0.26393340756E+02  0.79813106898E+02  0.10062384592E+03  0.41800000000E+01 0. -1.
</event>
<event>
11    1  0.8039394E-009  0.1942693E+03  0.7561462E-02  0.1058652E+00
         22   -1    0    0    0    0  0.00000000000E+00  0.00000000000E+00  0.79298807208E+03  0.79298807208E+03  0.00000000000E+00 0.  1.
         22   -1    0    0    0    0 -0.00000000000E+00 -0.00000000000E+00 -0.71890074515E+03  0.71890074515E+03  0.00000000000E+00 0.  1.
         24    2    1    2    0    0 -0.13359787017E+03 -0.42880828647E+02 -0.54197849875E+03  0.56606605875E+03  0.83683531146E+02 0.  0.
         25    2    1    2    0    0  0.19326130601E+03  0.12961223917E+03 -0.48324796352E+02  0.26856139811E+03  0.12506267896E+03 0.  0.
        -24    2    1    2    0    0 -0.59663435835E+02 -0.86731410521E+02  0.66439062204E+03  0.67726136037E+03  0.78651054967E+02 0.  0.
        -13    1    3    3    0    0 -0.13271969831E+03 -0.30660799576E+02 -0.53478209346E+03  0.55185730985E+03  0.00000000000E+00 0.  1.
         14    1    3    3    0    0 -0.87817186350E+00 -0.12220029071E+02 -0.71964052925E+01  0.14208748905E+02  0.00000000000E+00 0. -1.
         11    1    5    5    0    0 -0.71097059884E+02 -0.48469443564E+02  0.35376460338E+03  0.36407893854E+03  0.00000000000E+00 0. -1.
        -12    1    5    5    0    0  0.11433624049E+02 -0.38261966957E+02  0.31062601866E+03  0.31318242183E+03  0.00000000000E+00 0.  1.
          5    1    4    4  501    0  0.49301877203E+02 -0.60237237193E+00  0.31473522442E+02  0.58643780260E+02  0.41800000000E+01 0. -1.
         -5    1    4    4    0  501  0.14395942881E+03  0.13021461154E+03 -0.79798318794E+02  0.20991761785E+03  0.41800000000E+01 0. -1.
</event>
<event>
11    1  0.8039394E-009  0.1264716E+03  0.7561462E-02  0.1123682E+00
         22   -1    0    0    0    0  0.00000000000E+00  0.00000000000E+00  0.19684765231E+03  0.19684765231E+03  0.00000000000E+00 0.  1.
         22   -1    0    0    0    0 -0.00000000000E+00 -0.00000000000E+00 -0.17596055751E+03  0.17596055751E+03  0.00000000000E+00 0.  1.
        -24    2    1    2    0    0 -0.13290223754E+02  0.17058066935E+01 -0.98731282438E+02  0.12492385748E+03  0.75356248650E+02 0.  0.
         25    2    1    2    0    0  0.19134802294E+02  0.14780198554E+02  0.40612678715E+02  0.13372530638E+03  0.12509385662E+03 0.  0.
         24    2    1    2    0    0 -0.58445785394E+01 -0.16486005248E+02  0.79005698517E+02  0.11415904597E+03  0.80526020086E+02 0.  0.
        -13    1    5    5    0    0 -0.55381890489E+00  0.20063105391E+02  0.74260934118E+02  0.76925426547E+02  0.00000000000E+00 0.  1.
         14    1    5    5    0    0 -0.52907596345E+01 -0.36549110639E+02  0.47447643988E+01  0.37233619421E+02  0.00000000000E+00 0. -1.
         13    1    3    3    0    0  0.24915954387E+02  0.13555752852E+02 -0.70417494538E+02  0.75915655535E+02  0.00000000000E+00 0. -1.
        -14    1    3    3    0    0 -0.38206178141E+02 -0.11849946158E+02 -0.28313787901E+02  0.49008201940E+02  0.00000000000E+00 0.  1.
          5    1    4    4  501    0  0.45517769607E+01 -0.26291916781E+02  0.73928226041E+02  0.78707296784E+02  0.41800000000E+01 0.  1.
         -5    1    4    4    0  501  0.14583025333E+02  0.41072115336E+02 -0.33315547326E+02  0.55018009593E+02  0.41800000000E+01 0.  1.
</event>
<event>
11    1  0.8039394E-009  0.1371761E+03  0.7561462E-02  0.1110753E+00
         22   -1    0    0    0    0  0.00000000000E+00  0.00000000000E+00  0.44487089693E+03  0.44487089693E+03  0.00000000000E+00 0.  1.
         22   -1    0    0    0    0 -0.00000000000E+00 -0.00000000000E+00 -0.40653202943E+03  0.40653202943E+03  0.00000000000E+00 0.  1.
         24    2    1    2    0    0  0.24920359521E+02  0.17295984181E+02 -0.23300533808E+03  0.24752926850E+03  0.77840065534E+02 0.  0.
         25    2    1    2    0    0 -0.50495992294E+02  0.33037740252E+02 -0.13042714711E+03  0.19051873063E+03  0.12507920890E+03 0.  0.
        -24    2    1    2    0    0  0.25575632773E+02 -0.50333724433E+02  0.40177135270E+03  0.41335492723E+03  0.79085265454E+02 0.  0.
        -11    1    3    3    0    0 -0.12796652972E+02  0.26755433612E+02 -0.17626815117E+03  0.17874582141E+03  0.00000000000E+00 0.  1.
         12    1    3    3    0    0  0.37717012493E+02 -0.94594494308E+01 -0.56737186915E+02  0.68783447093E+02  0.00000000000E+00 0. -1.
         13    1    5    5    0    0 -0.11946444257E+02  0.90405125673E+01  0.19016050390E+02  0.24208646602E+02  0.00000000000E+00 0. -1.
        -14    1    5    5    0    0  0.37522077030E+02 -0.59374237000E+02  0.38275530231E+03  0.38914628063E+03  0.00000000000E+00 0.  1.
          5    1    4    4  501    0 -0.57297497615E+02  0.31954101281E+02 -0.15301415730E+03  0.16653790126E+03  0.41800000000E+01 0. -1.
         -5    1    4    4    0  501  0.68015053207E+01  0.10836389707E+01  0.22587010188E+02  0.23980829371E+02  0.41800000000E+01 0. -1.
</event>
<event>
11    1  0.8039394E-009  0.1301196E+03  0.7561462E-02  0.1119122E+00
         22   -1    0    0    0    0  0.00000000000E+00  0.00000000000E+00  0.43981079287E+03  0.43981079287E+03  0.00000000000E+00 0.  1.
         22   -1    0    0    0    0 -0.00000000000E+00 -0.00000000000E+00 -0.91807722069E+03  0.91807722069E+03  0.00000000000E+00 0. -1.
        -24    2    1    2    0    0  0.17104600072E+02  0.31247252161E+02 -0.80779014310E+03  0.81618775430E+03  0.11121410379E+03 0.  0.
         25    2    1    2    0    0  0.79923083290E+01 -0.46374459326E+02 -0.58197714152E+02  0.14577181257E+03  0.12509188598E+03 0.  0.
         24    2    1    2    0    0 -0.25096908401E+02  0.15127207165E+02  0.38772142943E+03  0.39592844669E+03  0.74650792705E+02 0.  0.
        -11    1    5    5    0    0 -0.33688030399E+02 -0.32168041158E+01  0.36004175699E+03  0.36162867419E+03  0.00000000000E+00 0.  1.
         12    1    5    5    0    0  0.85911219982E+01  0.18344011281E+02  0.27679672437E+02  0.34299772496E+02  0.00000000000E+00 0. -1.
         11    1    3    3    0    0 -0.38152511023E+02  0.45748356293E+02 -0.39703084473E+03  0.40147480352E+03  0.00000000000E+00 0. -1.
        -12    1    3    3    0    0  0.55257111095E+02 -0.14501104132E+02 -0.41075929837E+03  0.41471295078E+03  0.00000000000E+00 0.  1.
          5    1    4    4  501    0  0.35484211568E+02 -0.41388511621E+02  0.23360906415E+02  0.59458746315E+02  0.41800000000E+01 0. -1.
         -5    1    4    4    0  501 -0.27491903239E+02 -0.49859477047E+01 -0.81558620567E+02  0.86313066259E+02  0.41800000000E+01 0. -1.
</event>
<event>
11    1  0.8039394E-009  0.1514427E+03  0.7561462E-02  0.1095414E+00
         22   -1    0    0    0    0  0.00000000000E+00  0.00000000000E+00  0.42266759457E+02  0.42266759457E+02  0.00000000000E+00 0. -1.
         22   -1    0    0    0    0 -0.00000000000E+00 -0.00000000000E+00 -0.22604081052E+04  0.22604081052E+04  0.00000000000E+00 0.  1.
        -24    2    1    2    0    0  0.68671790261E+02 -0.15725687164E+02 -0.12073304462E+04  0.12128727938E+04  0.91926576478E+02 0.  0.
         25    2    1    2    0    0 -0.12753029534E+03  0.30094030835E+02 -0.95892763722E+03  0.97588867150E+03  0.12508740465E+03 0.  0.
         24    2    1    2    0    0  0.58858505082E+02 -0.14368343672E+02 -0.51883262238E+02  0.11391339934E+03  0.81324146031E+02 0.  0.
        -13    1    5    5    0    0 -0.11740559791E+02 -0.27193341666E+02 -0.13750831300E+02  0.32655840773E+02  0.00000000000E+00 0.  1.
         14    1    5    5    0    0  0.70599064874E+02  0.12824997994E+02 -0.38132430938E+02  0.81257558565E+02  0.00000000000E+00 0. -1.
         13    1    3    3    0    0  0.45381618697E+02  0.17932534852E+01 -0.19882265166E+03  0.20394399694E+03  0.00000000000E+00 0. -1.
        -14    1    3    3    0    0  0.23290171564E+02 -0.17518940649E+02 -0.10085077946E+04  0.10089287969E+04  0.00000000000E+00 0.  1.
          5    1    4    4  501    0 -0.82752398951E+02  0.73678136284E+02 -0.46655938795E+03  0.47955350294E+03  0.41800000000E+01 0.  1.
         -5    1    4    4    0  501 -0.44777896392E+02 -0.43584105448E+02 -0.49236824928E+03  0.49633516856E+03  0.41800000000E+01 0.  1.
</event>
<event>
11    1  0.8039394E-009  0.1527828E+03  0.7561462E-02  0.1094069E+00
         22   -1    0    0    0    0  0.00000000000E+00  0.00000000000E+00  0.52461414287E+03  0.52461414287E+03  0.00000000000E+00 0.  1.
         22   -1    0    0    0    0 -0.00000000000E+00 -0.00000000000E+00 -0.34764324829E+03  0.34764324829E+03  0.00000000000E+00 0.  1.
         24    2    1    2    0    0 -0.33179309782E+02  0.66996188455E+02 -0.26309862299E+03  0.28429121023E+03  0.77532257337E+02 0.  0.
         25    2    1    2    0    0  0.16590621522E+02 -0.14519698748E+03  0.79259372429E+02  0.20805578066E+03  0.12509095032E+03 0.  0.
        -24    2    1    2    0    0  0.16588688261E+02  0.78200799026E+02  0.36081014514E+03  0.37991040028E+03  0.88076113985E+02 0.  0.
        -13    1    3    3    0    0 -0.33190890609E+00  0.45818551845E+02 -0.22532955704E+03  0.22994099055E+03  0.00000000000E+00 0.  1.
         14    1    3    3    0    0 -0.32847400876E+02  0.21177636610E+02 -0.37769065949E+02  0.54350219681E+02  0.00000000000E+00 0. -1.
         11    1    5    5    0    0  0.23069000953E+02 -0.12976191864E+02  0.10409720171E+03  0.10740943983E+03  0.00000000000E+00 0. -1.
        -12    1    5    5    0    0 -0.64803126920E+01  0.91176990889E+02  0.25671294343E+03  0.27250096045E+03  0.00000000000E+00 0.  1.
          5    1    4    4  501    0  0.45741970401E+02 -0.97171649919E+02  0.10117321349E+03  0.14760809237E+03  0.41800000000E+01 0. -1.
         -5    1    4    4    0  501 -0.29151348880E+02 -0.48025337562E+02 -0.21913841065E+02  0.60447688290E+02  0.41800000000E+01 0. -1.
</event>
<event>
11    1  0.8039394E-009  0.2181945E+03  0.7561462E-02  0.1042354E+00
         22   -1    0    0    0    0  0.00000000000E+00  0.00000000000E+00  0.15174329020E+04  0.15174329020E+04  0.00000000000E+00 0. -1.
         22   -1    0    0    0    0 -0.00000000000E+00 -0.00000000000E+00 -0.17794989992E+03  0.17794989992E+03  0.00000000000E+00 0. -1.
         24    2    1    2    0    0  0.56018209779E+01  0.19094645205E+03 -0.36360273379E+02  0.21074837141E+03  0.81245791414E+02 0.  0.
         25    2    1    2    0    0  0.14628839696E+02 -0.15280596160E+03  0.13337317202E+03  0.23874529731E+03  0.12508896482E+03 0.  0.
        -24    2    1    2    0    0 -0.20230660674E+02 -0.38140490451E+02  0.12424701035E+04  0.12458891332E+04  0.81509494323E+02 0.  0.
        -11    1    3    3    0    0  0.25532644999E+02  0.11550727016E+03  0.12074603800E+02  0.11891022445E+03  0.00000000000E+00 0.  1.
         12    1    3    3    0    0 -0.19930824022E+02  0.75439181890E+02 -0.48434877180E+02  0.91838146964E+02  0.00000000000E+00 0. -1.
         11    1    5    5    0    0 -0.21062958455E+02 -0.39532169606E+02  0.12432730135E+04  0.12440796706E+04  0.00000000000E+00 0. -1.
        -12    1    5    5    0    0  0.83229778118E+00  0.13916791549E+01 -0.80291005576E+00  0.18094626342E+01  0.00000000000E+00 0.  1.
          5    1    4    4  501    0 -0.20422957706E+02 -0.40384515574E+02 -0.16275362241E+02  0.48273865763E+02  0.41800000000E+01 0. -1.
         -5    1    4    4    0  501  0.35051797401E+02 -0.11242144603E+03  0.14964853426E+03  0.19047143155E+03  0.41800000000E+01 0. -1.
</event>
<event>
11    1  0.8039394E-009  0.1975590E+03  0.7561462E-02  0.1056263E+00
         22   -1    0    0    0    0  0.00000000000E+00  0.00000000000E+00  0.38161233946E+03  0.38161233946E+03  0.00000000000E+00 0.  1.
         22   -1    0    0    0    0 -0.00000000000E+00 -0.00000000000E+00 -0.20396695340E+04  0.20396695340E+04  0.00000000000E+00 0.  1.
        -24    2    1    2    0    0  0.34227543618E+02 -0.14694218713E+03 -0.18984391725E+04  0.19061550971E+04  0.81193788601E+02 0.  0.
         25    2    1    2    0    0 -0.42656101063E+02  0.21588501682E+03  0.10009064527E+01  0.25312977182E+03  0.12509115126E+03 0.  0.
         24    2    1    2    0    0  0.84285574451E+01 -0.68942829692E+02  0.23938107149E+03  0.26199700458E+03  0.80715417821E+02 0.  0.
        -13    1    5    5    0    0  0.42338977321E+02 -0.55782198185E+02  0.15266347725E+03  0.16795945916E+03  0.00000000000E+00 0.  1.
         14    1    5    5    0    0 -0.33910419875E+02 -0.13160631507E+02  0.86717594240E+02  0.94037545420E+02  0.00000000000E+00 0. -1.
         11    1    3    3    0    0 -0.88853657404E+00  0.10172391732E+02 -0.96661056523E+02  0.97198903795E+02  0.00000000000E+00 0. -1.
        -12    1    3    3    0    0  0.35116080192E+02 -0.15711457886E+03 -0.18017781160E+04  0.18089561933E+04  0.00000000000E+00 0.  1.
          5    1    4    4  501    0 -0.37153033221E+02  0.45038151325E+02  0.48114494171E+02  0.75771102022E+02  0.41800000000E+01 0. -1.
         -5    1    4    4    0  501 -0.55030678422E+01  0.17084686550E+03 -0.47113587718E+02  0.17735866980E+03  0.41800000000E+01 0. -1.
</event>
<event>
11    1  0.8039394E-009  0.3936622E+03  0.7561462E-02  0.9668645E-01
         22   -1    0    0    0    0  0.00000000000E+00  0.00000000000E+00  0.22706547623E+03  0.22706547623E+03  0.00000000000E+00 0.  1.
         22   -1    0    0    0    0 -0.00000000000E+00 -0.00000000000E+00 -0.21622886182E+04  0.21622886182E+04  0.00000000000E+00 0. -1.
        -24    2    1    2    0    0  0.50285210409E+02  0.31554147891E+03 -0.99244310351E+03  0.10456620825E+04  0.79817602965E+02 0.  0.
         25    2    1    2    0    0 -0.31285115543E+02 -0.49897215668E+03 -0.10078589054E+04  0.11319797166E+04  0.12508610645E+03 0.  0.
         24    2    1    2    0    0 -0.19000094866E+02  0.18343067777E+03  0.65078866948E+02  0.21171229533E+03  0.81111157791E+02 0.  0.
        -13    1    5    5    0    0 -0.38633389878E+01  0.74580352456E+02 -0.14439095186E+02  0.76063406645E+02  0.00000000000E+00 0.  1.
         14    1    5    5    0    0 -0.15136755879E+02  0.10885032532E+03  0.79517962134E+02  0.13564888869E+03  0.00000000000E+00 0. -1.
         11    1    3    3    0    0  0.51234653690E+02  0.10960029939E+03 -0.30810530978E+03  0.33100769973E+03  0.00000000000E+00 0. -1.
        -12    1    3    3    0    0 -0.94944328129E+00  0.20594117951E+03 -0.68433779373E+03  0.71465438275E+03  0.00000000000E+00 0.  1.
          5    1    4    4  501    0  0.96918845364E+00 -0.30687566310E+03 -0.48442391979E+03  0.57346108708E+03  0.41800000000E+01 0.  1.
         -5    1    4    4    0  501 -0.32254303996E+02 -0.19209649358E+03 -0.52343498564E+03  0.55851862956E+03  0.41800000000E+01 0.  1.
</event>
<event>
11    1  0.8039394E-009  0.2059757E+03  0.7561462E-02  0.1050377E+00
         22   -1    0    0    0    0  0.00000000000E+00  0.00000000000E+00  0.95462139615E+02  0.95462139615E+02  0.00000000000E+00 0.  1.
         22   -1    0    0    0    0 -0.00000000000E+00 -0.00000000000E+00 -0.19400553043E+04  0.19400553043E+04  0.00000000000E+00 0.  1.
         24    2    1    2    0    0  0.56587055789E+02  0.14080556014E+03 -0.12123487616E+04  0.12244228763E+04  0.79959737361E+02 0.  0.
         25    2    1    2    0    0 -0.11089773875E+03 -0.17702701093E+03 -0.65907821621E+03  0.70261554345E+03  0.12509051023E+03 0.  0.
        -24    2    1    2    0    0  0.54310682961E+02  0.36221450788E+02  0.26833813139E+02  0.10847902416E+03  0.82377189648E+02 0.  0.
        -13    1    3    3    0    0  0.13091570281E+02  0.10723012602E+03 -0.60284389615E+03  0.61244628520E+03  0.00000000000E+00 0.  1.
         14    1    3    3    0    0  0.43495485508E+02  0.33575434121E+02 -0.60950486545E+03  0.61197659109E+03  0.00000000000E+00 0. -1.
         13    1    5    5    0    0  0.21634163833E+02 -0.23045455172E+02 -0.76507674060E+01  0.32521751041E+02  0.00000000000E+00 0. -1.
        -14    1    5    5    0    0  0.32676519128E+02  0.59266905960E+02  0.34484580545E+02  0.75957273119E+02  0.00000000000E+00 0.  1.
          5    1    4    4  501    0 -0.10132402730E+03 -0.10562812071E+03 -0.27240121412E+03  0.30926324103E+03  0.41800000000E+01 0.  1.
         -5    1    4    4    0  501 -0.95737114453E+01 -0.71398890217E+02 -0.38667700209E+03  0.39335230242E+03  0.41800000000E+01 0.  1.
</event>
<event>
11    1  0.8039394E-009  0.1336639E+03  0.7561462E-02  0.1114847E+00
         22   -1    0    0    0    0  0.00000000000E+00  0.00000000000E+00  0.88537816055E+03  0.88537816055E+03  0.00000000000E+00 0.  1.
         22   -1    0    0    0    0 -0.00000000000E+00 -0.00000000000E+00 -0.80887807532E+02  0.80887807532E+02  0.00000000000E+00 0.  1.
        -24    2    1    2    0    0 -0.46502440517E+01  0.46532629030E+02 -0.21008916624E+02  0.95700640110E+02  0.80810442429E+02 0.  0.
         25    2    1    2    0    0  0.50292786038E+02 -0.41845996925E+02  0.24513250787E+03  0.28287566283E+03  0.12509293513E+03 0.  0.
         24    2    1    2    0    0 -0.45642541986E+02 -0.46866321043E+01  0.58036676177E+03  0.58768966514E+03  0.80301669902E+02 0.  0.
        -13    1    5    5    0    0  0.96613759397E+01  0.23288988529E+02  0.27136083662E+03  0.27252967329E+03  0.00000000000E+00 0.  1.
         14    1    5    5    0    0 -0.55303917926E+02 -0.27975620633E+02  0.30900592515E+03  0.31515999185E+03  0.00000000000E+00 0. -1.
         11    1    3    3    0    0 -0.30221943172E+02  0.94137834820E+01  0.17716903461E+02  0.36274975352E+02  0.00000000000E+00 0. -1.
        -12    1    3    3    0    0  0.25571699120E+02  0.37118845548E+02 -0.38725820085E+02  0.59425664758E+02  0.00000000000E+00 0.  1.
          5    1    4    4  501    0  0.49429383743E+02 -0.61680574963E+02  0.67320621883E+02  0.10391003722E+03  0.41800000000E+01 0. -1.
         -5    1    4    4    0  501  0.86340229526E+00  0.19834578038E+02  0.17781188599E+03  0.17896562560E+03  0.41800000000E+01 0. -1.
</event>
<event>
11    1  0.8039394E-009  0.1583742E+03  0.7561462E-02  0.1088616E+00
         22   -1    0    0    0    0  0.00000000000E+00  0.00000000000E+00  0.23184725695E+04  0.23184725695E+04  0.00000000000E+00 0. -1.
         22   -1    0    0    0    0 -0.00000000000E+00 -0.00000000000E+00 -0.13984362411E+03  0.13984362411E+03  0.00000000000E+00 0.  1.
         24    2    1    2    0    0 -0.21557063165E+02 -0.43474649948E+02 -0.87664654318E+02  0.12884518129E+03  0.81001462730E+02 0.  0.
         25    2    1    2    0    0  0.10389349901E+03 -0.86760252918E+01  0.19989846202E+03  0.25783215704E+03  0.12509553763E+03 0.  0.
        -24    2    1    2    0    0 -0.82336435848E+02  0.52150675240E+02  0.20663951377E+04  0.20716388553E+04  0.11045225238E+03 0.  0.
        -13    1    3    3    0    0 -0.48076033576E+02 -0.67188116944E+01 -0.38332101551E+02  0.61853031003E+02  0.00000000000E+00 0.  1.
         14    1    3    3    0    0  0.26518970411E+02 -0.36755838254E+02 -0.49332552768E+02  0.66992150286E+02  0.00000000000E+00 0. -1.
         13    1    5    5    0    0 -0.16848263084E+02 -0.19517037013E+01  0.13668349125E+04  0.13669401418E+04  0.00000000000E+00 0. -1.
        -14    1    5    5    0    0 -0.65488172764E+02  0.54102378941E+02  0.69956022521E+03  0.70469871355E+03  0.00000000000E+00 0.  1.
          5    1    4    4  501    0  0.12316288050E+03 -0.32779871741E+02  0.18098594032E+03  0.22139782772E+03  0.41800000000E+01 0. -1.
         -5    1    4    4    0  501 -0.19269381481E+02  0.24103846449E+02  0.18912521700E+02  0.36434329325E+02  0.41800000000E+01 0. -1.
</event>
<event>
11    1  0.8039394E-009  0.1737922E+03  0.7561462E-02  0.1074778E+00
         22   -1    0    0    0    0  0.00000000000E+00  0.00000000000E+00  0.23746775635E+04  0.23746775635E+04  0.00000000000E+00 0. -1.
         22   -1    0    0    0    0 -0.00000000000E+00 -0.00000000000E+00 -0.27761995989E+02  0.27761995989E+02  0.00000000000E+00 0. -1.
        -24    2    1    2    0    0  0.32288285462E+02 -0.10544266352E+02  0.14855678481E+03  0.17247053840E+03  0.80766660022E+02 0.  0.
         25    2    1    2    0    0 -0.41322854063E+02  0.12768171825E+03  0.67679738109E+03  0.70122181500E+03  0.12508852597E+03 0.  0.
         24    2    1    2    0    0  0.90345686011E+01 -0.11713745190E+03  0.15215614016E+04  0.15287472061E+04  0.90089484491E+02 0.  0.
        -13    1    5    5    0    0  0.10985780503E+02  0.83433553576E+01  0.50745971698E+02  0.52587570731E+02  0.00000000000E+00 0.  1.
         14    1    5    5    0    0 -0.19512119021E+01 -0.12548080725E+03  0.14708154299E+04  0.14761596354E+04  0.00000000000E+00 0. -1.
         11    1    3    3    0    0  0.38432671997E+01 -0.37732025739E+02  0.32576002083E+02  0.49996723701E+02  0.00000000000E+00 0. -1.
        -12    1    3    3    0    0  0.28445018262E+02  0.27187759387E+02  0.11598078272E+03  0.12247381469E+03  0.00000000000E+00 0.  1.
          5    1    4    4  501    0  0.20456268228E+02  0.29944830898E+00  0.18618972778E+02  0.27976546006E+02  0.41800000000E+01 0.  1.
         -5    1    4    4    0  501 -0.61779122291E+02  0.12738226994E+03  0.65817840831E+03  0.67324526899E+03  0.41800000000E+01 0.  1.
</event>
<event>
11    1  0.8039394E-009  0.1349474E+03  0.7561462E-02  0.1113335E+00
         22   -1    0    0    0    0  0.00000000000E+00  0.00000000000E+00  0.37345051998E+03  0.37345051998E+03  0.00000000000E+00 0.  1.
         22   -1    0    0    0    0 -0.00000000000E+00 -0.00000000000E+00 -0.17070873092E+03  0.17070873092E+03  0.00000000000E+00 0. -1.
         24    2    1    2    0    0 -0.35951968313E+02  0.39469668978E+02 -0.10616669318E+03  0.14282513165E+03  0.79229115205E+02 0.  0.
         25    2    1    2    0    0  0.48853400942E+02  0.34205202567E+01  0.84254047527E+02  0.15857299879E+03  0.12509315200E+03 0.  0.
        -24    2    1    2    0    0 -0.12901432629E+02 -0.42890189235E+02  0.22465443471E+03  0.24276112045E+03  0.80357521549E+02 0.  0.
        -13    1    3    3    0    0 -0.56609983591E+02  0.10176238128E+02 -0.79611698557E+02  0.98215419419E+02  0.00000000000E+00 0.  1.
         14    1    3    3    0    0  0.20658015277E+02  0.29293430850E+02 -0.26554994622E+02  0.44609712233E+02  0.00000000000E+00 0. -1.
         11    1    5    5    0    0  0.26070609397E+02 -0.96933586117E+01  0.27672067563E+02  0.39234948690E+02  0.00000000000E+00 0. -1.
        -12    1    5    5    0    0 -0.38972042026E+02 -0.33196830623E+02  0.19698236715E+03  0.20352617176E+03  0.00000000000E+00 0.  1.
          5    1    4    4  501    0  0.19896091731E+02 -0.60244537462E+02  0.48117129022E+02  0.79737000605E+02  0.41800000000E+01 0.  1.
         -5    1    4    4    0  501  0.28957309211E+02  0.63665057718E+02  0.36136918505E+02  0.78835998186E+02  0.41800000000E+01 0.  1.
</event>
<event>
11    1  0.8039394E-009  0.1549753E+03  0.7561462E-02  0.1091901E+00
         22   -1    0    0    0    0  0.00000000000E+00  0.00000000000E+00  0.20179235221E+03  0.20179235221E+03  0.00000000000E+00 0. -1.
         22   -1    0    0    0    0 -0.00000000000E+00 -0.00000000000E+00 -0.51434482452E+03  0.51434482452E+03  0.00000000000E+00 0. -1.
         24    2    1    2    0    0 -0.35825140596E+00  0.62705955442E+02 -0.30945020918E+03  0.32630201508E+03  0.82349304138E+02 0.  0.
         25    2    1    2    0    0  0.20618722423E+02 -0.14419186008E+03 -0.11879387534E+03  0.22577886934E+03  0.12509072226E+03 0.  0.
        -24    2    1    2    0    0 -0.20260471017E+02  0.81485904637E+02  0.11569161221E+03  0.16405629232E+03  0.80495208388E+02 0.  0.
        -11    1    3    3    0    0 -0.14685482269E+02  0.25425090391E+02 -0.23586969662E+02  0.37662232391E+02  0.00000000000E+00 0.  1.
         12    1    3    3    0    0  0.14327230863E+02  0.37280865052E+02 -0.28586323952E+03  0.28863978269E+03  0.00000000000E+00 0. -1.
         11    1    5    5    0    0  0.10021049822E+02  0.71729781566E+02  0.11005183855E+03  0.13174593038E+03  0.00000000000E+00 0. -1.
        -12    1    5    5    0    0 -0.30281520839E+02  0.97561230709E+01  0.56397736568E+01  0.32310361938E+02  0.00000000000E+00 0.  1.
          5    1    4    4  501    0  0.68981320117E+02 -0.91110631369E+02 -0.45468895985E+02  0.12306283995E+03  0.41800000000E+01 0. -1.
         -5    1    4    4    0  501 -0.48362597694E+02 -0.53081228710E+02 -0.73324979354E+02  0.10271602939E+03  0.41800000000E+01 0. -1.
</event>
<event>
11    1  0.8039394E-009  0.1348749E+03  0.7561462E-02  0.1113420E+00
         22   -1    0    0    0    0  0.00000000000E+00  0.00000000000E+00  0.98008182941E+03  0.98008182941E+03  0.00000000000E+00 0.  1.
         22   -1    0    0    0    0 -0.00000000000E+00 -0.00000000000E+00 -0.21212279063E+03  0.21212279063E+03  0.00000000000E+00 0. -1.
        -24    2    1    2    0    0  0.39101422316E+02 -0.32119202621E+02 -0.16845431777E+03  0.19312275519E+03  0.79743194016E+02 0.  0.
         25    2    1    2    0    0 -0.60456733307E+02  0.83267651543E+00  0.13732061797E+03  0.19534569626E+03  0.12508908415E+03 0.  0.
         24    2    1    2    0    0  0.21355310990E+02  0.31286526106E+02  0.79909273859E+03  0.80373616860E+03  0.77509533725E+02 0.  0.
        -11    1    5    5    0    0  0.24265971614E+02  0.52933385447E+02  0.42034432463E+03  0.42435849458E+03  0.00000000000E+00 0.  1.
         12    1    5    5    0    0 -0.29106606234E+01 -0.21646859341E+02  0.37874841396E+03  0.37937767402E+03  0.00000000000E+00 0. -1.
         13    1    3    3    0    0  0.32780248084E+02 -0.63903045400E+01 -0.16259375474E+03  0.16598828193E+03  0.00000000000E+00 0. -1.
        -14    1    3    3    0    0  0.63211742320E+01 -0.25728898081E+02 -0.58605630300E+01  0.27134473261E+02  0.00000000000E+00 0.  1.
          5    1    4    4  501    0 -0.29046003540E+02 -0.54256523129E+02  0.25541141350E+02  0.66762736052E+02  0.41800000000E+01 0. -1.
         -5    1    4    4    0  501 -0.31410729767E+02  0.55089199644E+02  0.11177947662E+03  0.12858296020E+03  0.41800000000E+01 0. -1.
</event>
<event>
11    1  0.8039394E-009  0.2085040E+03  0.7561462E-02  0.1048668E+00
         22   -1    0    0    0    0  0.00000000000E+00  0.00000000000E+00  0.23422273943E+03  0.23422273943E+03  0.00000000000E+00 0.  1.
         22   -1    0    0    0    0 -0.00000000000E+00 -0.00000000000E+00 -0.24727938478E+04  0.24727938478E+04  0.00000000000E+00 0.  1.
         24    2    1    2    0    0 -0.33336588865E+02  0.41301768272E+02 -0.22870021775E+04  0.22890155647E+04  0.79975818930E+02 0.  0.
         25    2    1    2    0    0  0.10132244250E+03  0.12024582305E+03 -0.28968284010E+02  0.20299982235E+03  0.12507786007E+03 0.  0.
        -24    2    1    2    0    0 -0.67985853634E+02 -0.16154759132E+03  0.77399353107E+02  0.21500120014E+03  0.97545659284E+02 0.  0.
        -11    1    3    3    0    0 -0.13234095270E+02  0.42660956183E+02 -0.52456874348E+03  0.52646696487E+03  0.00000000000E+00 0.  1.
         12    1    3    3    0    0 -0.20102493595E+02 -0.13591879110E+01 -0.17624334340E+04  0.17625485999E+04  0.00000000000E+00 0. -1.
         11    1    5    5    0    0  0.99022156824E+01 -0.96000056709E+02  0.21541359757E+02  0.98884250231E+02  0.00000000000E+00 0. -1.
        -12    1    5    5    0    0 -0.77888069316E+02 -0.65547534613E+02  0.55857993350E+02  0.11611694991E+03  0.00000000000E+00 0.  1.
          5    1    4    4  501    0 -0.70120939592E+01 -0.88647389989E+01  0.23518480456E+02  0.26426206352E+02  0.41800000000E+01 0. -1.
         -5    1    4    4    0  501  0.10833453646E+03  0.12911056205E+03 -0.52486764465E+02  0.17657361600E+03  0.41800000000E+01 0. -1.
</event>
<event>
11    1  0.8039394E-009  0.1494681E+03  0.7561462E-02  0.1097423E+00
         22   -1    0    0    0    0  0.00000000000E+00  0.00000000000E+00  0.14907071132E+03  0.14907071132E+03  0.00000000000E+00 0. -1.
         22   -1    0    0    0    0 -0.00000000000E+00 -0.00000000000E+00 -0.55523962839E+03  0.55523962839E+03  0.00000000000E+00 0.  1.
         24    2    1    2    0    0 -0.31748464839E+02  0.35771918133E+02 -0.32304287876E+03  0.33603047340E+03  0.79197111021E+02 0.  0.
         25    2    1    2    0    0 -0.51652647911E+02 -0.11388761746E+02 -0.17363575376E+03  0.22044208719E+03  0.12509052278E+03 0.  0.
        -24    2    1    2    0    0  0.83401112750E+02 -0.24383156387E+02  0.90509715455E+02  0.14783777912E+03  0.78190257827E+02 0.  0.
        -13    1    3    3    0    0 -0.54721054705E+02  0.95726277641E+01 -0.23171780748E+03  0.23828380418E+03  0.00000000000E+00 0.  1.
         14    1    3    3    0    0  0.22972589866E+02  0.26199290369E+02 -0.91325071277E+02  0.97746669226E+02  0.00000000000E+00 0. -1.
         11    1    5    5    0    0  0.91013861348E+02 -0.36877183256E+02  0.89990250757E+02  0.13319795356E+03  0.00000000000E+00 0. -1.
        -12    1    5    5    0    0 -0.76127485983E+01  0.12494026869E+02  0.51946469813E+00  0.14639825552E+02  0.00000000000E+00 0.  1.
          5    1    4    4  501    0  0.10762827368E+02 -0.10728727331E+02 -0.15410005730E+03  0.15490398349E+03  0.41800000000E+01 0.  1.
         -5    1    4    4    0  501 -0.62415475279E+02 -0.66003441491E+00 -0.19535696462E+02  0.65538103695E+02  0.41800000000E+01 0.  1.
</event>
<event>
11    1  0.8039394E-009  0.1500359E+03  0.7561462E-02  0.1096842E+00
         22   -1    0    0    0    0  0.00000000000E+00  0.00000000000E+00  0.12416431428E+03  0.12416431428E+03  0.00000000000E+00 0. -1.
         22   -1    0    0    0    0 -0.00000000000E+00 -0.00000000000E+00 -0.13932123591E+04  0.13932123591E+04  0.00000000000E+00 0. -1.
        -24    2    1    2    0    0  0.47564678144E+02 -0.68126967691E+02 -0.12056550352E+04  0.12109328045E+04  0.76488632300E+02 0.  0.
         25    2    1    2    0    0 -0.77674539840E+02  0.40746529121E+02 -0.12541900375E+03  0.19769147251E+03  0.12513344087E+03 0.  0.
         24    2    1    2    0    0  0.30109861697E+02  0.27380438570E+02  0.62025994077E+02  0.10875239640E+03  0.79520862627E+02 0.  0.
        -11    1    5    5    0    0  0.25461355688E+02 -0.23311595894E+02  0.99435676215E+01  0.35924722318E+02  0.00000000000E+00 0.  1.
         12    1    5    5    0    0  0.46485060090E+01  0.50692034464E+02  0.52082426456E+02  0.72827674079E+02  0.00000000000E+00 0. -1.
         13    1    3    3    0    0  0.28188890700E+02 -0.19132045016E+02 -0.90880886200E+03  0.90944719273E+03  0.00000000000E+00 0. -1.
        -14    1    3    3    0    0  0.19375787444E+02 -0.48994922674E+02 -0.29684617315E+03  0.30148561176E+03  0.00000000000E+00 0.  1.
          5    1    4    4  501    0 -0.10710143929E+03  0.51225884179E+02 -0.11256416262E+03  0.16365504152E+03  0.41800000000E+01 0. -1.
         -5    1    4    4    0  501  0.29426899450E+02 -0.10479355058E+02 -0.12854841130E+02  0.34036430984E+02  0.41800000000E+01 0. -1.
</event>
<event>
11    1  0.8039394E-009  0.1668012E+03  0.7561462E-02  0.1080849E+00
         22   -1    0    0    0    0  0.00000000000E+00  0.00000000000E+00  0.61230676541E+03  0.61230676541E+03  0.00000000000E+00 0. -1.
         22   -1    0    0    0    0 -0.00000000000E+00 -0.00000000000E+00 -0.68041734970E+02  0.68041734970E+02  0.00000000000E+00 0.  1.
        -24    2    1    2    0    0  0.42712456656E+02 -0.21200541781E+02  0.72092349105E+02  0.11731629282E+03  0.79322057692E+02 0.  0.
         25    2    1    2    0    0  0.62336924125E+02 -0.59571685070E+02  0.21851775400E+03  0.26614394638E+03  0.12509162086E+03 0.  0.
         24    2    1    2    0    0 -0.10504938078E+03  0.80772226851E+02  0.25365492733E+03  0.29688826118E+03  0.79008179528E+02 0.  0.
        -11    1    5    5    0    0 -0.95303355501E+02  0.72608139098E+02  0.14774960404E+03  0.19022254579E+03  0.00000000000E+00 0.  1.
         12    1    5    5    0    0 -0.97460252803E+01  0.81640877535E+01  0.10590532329E+03  0.10666571539E+03  0.00000000000E+00 0. -1.
         11    1    3    3    0    0  0.13258131081E+02  0.69854421422E+00  0.78881030561E+02  0.79990518101E+02  0.00000000000E+00 0. -1.
        -12    1    3    3    0    0  0.29454325576E+02 -0.21899085995E+02 -0.67886814559E+01  0.37325774720E+02  0.00000000000E+00 0.  1.
          5    1    4    4  501    0 -0.44939628796E+01  0.85175527590E+01  0.14563058758E+03  0.14600850950E+03  0.41800000000E+01 0.  1.
         -5    1    4    4    0  501  0.66830887004E+02 -0.68089237829E+02  0.72887166426E+02  0.12013543688E+03  0.41800000000E+01 0.  1.
</event>
<event>
11    1  0.8039394E-009  0.1283215E+03  0.7561462E-02  0.1121349E+00
         22   -1    0    0    0    0  0.00000000000E+00  0.00000000000E+00  0.17531592616E+03  0.17531592616E+03  0.00000000000E+00 0. -1.
         22   -1    0    0    0    0 -0.00000000000E+00 -0.00000000000E+00 -0.13693101086E+04  0.13693101086E+04  0.00000000000E+00 0. -1.
         24    2    1    2    0    0 -0.21445042604E+02  0.18452173434E+02 -0.12105420114E+04  0.12140258826E+04  0.87444322459E+02 0.  0.
         25    2    1    2    0    0  0.40257333271E+02 -0.48346594846E+01 -0.11475740039E+03  0.17453055311E+03  0.12509047210E+03 0.  0.
        -24    2    1    2    0    0 -0.18812290667E+02 -0.13617513949E+02  0.13130522938E+03  0.15606959908E+03  0.81100662942E+02 0.  0.
        -11    1    3    3    0    0 -0.40998750305E+02 -0.20137427928E+02 -0.46768867757E+03  0.46991394176E+03  0.00000000000E+00 0.  1.
         12    1    3    3    0    0  0.19553707701E+02  0.38589601362E+02 -0.74285333388E+03  0.74411194082E+03  0.00000000000E+00 0. -1.
         13    1    5    5    0    0 -0.25843582857E+02 -0.42694268539E+01  0.13940319503E+03  0.14184276353E+03  0.00000000000E+00 0. -1.
        -14    1    5    5    0    0  0.70312921895E+01 -0.93480870953E+01 -0.80979656523E+01  0.14226835555E+02  0.00000000000E+00 0.  1.
          5    1    4    4  501    0  0.19285135886E+02 -0.62896616428E+02 -0.79648729132E+02  0.10338903847E+03  0.41800000000E+01 0.  1.
         -5    1    4    4    0  501  0.20972197385E+02  0.58061956943E+02 -0.35108671253E+02  0.71141514634E+02  0.41800000000E+01 0.  1.
</event>
<event>
11    1  0.8039394E-009  0.1774801E+03  0.7561462E-02  0.1071700E+00
         22   -1    0    0    0    0  0.00000000000E+00  0.00000000000E+00  0.33987529749E+04  0.33987529749E+04  0.00000000000E+00 0.  1.
         22   -1    0    0    0    0 -0.00000000000E+00 -0.00000000000E+00 -0.11902962959E+04  0.11902962959E+04  0.00000000000E+00 0.  1.
        -24    2    1    2    0    0  0.56352448320E+02 -0.11017278831E+03 -0.10581579803E+04  0.10685849900E+04  0.82836754533E+02 0.  0.
         25    2    1    2    0    0 -0.10792075418E+03  0.12533845222E+03 -0.41049138833E+02  0.21139919927E+03  0.12509185771E+03 0.  0.
         24    2    1    2    0    0  0.51568305864E+02 -0.15165663916E+02  0.33076637981E+04  0.33090650816E+04  0.79891333543E+02 0.  0.
        -13    1    5    5    0    0  0.30711613494E+02  0.65133890407E+01  0.29415199329E+04  0.29416874652E+04  0.00000000000E+00 0.  1.
         14    1    5    5    0    0  0.20856692370E+02 -0.21679052956E+02  0.36614386525E+03  0.36737761637E+03  0.00000000000E+00 0. -1.
         13    1    3    3    0    0 -0.13730624002E+02 -0.34989486066E+02 -0.15035483421E+03  0.15498183874E+03  0.00000000000E+00 0. -1.
        -14    1    3    3    0    0  0.70083072322E+02 -0.75183302241E+02 -0.90780314605E+03  0.91360315123E+03  0.00000000000E+00 0.  1.
          5    1    4    4  501    0 -0.31900790001E+02 -0.46223388632E+01  0.30568357027E+02  0.44619763229E+02  0.41800000000E+01 0. -1.
         -5    1    4    4    0  501 -0.76019964183E+02  0.12996079109E+03 -0.71617495860E+02  0.16677943604E+03  0.41800000000E+01 0. -1.
</event>
<event>
11    1  0.8039394E-009  0.1404646E+03  0.7561462E-02  0.1107041E+00
         22   -1    0    0    0    0  0.00000000000E+00  0.00000000000E+00  0.13705831930E+03  0.13705831930E+03  0.00000000000E+00 0. -1.
         22   -1    0    0    0    0 -0.00000000000E+00 -0.00000000000E+00 -0.82433565314E+03  0.82433565314E+03  0.00000000000E+00 0. -1.
        -24    2    1    2    0    0 -0.62780516473E+01 -0.43703824415E+02 -0.53314970646E+03  0.54091456200E+03  0.79940701090E+02 0.  0.
         25    2    1    2    0    0 -0.57511019462E+02  0.49030729274E+02 -0.24212238729E+03  0.28281104199E+03  0.12508918926E+03 0.  0.
         24    2    1    2    0    0  0.63789071109E+02 -0.53269048594E+01  0.87994759921E+02  0.13766836845E+03  0.84333151188E+02 0.  0.
        -13    1    5    5    0    0  0.46922339303E+02  0.15016282135E+02  0.37874829140E+01  0.49411938655E+02  0.00000000000E+00 0.  1.
         14    1    5    5    0    0  0.16866731806E+02 -0.20343186994E+02  0.84207277007E+02  0.88256429793E+02  0.00000000000E+00 0. -1.
         11    1    3    3    0    0  0.20162406325E+02 -0.56722812003E+02 -0.30642639634E+03  0.31228374342E+03  0.00000000000E+00 0. -1.
        -12    1    3    3    0    0 -0.26440457973E+02  0.13018987588E+02 -0.22672331012E+03  0.22863081859E+03  0.00000000000E+00 0.  1.
          5    1    4    4  501    0 -0.10175573391E+02 -0.36601102828E+02 -0.28070212354E+02  0.47419323526E+02  0.41800000000E+01 0. -1.
         -5    1    4    4    0  501 -0.47335446071E+02  0.85631832102E+02 -0.21405217494E+03  0.23539171846E+03  0.41800000000E+01 0. -1.
</event>
<event>
11    1  0.8039394E-009  0.6650672E+03  0.7561462E-02  0.9085428E-01
         22   -1    0    0    0    0  0.00000000000E+00  0.00000000000E+00  0.13058040588E+04  0.13058040588E+04  0.00000000000E+00 0.  1.
         22   -1    0    0    0    0 -0.00000000000E+00 -0.00000000000E+00 -0.46167289504E+03  0.46167289504E+03  0.00000000000E+00 0. -1.
        -24    2    1    2    0    0  0.70009438931E+02 -0.98826751058E+01 -0.28770495189E+02  0.10913995955E+03  0.78005131692E+02 0.  0.
         25    2    1    2    0    0  0.59775113520E+03 -0.97133762531E+02  0.96987841951E+02  0.62593600922E+03  0.12509140136E+03 0.  0.
         24    2    1    2    0    0 -0.66776057413E+03  0.10701643764E+03  0.77591381700E+03  0.10324009851E+04  0.80329572912E+02 0.  0.
        -11    1    5    5    0    0 -0.63167910144E+03  0.93853474026E+02  0.75429963511E+03  0.98832934861E+03  0.00000000000E+00 0.  1.
         12    1    5    5    0    0 -0.36081472689E+02  0.13162963610E+02  0.21614181889E+02  0.44071636470E+02  0.00000000000E+00 0. -1.
         11    1    3    3    0    0  0.74310186643E+02  0.18249729645E+02 -0.24607987609E+02  0.80377916900E+02  0.00000000000E+00 0. -1.
        -12    1    3    3    0    0 -0.43007477124E+01 -0.28132404751E+02 -0.41625075794E+01  0.28762042648E+02  0.00000000000E+00 0.  1.
          5    1    4    4  501    0  0.50552774916E+03 -0.12691633017E+03  0.76903674366E+02  0.52687541940E+03  0.41800000000E+01 0. -1.
         -5    1    4    4    0  501  0.92223386044E+02  0.29782567641E+02  0.20084167585E+02  0.99060589824E+02  0.41800000000E+01 0. -1.
</event>
<event>
11    1  0.8039394E-009  0.1371926E+03  0.7561462E-02  0.1110734E+00
         22   -1    0    0    0    0  0.00000000000E+00  0.00000000000E+00  0.54788282304E+03  0.54788282304E+03  0.00000000000E+00 0.  1.
         22   -1    0    0    0    0 -0.00000000000E+00 -0.00000000000E+00 -0.23282144944E+04  0.23282144944E+04  0.00000000000E+00 0.  1.
        -24    2    1    2    0    0 -0.42873439210E+02  0.42142088730E+02 -0.20345268271E+04  0.20370124052E+04  0.80660036460E+02 0.  0.
         25    2    1    2    0    0  0.29447192795E+01 -0.17175321226E+02 -0.27411457082E+03  0.30181183566E+03  0.12509165910E+03 0.  0.
         24    2    1    2    0    0  0.39928719931E+02 -0.24966767505E+02  0.52830972657E+03  0.53727307654E+03  0.85636145620E+02 0.  0.
        -13    1    5    5    0    0  0.28432374239E+02 -0.40512906413E+02  0.14016336725E+03  0.14864543387E+03  0.00000000000E+00 0.  1.
         14    1    5    5    0    0  0.11496345691E+02  0.15546138909E+02  0.38814635932E+03  0.38862764268E+03  0.00000000000E+00 0. -1.
         13    1    3    3    0    0 -0.72510763630E+01  0.30733104894E+02 -0.23675385522E+03  0.23885035023E+03  0.00000000000E+00 0. -1.
        -14    1    3    3    0    0 -0.35622362847E+02  0.11408983837E+02 -0.17977729719E+04  0.17981620550E+04  0.00000000000E+00 0.  1.
          5    1    4    4  501    0 -0.38190085782E+02  0.17520196929E+01 -0.24458946451E+03  0.24759448858E+03  0.41800000000E+01 0.  1.
         -5    1    4    4    0  501  0.41134805062E+02 -0.18927340919E+02 -0.29525106312E+02  0.54217347081E+02  0.41800000000E+01 0.  1.
</event>
<event>
11    1  0.8039394E-009  0.1333261E+03  0.7561462E-02  0.1115248E+00
         22   -1    0    0    0    0  0.00000000000E+00  0.00000000000E+00  0.59625816136E+03  0.59625816136E+03  0.00000000000E+00 0.  1.
         22   -1    0    0    0    0 -0.00000000000E+00 -0.00000000000E+00 -0.59902540863E+03  0.59902540863E+03  0.00000000000E+00 0.  1.
        -24    2    1    2    0    0 -0.41973843442E+01  0.22877618412E-01 -0.55835192300E+03  0.56410347527E+03  0.80238658593E+02 0.  0.
         25    2    1    2    0    0  0.66043431296E+01  0.46006697920E+02  0.10190307478E+03  0.16790840737E+03  0.12509501594E+03 0.  0.
         24    2    1    2    0    0 -0.24069587854E+01 -0.46029575538E+02  0.45368160095E+03  0.46327168734E+03  0.81664839315E+02 0.  0.
        -13    1    5    5    0    0  0.21365656626E+02 -0.49472751875E+02  0.40906967747E+03  0.41260398142E+03  0.00000000000E+00 0.  1.
         14    1    5    5    0    0 -0.23772615412E+02  0.34431763365E+01  0.44611923481E+02  0.50667705922E+02  0.00000000000E+00 0. -1.
         13    1    3    3    0    0 -0.34042726782E+02 -0.23286685426E+02 -0.24153143684E+03  0.24502777791E+03  0.00000000000E+00 0. -1.
        -14    1    3    3    0    0  0.29845342438E+02  0.23309563045E+02 -0.31682048617E+03  0.31907569736E+03  0.00000000000E+00 0.  1.
          5    1    4    4  501    0  0.55947124492E+02 -0.11032479188E+02  0.35253241229E+02  0.67171867274E+02  0.41800000000E+01 0. -1.
         -5    1    4    4    0  501 -0.49342781362E+02  0.57039177108E+02  0.66649833556E+02  0.10073654010E+03  0.41800000000E+01 0. -1.
</event>
<event>
11    1  0.8039394E-009  0.1856448E+03  0.7561462E-02  0.1065166E+00
         22   -1    0    0    0    0  0.00000000000E+00  0.00000000000E+00  0.14052494082E+04  0.14052494082E+04  0.00000000000E+00 0.  1.
         22   -1    0    0    0    0 -0.00000000000E+00 -0.00000000000E+00 -0.31964945452E+03  0.31964945452E+03  0.00000000000E+00 0. -1.
         24    2    1    2    0    0  0.59522595902E+02  0.30158928214E+02 -0.24301914793E+03  0.26556939876E+03  0.83763350721E+02 0.  0.
         25    2    1    2    0    0 -0.19180658194E+03 -0.19793421861E+02  0.15899542651E+03  0.27947815226E+03  0.12508775925E+03 0.  0.
        -24    2    1    2    0    0  0.13228398603E+03 -0.10365506353E+02  0.11696236751E+04  0.11798513117E+04  0.80144118167E+02 0.  0.
        -11    1    3    3    0    0  0.47633407838E+02 -0.22345084657E+02 -0.13468598001E+03  0.14459791687E+03  0.00000000000E+00 0.  1.
         12    1    3    3    0    0  0.11889188064E+02  0.52504012872E+02 -0.10833316792E+03  0.12097148189E+03  0.00000000000E+00 0. -1.
         11    1    5    5    0    0  0.11124975383E+03 -0.39339196299E+02  0.95487297627E+03  0.96213641491E+03  0.00000000000E+00 0. -1.
        -12    1    5    5    0    0  0.21034232204E+02  0.28973689946E+02  0.21475069883E+03  0.21771489678E+03  0.00000000000E+00 0.  1.
          5    1    4    4  501    0 -0.16056595237E+03  0.30712926045E+02  0.14445031748E+03  0.21819274852E+03  0.41800000000E+01 0.  1.
         -5    1    4    4    0  501 -0.31240629562E+02 -0.50506347906E+02  0.14545109035E+02  0.61285403735E+02  0.41800000000E+01 0.  1.
</event>
<event>
11    1  0.8039394E-009  0.1636093E+03  0.7561462E-02  0.1083731E+00
         22   -1    0    0    0    0  0.00000000000E+00  0.00000000000E+00  0.54586411907E+02  0.54586411907E+02  0.00000000000E+00 0. -1.
         22   -1    0    0    0    0 -0.00000000000E+00 -0.00000000000E+00 -0.20244889541E+04  0.20244889541E+04  0.00000000000E+00 0. -1.
        -24    2    1    2    0    0 -0.13212400611E+02  0.94333472031E+02 -0.15326251401E+04  0.15382132563E+04  0.89926805743E+02 0.  0.
         25    2    1    2    0    0  0.11412828681E+03 -0.57908728265E+02 -0.30061263128E+03  0.34984916130E+03  0.12509114645E+03 0.  0.
         24    2    1    2    0    0 -0.10091588620E+03 -0.36424743766E+02 -0.13666477082E+03  0.19101294839E+03  0.79359365054E+02 0.  0.
        -11    1    5    5    0    0 -0.91993409128E+02 -0.54150009656E+02 -0.87609017193E+02  0.13809544077E+03  0.00000000000E+00 0.  1.
         12    1    5    5    0    0 -0.89224770723E+01  0.17725265890E+02 -0.49055753630E+02  0.52917507615E+02  0.00000000000E+00 0. -1.
         11    1    3    3    0    0 -0.25600473776E+02  0.65265461294E+02 -0.14045267957E+04  0.14062753943E+04  0.00000000000E+00 0. -1.
        -12    1    3    3    0    0  0.12388073165E+02  0.29068010737E+02 -0.12809834439E+03  0.13193786204E+03  0.00000000000E+00 0.  1.
          5    1    4    4  501    0  0.83849077650E+02 -0.94386081796E+02 -0.25161240194E+03  0.28154160167E+03  0.41800000000E+01 0. -1.
         -5    1    4    4    0  501  0.30279209162E+02  0.36477353531E+02 -0.49000229341E+02  0.68307559637E+02  0.41800000000E+01 0. -1.
</event>
<event>
11    1  0.8039394E-009  0.1921858E+03  0.7561462E-02  0.1060191E+00
         22   -1    0    0    0    0  0.00000000000E+00  0.00000000000E+00  0.14292858171E+04  0.14292858171E+04  0.00000000000E+00 0.  1.
         22   -1    0    0    0    0 -0.00000000000E+00 -0.00000000000E+00 -0.63547666799E+02  0.63547666799E+02  0.00000000000E+00 0. -1.
        -24    2    1    2    0    0 -0.19875895886E+03  0.76765554904E+02  0.44473452279E+03  0.49961837405E+03  0.80197567151E+02 0.  0.
         25    2    1    2    0    0  0.91538561777E+02  0.47762047496E+02  0.25259533572E+03  0.30018718289E+03  0.12508964655E+03 0.  0.
         24    2    1    2    0    0  0.10722039708E+03 -0.12452760240E+03  0.66840829182E+03  0.69302792699E+03  0.80713850753E+02 0.  0.
        -13    1    5    5    0    0  0.10719573959E+02  0.82242511236E+01  0.11515859038E+03  0.11594847352E+03  0.00000000000E+00 0.  1.
         14    1    5    5    0    0  0.96500823122E+02 -0.13275185352E+03  0.55324970144E+03  0.57707945348E+03  0.00000000000E+00 0. -1.
         13    1    3    3    0    0 -0.11314591873E+03  0.44257649668E+02  0.16248665851E+03  0.20288581191E+03  0.00000000000E+00 0. -1.
        -14    1    3    3    0    0 -0.85613040125E+02  0.32507905236E+02  0.28224786428E+03  0.29673256213E+03  0.00000000000E+00 0.  1.
          5    1    4    4  501    0  0.89212435727E+02 -0.11725802453E+02  0.91524707437E+02  0.12841572179E+03  0.41800000000E+01 0. -1.
         -5    1    4    4    0  501  0.23261260494E+01  0.59487849949E+02  0.16107062828E+03  0.17177146110E+03  0.41800000000E+01 0. -1.
</event>
<event>
11    1  0.8039394E-009  0.1415700E+03  0.7561462E-02  0.1105818E+00
         22   -1    0    0    0    0  0.00000000000E+00  0.00000000000E+00  0.21842781930E+02  0.21842781930E+02  0.00000000000E+00 0. -1.
         22   -1    0    0    0    0 -0.00000000000E+00 -0.00000000000E+00 -0.33226923920E+04  0.33226923920E+04  0.00000000000E+00 0. -1.
        -24    2    1    2    0    0 -0.54332257421E+02  0.37223965630E+02 -0.25905594289E+04  0.25927069891E+04  0.82424261574E+02 0.  0.
         25    2    1    2    0    0  0.64186472410E+02 -0.29412053562E+02 -0.58769197176E+03  0.60499199684E+03  0.12509392647E+03 0.  0.
         24    2    1    2    0    0 -0.98542149890E+01 -0.78119120676E+01 -0.12259820938E+03  0.14683618795E+03  0.79827398958E+02 0.  0.
        -13    1    5    5    0    0 -0.13997816196E+02  0.25770610586E+02 -0.10434857186E+03  0.10839136348E+03  0.00000000000E+00 0.  1.
         14    1    5    5    0    0  0.41436012072E+01 -0.33582522654E+02 -0.18249637526E+02  0.38444824471E+02  0.00000000000E+00 0. -1.
         11    1    3    3    0    0 -0.26797971119E+02  0.15623700836E+02 -0.22752474016E+04  0.22754588481E+04  0.00000000000E+00 0. -1.
        -12    1    3    3    0    0 -0.27534286302E+02  0.21600264794E+02 -0.31531202737E+03  0.31724814099E+03  0.00000000000E+00 0.  1.
          5    1    4    4  501    0 -0.19254658085E+02 -0.44957635332E+02 -0.33047896315E+03  0.33410439733E+03  0.41800000000E+01 0.  1.
         -5    1    4    4    0  501  0.83441130495E+02  0.15545581770E+02 -0.25721300861E+03  0.27088759951E+03  0.41800000000E+01 0.  1.
</event>
<event>
11    1  0.8039394E-009  0.1323646E+03  0.7561462E-02  0.1116397E+00
         22   -1    0    0    0    0  0.00000000000E+00  0.00000000000E+00  0.15101294396E+03  0.15101294396E+03  0.00000000000E+00 0.  1.
         22   -1    0    0    0    0 -0.00000000000E+00 -0.00000000000E+00 -0.49118146060E+03  0.49118146060E+03  0.00000000000E+00 0. -1.
         24    2    1    2    0    0  0.13494620823E+02 -0.51629393605E+02 -0.33519911673E+03  0.34970705188E+03  0.84195458318E+02 0.  0.
         25    2    1    2    0    0  0.22764475176E+02  0.36786626561E+01 -0.94925160839E+02  0.15871335550E+03  0.12508952460E+03 0.  0.
        -24    2    1    2    0    0 -0.36259095999E+02  0.47950730949E+02  0.89955760927E+02  0.13377399718E+03  0.78673049739E+02 0.  0.
        -11    1    3    3    0    0  0.27111102172E+02  0.15338062178E+02 -0.11535063810E+03  0.11948237411E+03  0.00000000000E+00 0.  1.
         12    1    3    3    0    0 -0.13616481349E+02 -0.66967455783E+02 -0.21984847863E+03  0.23022467777E+03  0.00000000000E+00 0. -1.
         13    1    5    5    0    0  0.21676618260E+02  0.41657303743E+01  0.62162753201E+01  0.22931881030E+02  0.00000000000E+00 0. -1.
        -14    1    5    5    0    0 -0.57935714259E+02  0.43785000575E+02  0.83739485607E+02  0.11084211615E+03  0.00000000000E+00 0.  1.
          5    1    4    4  501    0 -0.95951878944E+01 -0.13192555839E+02 -0.11542564136E+03  0.11664759854E+03  0.41800000000E+01 0. -1.
         -5    1    4    4    0  501  0.32359663070E+02  0.16871218495E+02  0.20500480523E+02  0.42065756967E+02  0.41800000000E+01 0. -1.
</event>
<event>
11    1  0.8039394E-009  0.1361592E+03  0.7561462E-02  0.1111925E+00
         22   -1    0    0    0    0  0.00000000000E+00  0.00000000000E+00  0.25846368872E+03  0.25846368872E+03  0.00000000000E+00 0.  1.
         22   -1    0    0    0    0 -0.00000000000E+00 -0.00000000000E+00 -0.14351103405E+04  0.14351103405E+04  0.00000000000E+00 0.  1.
        -24    2    1    2    0    0  0.55410997440E+01 -0.25756645515E+01 -0.13038246359E+04  0.13064241118E+04  0.82145851868E+02 0.  0.
         25    2    1    2    0    0  0.35922833022E+02  0.37149020816E+02 -0.80648990327E+02  0.15755257448E+03  0.12509218362E+03 0.  0.
         24    2    1    2    0    0 -0.41463932766E+02 -0.34573356264E+02  0.20782697439E+03  0.22959734297E+03  0.81291536666E+02 0.  0.
        -13    1    5    5    0    0 -0.39158898991E+02  0.44367899119E+01  0.17241320751E+03  0.17685988409E+03  0.00000000000E+00 0.  1.
         14    1    5    5    0    0 -0.23050337756E+01 -0.39010146176E+02  0.35413766874E+02  0.52737458885E+02  0.00000000000E+00 0. -1.
         11    1    3    3    0    0  0.13161240353E+02  0.17773781720E+02 -0.10056003064E+03  0.10296332030E+03  0.00000000000E+00 0. -1.
        -12    1    3    3    0    0 -0.76201406089E+01 -0.20349446272E+02 -0.12032646052E+04  0.12034607915E+04  0.00000000000E+00 0.  1.
          5    1    4    4  501    0 -0.29783302294E+02 -0.20279403892E+02  0.32581328056E+01  0.36419598394E+02  0.41800000000E+01 0. -1.
         -5    1    4    4    0  501  0.65706135317E+02  0.57428424708E+02 -0.83907123132E+02  0.12113297608E+03  0.41800000000E+01 0. -1.
</event>
<event>
11    1  0.8039394E-009  0.1176608E+04  0.7561462E-02  0.8527080E-01
         22   -1    0    0    0    0  0.00000000000E+00  0.00000000000E+00  0.94491688290E+03  0.94491688290E+03  0.00000000000E+00 0. -1.
         22   -1    0    0    0    0 -0.00000000000E+00 -0.00000000000E+00 -0.23249153172E+04  0.23249153172E+04  0.00000000000E+00 0. -1.
         24    2    1    2    0    0  0.69963475572E+03 -0.75377613667E+03 -0.10107811255E+04  0.14441574514E+04  0.79025345845E+02 0.  0.
         25    2    1    2    0    0 -0.11255988943E+04  0.59027168575E+03 -0.80812066895E+02  0.12796761110E+04  0.12508726896E+03 0.  0.
        -24    2    1    2    0    0  0.42596413861E+03  0.16350445091E+03 -0.28840524192E+03  0.54599863771E+03  0.82205693043E+02 0.  0.
        -13    1    3    3    0    0  0.30415379183E+03 -0.33395181897E+03 -0.38970106483E+03  0.59657377281E+03  0.00000000000E+00 0.  1.
         14    1    3    3    0    0  0.39548096390E+03 -0.41982431770E+03 -0.62108006065E+03  0.84758367863E+03  0.00000000000E+00 0. -1.
         13    1    5    5    0    0  0.40371766755E+03  0.14987844650E+03 -0.29105966847E+03  0.51977613877E+03  0.00000000000E+00 0. -1.
        -14    1    5    5    0    0  0.22246471059E+02  0.13626004414E+02  0.26544265518E+01  0.26222498949E+02  0.00000000000E+00 0.  1.
          5    1    4    4  501    0 -0.45779234841E+03  0.26709072425E+03  0.23073546702E+02  0.53052912286E+03  0.41800000000E+01 0. -1.
         -5    1    4    4    0  501 -0.66780654593E+03  0.32318096151E+03 -0.10388561360E+03  0.74914698810E+03  0.41800000000E+01 0. -1.
</event>
<event>
11    1  0.8039394E-009  0.1268735E+03  0.7561462E-02  0.1123171E+00
         22   -1    0    0    0    0  0.00000000000E+00  0.00000000000E+00  0.14697384626E+04  0.14697384626E+04  0.00000000000E+00 0.  1.
         22   -1    0    0    0    0 -0.00000000000E+00 -0.00000000000E+00 -0.12504691973E+03  0.12504691973E+03  0.00000000000E+00 0. -1.
         24    2    1    2    0    0  0.10408779033E+02 -0.24681347401E+01 -0.87997987343E+02  0.11930979432E+03  0.79854535716E+02 0.  0.
         25    2    1    2    0    0 -0.29616328988E+02  0.96549132118E+01  0.18703908931E+03  0.22716232820E+03  0.12509499644E+03 0.  0.
        -24    2    1    2    0    0  0.19207549954E+02 -0.71867784717E+01  0.12456504409E+04  0.12483132598E+04  0.78869473883E+02 0.  0.
        -13    1    3    3    0    0  0.98614674261E+01  0.29866152139E+02 -0.71792102338E+01  0.32261070084E+02  0.00000000000E+00 0.  1.
         14    1    3    3    0    0  0.54731160735E+00 -0.32334286879E+02 -0.80818777109E+02  0.87048724238E+02  0.00000000000E+00 0. -1.
         13    1    5    5    0    0 -0.23735318285E+02 -0.21722443935E+02  0.33698406988E+03  0.33851660706E+03  0.00000000000E+00 0. -1.
        -14    1    5    5    0    0  0.42942868240E+02  0.14535665464E+02  0.90866637101E+03  0.90979665273E+03  0.00000000000E+00 0.  1.
          5    1    4    4  501    0 -0.14051483309E+02  0.67265542847E+02  0.93025240545E+02  0.11572927554E+03  0.41800000000E+01 0. -1.
         -5    1    4    4    0  501 -0.15564845678E+02 -0.57610629635E+02  0.94013848762E+02  0.11143305267E+03  0.41800000000E+01 0. -1.
</event>
<event>
11    1  0.8039394E-009  0.1539491E+03  0.7561462E-02  0.1092911E+00
         22   -1    0    0    0    0  0.00000000000E+00  0.00000000000E+00  0.67156733197E+03  0.67156733197E+03  0.00000000000E+00 0. -1.
         22   -1    0    0    0    0 -0.00000000000E+00 -0.00000000000E+00 -0.48825847143E+03  0.48825847143E+03  0.00000000000E+00 0. -1.
        -24    2    1    2    0    0  0.69384337491E+02 -0.59637313790E+02 -0.44721955096E+03  0.46360773973E+03  0.80969216951E+02 0.  0.
         25    2    1    2    0    0 -0.24928958184E+02  0.53446681323E+02  0.13908607941E+03  0.19613777873E+03  0.12508832903E+03 0.  0.
         24    2    1    2    0    0 -0.44455379307E+02  0.61906324671E+01  0.49144233209E+03  0.50008028494E+03  0.80932817407E+02 0.  0.
        -11    1    5    5    0    0  0.23168342231E+02 -0.39176487192E+01  0.15376630440E+03  0.15555126622E+03  0.00000000000E+00 0.  1.
         12    1    5    5    0    0 -0.67623721538E+02  0.10108281186E+02  0.33767602769E+03  0.34452901872E+03  0.00000000000E+00 0. -1.
         13    1    3    3    0    0  0.75194870885E+02 -0.68526281032E+02 -0.43762852108E+03  0.44929816632E+03  0.00000000000E+00 0. -1.
        -14    1    3    3    0    0 -0.58105333944E+01  0.88889672414E+01 -0.95910298774E+01  0.14309573406E+02  0.00000000000E+00 0.  1.
          5    1    4    4  501    0 -0.60953980075E+02  0.15302515543E+02  0.12755262717E+03  0.14225575477E+03  0.41800000000E+01 0. -1.
         -5    1    4    4    0  501  0.36025021891E+02  0.38144165780E+02  0.11533452244E+02  0.53882023960E+02  0.41800000000E+01 0. -1.
</event>
<event>
11    1  0.8039394E-009  0.1642518E+03  0.7561462E-02  0.1083145E+00
         22   -1    0    0    0    0  0.00000000000E+00  0.00000000000E+00  0.21125269161E+04  0.21125269161E+04  0.00000000000E+00 0. -1.
         22   -1    0    0    0    0 -0.00000000000E+00 -0.00000000000E+00 -0.34362219352E+02  0.34362219352E+02  0.00000000000E+00 0. -1.
        -24    2    1    2    0    0  0.71882845277E+02 -0.33765946334E+02  0.30179552012E+03  0.32197215410E+03  0.79235405434E+02 0.  0.
         25    2    1    2    0    0 -0.12961615980E+03  0.54979240892E+02  0.37349313953E+03  0.41829205427E+03  0.12509217233E+03 0.  0.
         24    2    1    2    0    0  0.57733314523E+02 -0.21213294558E+02  0.14028760371E+04  0.14066249271E+04  0.82154552879E+02 0.  0.
        -13    1    5    5    0    0 -0.14314678416E+02  0.13800882505E+02  0.42872196647E+03  0.42918282691E+03  0.00000000000E+00 0.  1.
         14    1    5    5    0    0  0.72047992938E+02 -0.35014177063E+02  0.97415407067E+03  0.97744210022E+03  0.00000000000E+00 0. -1.
         11    1    3    3    0    0  0.78125699870E+02 -0.73436258862E+00  0.19746487783E+03  0.21235946470E+03  0.00000000000E+00 0. -1.
        -12    1    3    3    0    0 -0.62428545935E+01 -0.33031583745E+02  0.10433064229E+03  0.10961268940E+03  0.00000000000E+00 0.  1.
          5    1    4    4  501    0  0.21666673977E+02  0.22728119380E+02  0.43413841350E+02  0.53742405905E+02  0.41800000000E+01 0. -1.
         -5    1    4    4    0  501 -0.15128283378E+03  0.32251121512E+02  0.33007929818E+03  0.36454964837E+03  0.41800000000E+01 0. -1.
</event>
<event>
11    1  0.8039394E-009  0.1326654E+03  0.7561462E-02  0.1116037E+00
         22   -1    0    0    0    0  0.00000000000E+00  0.00000000000E+00  0.17437196672E+02  0.17437196672E+02  0.00000000000E+00 0.  1.
         22   -1    0    0    0    0 -0.00000000000E+00 -0.00000000000E+00 -0.26862530647E+04  0.26862530647E+04  0.00000000000E+00 0. -1.
        -24    2    1    2    0    0 -0.34309348687E+02 -0.30854464090E+02 -0.18870874453E+04  0.18895024136E+04  0.83613489065E+02 0.  0.
         25    2    1    2    0    0  0.35195312593E+02  0.97252644875E+01 -0.61429396717E+03  0.62796330053E+03  0.12509011913E+03 0.  0.
         24    2    1    2    0    0 -0.88596390677E+00  0.21129199603E+02 -0.16743445551E+03  0.18622454717E+03  0.78727740146E+02 0.  0.
        -13    1    5    5    0    0 -0.34283730197E+02  0.10683667938E-02 -0.39390342536E+02  0.52220429359E+02  0.00000000000E+00 0.  1.
         14    1    5    5    0    0  0.33397766290E+02  0.21128131236E+02 -0.12804411298E+03  0.13400411781E+03  0.00000000000E+00 0. -1.
         13    1    3    3    0    0  0.10711146688E+02 -0.40947652475E+02 -0.12643048340E+04  0.12650131036E+04  0.00000000000E+00 0. -1.
        -14    1    3    3    0    0 -0.45020495374E+02  0.10093188385E+02 -0.62278261127E+03  0.62448931004E+03  0.00000000000E+00 0.  1.
          5    1    4    4  501    0  0.61052781687E+02  0.46346425235E+02 -0.26875845634E+03  0.27950673255E+03  0.41800000000E+01 0. -1.
         -5    1    4    4    0  501 -0.25857469094E+02 -0.36621160748E+02 -0.34553551083E+03  0.34845656798E+03  0.41800000000E+01 0. -1.
</event>
<event>
11    1  0.8039394E-009  0.1292603E+03  0.7561462E-02  0.1120181E+00
         22   -1    0    0    0    0  0.00000000000E+00  0.00000000000E+00  0.11565934888E+04  0.11565934888E+04  0.00000000000E+00 0. -1.
         22   -1    0    0    0    0 -0.00000000000E+00 -0.00000000000E+00 -0.39361058570E+03  0.39361058570E+03  0.00000000000E+00 0.  1.
         24    2    1    2    0    0 -0.25677259070E+02 -0.18565466338E+02 -0.34245149416E+03  0.35318949808E+03  0.80410183019E+02 0.  0.
         25    2    1    2    0    0  0.42934774195E+02  0.24799371333E+02  0.57595531299E+02  0.14636639795E+03  0.12508986197E+03 0.  0.
        -24    2    1    2    0    0 -0.17257515124E+02 -0.62339049953E+01  0.10478388660E+04  0.10506481785E+04  0.74556170080E+02 0.  0.
        -11    1    3    3    0    0 -0.33274755019E+02  0.25127068391E+00 -0.32417931245E+03  0.32588264617E+03  0.00000000000E+00 0.  1.
         12    1    3    3    0    0  0.75974959492E+01 -0.18816737022E+02 -0.18272181711E+02  0.27306851911E+02  0.00000000000E+00 0. -1.
         11    1    5    5    0    0 -0.12055530560E+02  0.14218847766E+02  0.96445451889E+03  0.96463466165E+03  0.00000000000E+00 0. -1.
        -12    1    5    5    0    0 -0.52019845644E+01 -0.20452752762E+02  0.83384347111E+02  0.86013516857E+02  0.00000000000E+00 0.  1.
          5    1    4    4  501    0  0.36368505776E+02  0.40372218578E+02 -0.26420963230E+02  0.60565038953E+02  0.41800000000E+01 0. -1.
         -5    1    4    4    0  501  0.65662684186E+01 -0.15572847245E+02  0.84016494529E+02  0.85801358994E+02  0.41800000000E+01 0. -1.
</event>
<event>
11    1  0.8039394E-009  0.1620611E+03  0.7561462E-02  0.1085155E+00
         22   -1    0    0    0    0  0.00000000000E+00  0.00000000000E+00  0.23061519341E+03  0.23061519341E+03  0.00000000000E+00 0. -1.
         22   -1    0    0    0    0 -0.00000000000E+00 -0.00000000000E+00 -0.31617498181E+03  0.31617498181E+03  0.00000000000E+00 0. -1.
        -24    2    1    2    0    0 -0.10051364526E+03 -0.31254616844E+02 -0.20537553934E+03  0.24416069871E+03  0.79721331390E+02 0.  0.
         25    2    1    2    0    0  0.74782175449E+02  0.67682982914E+02  0.12132520839E+02  0.16114459010E+03  0.12508805265E+03 0.  0.
         24    2    1    2    0    0  0.25731469810E+02 -0.36428366070E+02  0.10768323011E+03  0.14148488641E+03  0.80206986242E+02 0.  0.
        -11    1    5    5    0    0  0.44589878255E+02 -0.31315400425E+02  0.31718268655E+02  0.63047284740E+02  0.00000000000E+00 0.  1.
         12    1    5    5    0    0 -0.18858408445E+02 -0.51129656451E+01  0.75964961454E+02  0.78437601668E+02  0.00000000000E+00 0. -1.
         13    1    3    3    0    0 -0.44306329834E+02 -0.35047156038E+01 -0.16186386727E+03  0.16785483437E+03  0.00000000000E+00 0. -1.
        -14    1    3    3    0    0 -0.56207315425E+02 -0.27749901240E+02 -0.43511672072E+02  0.76305864340E+02  0.00000000000E+00 0.  1.
          5    1    4    4  501    0  0.56333666134E+01 -0.25527166542E+02 -0.27750568585E+02  0.38352803129E+02  0.41800000000E+01 0. -1.
         -5    1    4    4    0  501  0.69148808835E+02  0.93210149455E+02  0.39883089424E+02  0.12279178697E+03  0.41800000000E+01 0. -1.
</event>
<event>
11    1  0.8039394E-009  0.2481541E+03  0.7561462E-02  0.1024887E+00
         22   -1    0    0    0    0  0.00000000000E+00  0.00000000000E+00  0.80606605567E+03  0.80606605567E+03  0.00000000000E+00 0.  1.
         22   -1    0    0    0    0 -0.00000000000E+00 -0.00000000000E+00 -0.11119851309E+04  0.11119851309E+04  0.00000000000E+00 0.  1.
        -24    2    1    2    0    0 -0.16464290408E+03 -0.20073288321E+03 -0.76290340576E+03  0.80977813376E+03  0.79486119063E+02 0.  0.
         25    2    1    2    0    0  0.80997487034E+02  0.13244706513E+03 -0.28855981146E+03  0.35073852985E+03  0.12509170063E+03 0.  0.
         24    2    1    2    0    0  0.83645417041E+02  0.68285818085E+02  0.74554414196E+03  0.75753452299E+03  0.79768271662E+02 0.  0.
        -13    1    5    5    0    0  0.32329306583E+01  0.47108411479E+02  0.36291064795E+03  0.36596966086E+03  0.00000000000E+00 0.  1.
         14    1    5    5    0    0  0.80412486383E+02  0.21177406607E+02  0.38263349401E+03  0.39156486213E+03  0.00000000000E+00 0. -1.
         11    1    3    3    0    0 -0.40610007881E+02 -0.66054432150E+01 -0.11516842044E+03  0.12229705510E+03  0.00000000000E+00 0. -1.
        -12    1    3    3    0    0 -0.12403289619E+03 -0.19412744000E+03 -0.64773498532E+03  0.68748107865E+03  0.00000000000E+00 0.  1.
          5    1    4    4  501    0 -0.31579039443E+02  0.35310462627E+02 -0.98594749895E+02  0.10946443080E+03  0.41800000000E+01 0.  1.
         -5    1    4    4    0  501  0.11257652648E+03  0.97136602502E+02 -0.18996506156E+03  0.24127409905E+03  0.41800000000E+01 0.  1.
</event>
<event>
11    1  0.8039394E-009  0.1704669E+03  0.7561462E-02  0.1077626E+00
         22   -1    0    0    0    0  0.00000000000E+00  0.00000000000E+00  0.30413876506E+03  0.30413876506E+03  0.00000000000E+00 0. -1.
         22   -1    0    0    0    0 -0.00000000000E+00 -0.00000000000E+00 -0.12714266700E+04  0.12714266700E+04  0.00000000000E+00 0. -1.
         24    2    1    2    0    0  0.48633339201E+02 -0.12307299906E+02 -0.11466851033E+04  0.11506619778E+04  0.81360860782E+02 0.  0.
         25    2    1    2    0    0  0.40647499575E+02 -0.73036132298E+02 -0.44808425753E+02  0.15697050524E+03  0.12508176787E+03 0.  0.
        -24    2    1    2    0    0 -0.89280838776E+02  0.85343432203E+02  0.22420562418E+03  0.26793295198E+03  0.79153870716E+02 0.  0.
        -13    1    3    3    0    0  0.37589325386E+01 -0.13997314608E+02 -0.32650594549E+02  0.35722761854E+02  0.00000000000E+00 0.  1.
         14    1    3    3    0    0  0.44874406662E+02  0.16900147025E+01 -0.11140345088E+04  0.11149392160E+04  0.00000000000E+00 0. -1.
         11    1    5    5    0    0 -0.65449415248E+02  0.47980683892E+02  0.20336891798E+03  0.21896275662E+03  0.00000000000E+00 0. -1.
        -12    1    5    5    0    0 -0.23831423527E+02  0.37362748311E+02  0.20836706195E+02  0.48970195362E+02  0.00000000000E+00 0.  1.
          5    1    4    4  501    0 -0.14408937899E+02 -0.89397083416E+02 -0.40313721954E+02  0.99207482543E+02  0.41800000000E+01 0.  1.
         -5    1    4    4    0  501  0.55056437474E+02  0.16360951119E+02 -0.44947037983E+01  0.57763022696E+02  0.41800000000E+01 0.  1.
</event>
<event>
11    1  0.8039394E-009  0.1498117E+03  0.7561462E-02  0.1097071E+00
         22   -1    0    0    0    0  0.00000000000E+00  0.00000000000E+00  0.72530502244E+03  0.72530502244E+03  0.00000000000E+00 0.  1.
         22   -1    0    0    0    0 -0.00000000000E+00 -0.00000000000E+00 -0.80538369368E+03  0.80538369368E+03  0.00000000000E+00 0. -1.
         24    2    1    2    0    0  0.17089374067E+02  0.84471340634E+02 -0.66465396700E+03  0.67505565165E+03  0.80670830428E+02 0.  0.
         25    2    1    2    0    0 -0.62864362936E+02 -0.39752649262E+02 -0.91469163698E+02  0.17189311289E+03  0.12509369729E+03 0.  0.
        -24    2    1    2    0    0  0.45774988869E+02 -0.44718691372E+02  0.67604445945E+03  0.68373995158E+03  0.79806636751E+02 0.  0.
        -11    1    3    3    0    0 -0.34425700893E+01 -0.14856201101E+01  0.73725041986E+00  0.38212424829E+01  0.00000000000E+00 0.  1.
         12    1    3    3    0    0  0.20531944156E+02  0.85956960744E+02 -0.66539121742E+03  0.67123440917E+03  0.00000000000E+00 0. -1.
         13    1    5    5    0    0 -0.13761733007E+02 -0.13397714668E+02  0.42554187739E+02  0.46687717311E+02  0.00000000000E+00 0. -1.
        -14    1    5    5    0    0  0.59536721876E+02 -0.31320976704E+02  0.63349027171E+03  0.63705223427E+03  0.00000000000E+00 0.  1.
          5    1    4    4  501    0 -0.60365823868E+02  0.35457193330E+02 -0.45967743713E+02  0.83855537159E+02  0.41800000000E+01 0.  1.
         -5    1    4    4    0  501 -0.24985390682E+01 -0.75209842591E+02 -0.45501419985E+02  0.88037575732E+02  0.41800000000E+01 0.  1.
</event>
<event>
11    1  0.8039394E-009  0.1346509E+03  0.7561462E-02  0.1113683E+00
         22   -1    0    0    0    0  0.00000000000E+00  0.00000000000E+00  0.91702685367E+02  0.91702685367E+02  0.00000000000E+00 0.  1.
         22   -1    0    0    0    0 -0.00000000000E+00 -0.00000000000E+00 -0.13228107191E+04  0.13228107191E+04  0.00000000000E+00 0.  1.
         24    2    1    2    0    0 -0.52349281019E+02  0.14960264498E+02 -0.11097712774E+04  0.11140364468E+04  0.80750603579E+02 0.  0.
         25    2    1    2    0    0  0.34632415830E+01  0.62589820364E+01 -0.15405260696E+03  0.19857307978E+03  0.12509154010E+03 0.  0.
        -24    2    1    2    0    0  0.48886039436E+02 -0.21219246534E+02  0.32715850636E+02  0.10190387785E+03  0.80460997774E+02 0.  0.
        -11    1    3    3    0    0 -0.63816098629E+02  0.35822012118E+02 -0.87864866611E+03  0.88169109639E+03  0.00000000000E+00 0.  1.
         12    1    3    3    0    0  0.11466817611E+02 -0.20861747621E+02 -0.23112261130E+03  0.23234535044E+03  0.00000000000E+00 0. -1.
         11    1    5    5    0    0 -0.17083875597E+01  0.15113075932E+02 -0.16557580342E+02  0.22482818305E+02  0.00000000000E+00 0. -1.
        -12    1    5    5    0    0  0.50594426995E+02 -0.36332322466E+02  0.49273430978E+02  0.79421059544E+02  0.00000000000E+00 0.  1.
          5    1    4    4  501    0  0.49524732446E+02  0.28005621320E+01 -0.14225920500E+03  0.15071727200E+03  0.41800000000E+01 0. -1.
         -5    1    4    4    0  501 -0.46061490863E+02  0.34584199044E+01 -0.11793401964E+02  0.47855807784E+02  0.41800000000E+01 0. -1.
</event>
<event>
11    1  0.1459207E-008  0.1549304E+03  0.7561462E-02  0.1091945E+00
         22   -1    0    0    0    0  0.00000000000E+00  0.00000000000E+00  0.31723657512E+03  0.31723657512E+03  0.00000000000E+00 0. -1.
         22   -1    0    0    0    0 -0.00000000000E+00 -0.00000000000E+00 -0.25523742931E+04  0.25523742931E+04  0.00000000000E+00 0. -1.
         24    2    1    2    0    0  0.46720378993E+02  0.49456203176E+02 -0.16417111793E+04  0.16450443085E+04  0.79539115198E+02 0.  0.
         25    2    1    2    0    0 -0.13128481202E+03 -0.81922068521E+02 -0.88560979575E+03  0.90768830868E+03  0.12508568343E+03 0.  0.
        -24    2    1    2    0    0  0.84564433031E+02  0.32465865345E+02  0.29218325712E+03  0.31687825099E+03  0.82677653964E+02 0.  0.
        -11    1    3    3    0    0 -0.12230764951E+02  0.10333202313E+02 -0.85710745296E+03  0.85725699332E+03  0.00000000000E+00 0.  1.
         12    1    3    3    0    0  0.58951143944E+02  0.39123000863E+02 -0.78460372638E+03  0.78778731522E+03  0.00000000000E+00 0. -1.
         13    1    5    5    0    0  0.95842526564E+02  0.39991477677E+02  0.28004238228E+03  0.29867849615E+03  0.00000000000E+00 0. -1.
        -14    1    5    5    0    0 -0.11278093533E+02 -0.75256123325E+01  0.12140874836E+02  0.18199754847E+02  0.00000000000E+00 0.  1.
          5    1    4    4  501    0 -0.12598158877E+03 -0.10101277125E+03 -0.86000736962E+03  0.87504576387E+03  0.41800000000E+01 0. -1.
         -5    1    4    4    0  501 -0.53032232565E+01  0.19090702733E+02 -0.25602426133E+02  0.32642544810E+02  0.41800000000E+01 0. -1.
</event>
<event>
11    1  0.8039394E-009  0.1385179E+03  0.7561462E-02  0.1109225E+00
         22   -1    0    0    0    0  0.00000000000E+00  0.00000000000E+00  0.60471631372E+03  0.60471631372E+03  0.00000000000E+00 0. -1.
         22   -1    0    0    0    0 -0.00000000000E+00 -0.00000000000E+00 -0.48147772386E+03  0.48147772386E+03  0.00000000000E+00 0.  1.
        -24    2    1    2    0    0 -0.18850673140E+02 -0.57565249678E+02 -0.38774037010E+03  0.40085669684E+03  0.81696945771E+02 0.  0.
         25    2    1    2    0    0  0.43793415968E+02  0.37625306473E+02 -0.26984752904E+02  0.14039004445E+03  0.12509061004E+03 0.  0.
         24    2    1    2    0    0 -0.24942742829E+02  0.19939943205E+02  0.53796371287E+03  0.54494729628E+03  0.80887932378E+02 0.  0.
        -13    1    5    5    0    0 -0.29047039493E+02  0.14890331862E+02  0.73314599988E+02  0.80252620254E+02  0.00000000000E+00 0.  1.
         14    1    5    5    0    0  0.41042966639E+01  0.50496113435E+01  0.46464911288E+03  0.46469467603E+03  0.00000000000E+00 0. -1.
         13    1    3    3    0    0  0.30703847094E+02 -0.10509461802E+02 -0.15116290883E+03  0.15460724439E+03  0.00000000000E+00 0. -1.
        -14    1    3    3    0    0 -0.49554520234E+02 -0.47055787876E+02 -0.23657746128E+03  0.24624945245E+03  0.00000000000E+00 0.  1.
          5    1    4    4  501    0  0.72946432144E+02  0.72895621955E+01 -0.53169986378E+02  0.90657815609E+02  0.41800000000E+01 0.  1.
         -5    1    4    4    0  501 -0.29153016176E+02  0.30335744278E+02  0.26185233474E+02  0.49732228837E+02  0.41800000000E+01 0.  1.
</event>
<event>
11    1  0.8039394E-009  0.1474540E+03  0.7561462E-02  0.1099509E+00
         22   -1    0    0    0    0  0.00000000000E+00  0.00000000000E+00  0.25987036063E+03  0.25987036063E+03  0.00000000000E+00 0.  1.
         22   -1    0    0    0    0 -0.00000000000E+00 -0.00000000000E+00 -0.29961848490E+03  0.29961848490E+03  0.00000000000E+00 0.  1.
        -24    2    1    2    0    0  0.60415734687E+02  0.49984906624E+02 -0.23343689284E+03  0.26014348723E+03  0.83864766877E+02 0.  0.
         25    2    1    2    0    0 -0.58234373930E+02 -0.46489776790E+02  0.10313614394E+03  0.17842849170E+03  0.12508845194E+03 0.  0.
         24    2    1    2    0    0 -0.21813607562E+01 -0.34951298340E+01  0.90552624628E+02  0.12091686661E+03  0.80025849176E+02 0.  0.
        -11    1    5    5    0    0 -0.10456397985E+02 -0.27417948797E+02  0.90984629399E+02  0.95599597080E+02  0.00000000000E+00 0.  1.
         12    1    5    5    0    0  0.82750372284E+01  0.23922818963E+02 -0.43200477077E+00  0.25317269529E+02  0.00000000000E+00 0. -1.
         13    1    3    3    0    0  0.54804429905E+02  0.59094199392E+02 -0.11064665989E+03  0.13688803193E+03  0.00000000000E+00 0. -1.
        -14    1    3    3    0    0  0.56113047812E+01 -0.91092927672E+01 -0.12279023294E+03  0.12325545531E+03  0.00000000000E+00 0.  1.
          5    1    4    4  501    0  0.23069664403E+02 -0.58471040704E+02  0.50575929504E+02  0.80786564860E+02  0.41800000000E+01 0.  1.
         -5    1    4    4    0  501 -0.81304038334E+02  0.11981263914E+02  0.52560214438E+02  0.97641926836E+02  0.41800000000E+01 0.  1.
</event>
<event>
11    1  0.8039394E-009  0.4957374E+03  0.7561462E-02  0.9403097E-01
         22   -1    0    0    0    0  0.00000000000E+00  0.00000000000E+00  0.12613868800E+04  0.12613868800E+04  0.00000000000E+00 0.  1.
         22   -1    0    0    0    0 -0.00000000000E+00 -0.00000000000E+00 -0.54407584661E+03  0.54407584661E+03  0.00000000000E+00 0.  1.
         24    2    1    2    0    0  0.53588555929E+02 -0.36687637722E+02 -0.72885292008E+01  0.10447041328E+03  0.81506002877E+02 0.  0.
         25    2    1    2    0    0  0.90612288826E+02  0.49190560421E+03 -0.27926030038E+03  0.58635819605E+03  0.12509159988E+03 0.  0.
        -24    2    1    2    0    0 -0.14420084475E+03 -0.45521796649E+03  0.10038598630E+04  0.11146341173E+04  0.81592342119E+02 0.  0.
        -13    1    3    3    0    0  0.16013308676E+02 -0.47871794529E+02 -0.30433803273E+02  0.58943626863E+02  0.00000000000E+00 0.  1.
         14    1    3    3    0    0  0.37575247253E+02  0.11184156807E+02  0.23145274072E+02  0.45526786418E+02  0.00000000000E+00 0. -1.
         13    1    5    5    0    0 -0.11747662833E+02 -0.90945267328E+01  0.66129309903E+02  0.67777604168E+02  0.00000000000E+00 0. -1.
        -14    1    5    5    0    0 -0.13245318192E+03 -0.44612343976E+03  0.93773055309E+03  0.10468565131E+04  0.00000000000E+00 0.  1.
          5    1    4    4  501    0  0.55709546140E+02  0.63641592997E+02 -0.31560275604E+02  0.90373277503E+02  0.41800000000E+01 0. -1.
         -5    1    4    4    0  501  0.34902742685E+02  0.42826401122E+03 -0.24770002477E+03  0.49598491854E+03  0.41800000000E+01 0. -1.
</event>
<event>
11    1  0.8039394E-009  0.1606547E+03  0.7561462E-02  0.1086463E+00
         22   -1    0    0    0    0  0.00000000000E+00  0.00000000000E+00  0.17763527523E+03  0.17763527523E+03  0.00000000000E+00 0.  1.
         22   -1    0    0    0    0 -0.00000000000E+00 -0.00000000000E+00 -0.25268620364E+04  0.25268620364E+04  0.00000000000E+00 0. -1.
         24    2    1    2    0    0 -0.54560478342E+02 -0.85316663842E+02 -0.12415581941E+04  0.12480709091E+04  0.77191100063E+02 0.  0.
         25    2    1    2    0    0  0.15074712608E+03  0.11024251204E+03 -0.12471320299E+04  0.12672265919E+04  0.12508728011E+03 0.  0.
        -24    2    1    2    0    0 -0.96186647738E+02 -0.24925848203E+02  0.13946346286E+03  0.18919981061E+03  0.80457080187E+02 0.  0.
        -11    1    3    3    0    0  0.13040042717E+00 -0.34959068713E+02 -0.15153092156E+03  0.15551132974E+03  0.00000000000E+00 0.  1.
         12    1    3    3    0    0 -0.54690878769E+02 -0.50357595128E+02 -0.10900272725E+04  0.10925595794E+04  0.00000000000E+00 0. -1.
         13    1    5    5    0    0 -0.17374045721E+02 -0.67199295058E+01 -0.85725437507E+01  0.20506180132E+02  0.00000000000E+00 0. -1.
        -14    1    5    5    0    0 -0.78812602018E+02 -0.18205918697E+02  0.14803600661E+03  0.16869363048E+03  0.00000000000E+00 0.  1.
          5    1    4    4  501    0  0.54825434098E+02  0.27515103684E+02 -0.14054455719E+03  0.15340519584E+03  0.41800000000E+01 0. -1.
         -5    1    4    4    0  501  0.95921691982E+02  0.82727408361E+02 -0.11065874727E+04  0.11138213960E+04  0.41800000000E+01 0. -1.
</event>
<event>
11    1  0.8039394E-009  0.1362931E+03  0.7561462E-02  0.1111770E+00
         22   -1    0    0    0    0  0.00000000000E+00  0.00000000000E+00  0.23587927556E+03  0.23587927556E+03  0.00000000000E+00 0. -1.
         22   -1    0    0    0    0 -0.00000000000E+00 -0.00000000000E+00 -0.11529133406E+04  0.11529133406E+04  0.00000000000E+00 0. -1.
        -24    2    1    2    0    0  0.53743809177E+02 -0.40835463188E+01 -0.10964343122E+04  0.11014490529E+04  0.90092966698E+02 0.  0.
         25    2    1    2    0    0 -0.67721084422E+02  0.23370531442E+01  0.12314897136E+03  0.18816050085E+03  0.12508836013E+03 0.  0.
         24    2    1    2    0    0  0.13977275245E+02  0.17464931746E+01  0.56251275833E+02  0.99183062425E+02  0.80465268144E+02 0.  0.
        -13    1    5    5    0    0  0.37282065818E+00 -0.19807760115E+02  0.68209799708E+02  0.71028607844E+02  0.00000000000E+00 0.  1.
         14    1    5    5    0    0  0.13604454587E+02  0.21554253289E+02 -0.11958523875E+02  0.28154454581E+02  0.00000000000E+00 0. -1.
         11    1    3    3    0    0  0.36110650089E+02  0.38010259516E+02 -0.77754163755E+03  0.77930722889E+03  0.00000000000E+00 0. -1.
        -12    1    3    3    0    0  0.17633159088E+02 -0.42093805835E+02 -0.31889267470E+03  0.32214182399E+03  0.00000000000E+00 0.  1.
          5    1    4    4  501    0 -0.33473331815E+02 -0.18831118133E+02 -0.17054801635E+02  0.42230482021E+02  0.41800000000E+01 0.  1.
         -5    1    4    4    0  501 -0.34247752608E+02  0.21168171277E+02  0.14020377300E+03  0.14593001883E+03  0.41800000000E+01 0.  1.
</event>
<event>
11    1  0.8039394E-009  0.1442293E+03  0.7561462E-02  0.1102926E+00
         22   -1    0    0    0    0  0.00000000000E+00  0.00000000000E+00  0.60695658983E+03  0.60695658983E+03  0.00000000000E+00 0.  1.
         22   -1    0    0    0    0 -0.00000000000E+00 -0.00000000000E+00 -0.20654760964E+03  0.20654760964E+03  0.00000000000E+00 0. -1.
        -24    2    1    2    0    0  0.30237579352E+02 -0.44173556743E+02 -0.97870562710E+02  0.13863635462E+03  0.82315110743E+02 0.  0.
         25    2    1    2    0    0  0.40181043889E+01  0.10526203634E+03 -0.55871380492E+00  0.16353519661E+03  0.12508879611E+03 0.  0.
         24    2    1    2    0    0 -0.34255683741E+02 -0.61088479594E+02  0.49883825671E+03  0.51133264824E+03  0.87841997909E+02 0.  0.
        -13    1    5    5    0    0 -0.58833423773E+02 -0.57328588325E+02  0.30357637945E+03  0.31449412864E+03  0.00000000000E+00 0.  1.
         14    1    5    5    0    0  0.24577740032E+02 -0.37598912692E+01  0.19526187726E+03  0.19683851960E+03  0.00000000000E+00 0. -1.
         13    1    3    3    0    0  0.13153763430E+01 -0.49277406372E+02 -0.97513429241E+02  0.10926509908E+03  0.00000000000E+00 0. -1.
        -14    1    3    3    0    0  0.28922203009E+02  0.51038496284E+01 -0.35713346861E+00  0.29371255544E+02  0.00000000000E+00 0.  1.
          5    1    4    4  501    0 -0.12801572175E+02  0.12893573153E+03 -0.15586610701E+02  0.13057073925E+03  0.41800000000E+01 0.  1.
         -5    1    4    4    0  501  0.16819676564E+02 -0.23673695192E+02  0.15027896896E+02  0.32964457358E+02  0.41800000000E+01 0.  1.
</event>
<event>
11    1  0.8039394E-009  0.2307587E+03  0.7561462E-02  0.1034680E+00
         22   -1    0    0    0    0  0.00000000000E+00  0.00000000000E+00  0.25036776236E+03  0.25036776236E+03  0.00000000000E+00 0.  1.
         22   -1    0    0    0    0 -0.00000000000E+00 -0.00000000000E+00 -0.61015767491E+03  0.61015767491E+03  0.00000000000E+00 0.  1.
         24    2    1    2    0    0 -0.18913124737E+03  0.35306260098E+02 -0.46814150168E+03  0.51106864318E+03  0.70834537567E+02 0.  0.
         25    2    1    2    0    0  0.20206614686E+03 -0.27750844925E+02  0.36884010083E+02  0.24209160293E+03  0.12508827646E+03 0.  0.
        -24    2    1    2    0    0 -0.12934899488E+02 -0.75554151734E+01  0.71467579049E+02  0.10736519116E+03  0.78710059678E+02 0.  0.
        -13    1    3    3    0    0 -0.17303880051E+03  0.15001942819E+02 -0.35783552528E+03  0.39776091804E+03  0.00000000000E+00 0.  1.
         14    1    3    3    0    0 -0.16092446862E+02  0.20304317279E+02 -0.11030597640E+03  0.11330772514E+03  0.00000000000E+00 0. -1.
         13    1    5    5    0    0  0.19393368957E+02  0.99239425868E+01 -0.51533912604E+01  0.22386264481E+02  0.00000000000E+00 0. -1.
        -14    1    5    5    0    0 -0.32328268445E+02 -0.17479357760E+02  0.76620970310E+02  0.84978926679E+02  0.00000000000E+00 0.  1.
          5    1    4    4  501    0 -0.44446334829E+01  0.77354397261E+01 -0.22246596573E+02  0.24330541581E+02  0.41800000000E+01 0.  1.
         -5    1    4    4    0  501  0.20651078034E+03 -0.35486284651E+02  0.59130606656E+02  0.21776106135E+03  0.41800000000E+01 0.  1.
</event>
<event>
11    1  0.8039394E-009  0.1322441E+03  0.7561462E-02  0.1116542E+00
         22   -1    0    0    0    0  0.00000000000E+00  0.00000000000E+00  0.35802436111E+03  0.35802436111E+03  0.00000000000E+00 0. -1.
         22   -1    0    0    0    0 -0.00000000000E+00 -0.00000000000E+00 -0.19192315886E+03  0.19192315886E+03  0.00000000000E+00 0.  1.
         24    2    1    2    0    0 -0.31206932489E+02  0.23559191568E+02 -0.11943150056E+03  0.14976026812E+03  0.81457635853E+02 0.  0.
         25    2    1    2    0    0  0.84882219114E+01  0.18768160375E+02  0.33172266784E+02  0.13104275813E+03  0.12509001327E+03 0.  0.
        -24    2    1    2    0    0  0.22718710578E+02 -0.42327351943E+02  0.25236043603E+03  0.26914449372E+03  0.80282154261E+02 0.  0.
        -13    1    3    3    0    0 -0.44524482728E+00  0.19808204733E+02 -0.11701071233E+03  0.11867632459E+03  0.00000000000E+00 0.  1.
         14    1    3    3    0    0 -0.30761687662E+02  0.37509868342E+01 -0.24207882334E+01  0.31083943535E+02  0.00000000000E+00 0. -1.
         11    1    5    5    0    0 -0.18656200640E+02 -0.33681785923E+02  0.18964883739E+03  0.19351795278E+03  0.00000000000E+00 0. -1.
        -12    1    5    5    0    0  0.41374911218E+02 -0.86455660200E+01  0.62711598639E+02  0.75626540936E+02  0.00000000000E+00 0.  1.
          5    1    4    4  501    0  0.41773517032E+02  0.52109792809E+02  0.46990403591E+02  0.81768133533E+02  0.41800000000E+01 0. -1.
         -5    1    4    4    0  501 -0.33285295120E+02 -0.33341632434E+02 -0.13818136807E+02  0.49274624599E+02  0.41800000000E+01 0. -1.
</event>
<event>
11    1  0.1118104E-008  0.1524352E+03  0.7561462E-02  0.1094416E+00
         22   -1    0    0    0    0  0.00000000000E+00  0.00000000000E+00  0.40356049397E+03  0.40356049397E+03  0.00000000000E+00 0. -1.
         22   -1    0    0    0    0 -0.00000000000E+00 -0.00000000000E+00 -0.80552783991E+03  0.80552783991E+03  0.00000000000E+00 0.  1.
        -24    2    1    2    0    0  0.94706915191E+01 -0.38358885657E+01 -0.68738867201E+03  0.69196282159E+03  0.78771517780E+02 0.  0.
         25    2    1    2    0    0  0.30039329135E+02 -0.74511610479E+02 -0.53269471178E+02  0.15794811637E+03  0.12512245807E+03 0.  0.
         24    2    1    2    0    0 -0.39510020654E+02  0.78347499044E+02  0.33869079724E+03  0.35917739593E+03  0.81225447201E+02 0.  0.
        -13    1    5    5    0    0  0.72053021756E+01  0.19638539914E+01 -0.13123487820E+01  0.75825695689E+01  0.00000000000E+00 0.  1.
         14    1    5    5    0    0 -0.46715322829E+02  0.76383645053E+02  0.34000314602E+03  0.35159482636E+03  0.00000000000E+00 0. -1.
         13    1    3    3    0    0 -0.20614612898E+02  0.28310326004E+02 -0.27121099682E+03  0.27346268780E+03  0.00000000000E+00 0. -1.
        -14    1    3    3    0    0  0.30085304417E+02 -0.32146214569E+02 -0.41617767519E+03  0.41850013379E+03  0.00000000000E+00 0.  1.
          5    1    4    4  501    0  0.11021382592E+02  0.32025925813E+02 -0.33567351486E+02  0.47868259674E+02  0.41800000000E+01 0. -1.
         -5    1    4    4    0  501  0.19017946542E+02 -0.10653753629E+03 -0.19702119691E+02  0.11007985670E+03  0.41800000000E+01 0. -1.
</event>
<event>
11    1  0.8039394E-009  0.1287901E+03  0.7561462E-02  0.1120765E+00
         22   -1    0    0    0    0  0.00000000000E+00  0.00000000000E+00  0.25850961080E+03  0.25850961080E+03  0.00000000000E+00 0. -1.
         22   -1    0    0    0    0 -0.00000000000E+00 -0.00000000000E+00 -0.33435919646E+03  0.33435919646E+03  0.00000000000E+00 0. -1.
         24    2    1    2    0    0  0.24957938555E+02  0.18427336185E+02 -0.28028788155E+03  0.29306186146E+03  0.79758966158E+02 0.  0.
         25    2    1    2    0    0 -0.11474822996E+02 -0.24466990964E+02  0.79110695813E+02  0.15045383894E+03  0.12509016848E+03 0.  0.
        -24    2    1    2    0    0 -0.13483115559E+02  0.60396547789E+01  0.12532760008E+03  0.14935310685E+03  0.79881608340E+02 0.  0.
        -13    1    3    3    0    0  0.10206424962E+02 -0.30317971166E+02 -0.74733077688E+02  0.81291963852E+02  0.00000000000E+00 0.  1.
         14    1    3    3    0    0  0.14751513593E+02  0.48745307352E+02 -0.20555480386E+03  0.21176989761E+03  0.00000000000E+00 0. -1.
         11    1    5    5    0    0 -0.16580343890E+02 -0.83969165128E+01  0.13189166161E+03  0.13319469363E+03  0.00000000000E+00 0. -1.
        -12    1    5    5    0    0  0.30972283309E+01  0.14436571292E+02 -0.65640615317E+01  0.16158413220E+02  0.00000000000E+00 0.  1.
          5    1    4    4  501    0 -0.38106328537E+01  0.49313900638E+02  0.50582937061E+02  0.70869511362E+02  0.41800000000E+01 0.  1.
         -5    1    4    4    0  501 -0.76641901423E+01 -0.73780891602E+02  0.28527758752E+02  0.79584327575E+02  0.41800000000E+01 0.  1.
</event>
<event>
11    1  0.8039394E-009  0.3892540E+03  0.7561462E-02  0.9682007E-01
         22   -1    0    0    0    0  0.00000000000E+00  0.00000000000E+00  0.15347517496E+04  0.15347517496E+04  0.00000000000E+00 0. -1.
         22   -1    0    0    0    0 -0.00000000000E+00 -0.00000000000E+00 -0.13526580278E+03  0.13526580278E+03  0.00000000000E+00 0. -1.
         24    2    1    2    0    0 -0.19460455503E+02  0.19723145293E+02  0.22969753111E+02  0.88148686819E+02  0.80466574683E+02 0.  0.
         25    2    1    2    0    0  0.24630777861E+03  0.27246606414E+03  0.55303874926E+03  0.67557697493E+03  0.12508842058E+03 0.  0.
        -24    2    1    2    0    0 -0.22684732310E+03 -0.29218920944E+03  0.82347744448E+03  0.90629189067E+03  0.80097736616E+02 0.  0.
        -11    1    3    3    0    0  0.26274795497E+02  0.28228896866E+02  0.94796329599E+01  0.39712704991E+02  0.00000000000E+00 0.  1.
         12    1    3    3    0    0 -0.45735251001E+02 -0.85057515723E+01  0.13490120151E+02  0.48435981828E+02  0.00000000000E+00 0. -1.
         11    1    5    5    0    0 -0.21508831613E+03 -0.29034027039E+03  0.75770042448E+03  0.83944647810E+03  0.00000000000E+00 0. -1.
        -12    1    5    5    0    0 -0.11759006977E+02 -0.18489390488E+01  0.65777020002E+02  0.66845412565E+02  0.00000000000E+00 0.  1.
          5    1    4    4  501    0  0.22987392131E+02  0.10233546562E+03  0.11944974003E+03  0.15901786225E+03  0.41800000000E+01 0. -1.
         -5    1    4    4    0  501  0.22332038648E+03  0.17013059852E+03  0.43358900923E+03  0.51655911268E+03  0.41800000000E+01 0. -1.
</event>
<event>
11    1  0.8039394E-009  0.2036018E+03  0.7561462E-02  0.1052005E+00
         22   -1    0    0    0    0  0.00000000000E+00  0.00000000000E+00  0.61872551960E+03  0.61872551960E+03  0.00000000000E+00 0. -1.
         22   -1    0    0    0    0 -0.00000000000E+00 -0.00000000000E+00 -0.44737220138E+03  0.44737220138E+03  0.00000000000E+00 0. -1.
         24    2    1    2    0    0  0.11047614718E+03 -0.29655341045E+02 -0.32737307989E+03  0.35608968022E+03  0.80884538535E+02 0.  0.
         25    2    1    2    0    0 -0.13453850210E+03  0.17958677108E+03  0.99667561021E+02  0.27556106010E+03  0.12509299833E+03 0.  0.
        -24    2    1    2    0    0  0.24062354922E+02 -0.14993143003E+03  0.39905883709E+03  0.43444698066E+03  0.80235858010E+02 0.  0.
        -11    1    3    3    0    0  0.28751573951E+02 -0.26143893565E+02 -0.34359257982E+02  0.51872100251E+02  0.00000000000E+00 0.  1.
         12    1    3    3    0    0  0.81724573231E+02 -0.35114474797E+01 -0.29301382190E+03  0.30421757997E+03  0.00000000000E+00 0. -1.
         13    1    5    5    0    0  0.16744836669E+02 -0.57319496517E+02  0.26301999889E+03  0.26971361488E+03  0.00000000000E+00 0. -1.
        -14    1    5    5    0    0  0.73175182530E+01 -0.92611933514E+02  0.13603883820E+03  0.16473336578E+03  0.00000000000E+00 0.  1.
          5    1    4    4  501    0 -0.70671714503E+02  0.25330871654E+02 -0.98717445228E+01  0.75835796491E+02  0.41800000000E+01 0. -1.
         -5    1    4    4    0  501 -0.63866787601E+02  0.15425589942E+03  0.10953930554E+03  0.19972526361E+03  0.41800000000E+01 0. -1.
</event>
<event>
11    1  0.8039394E-009  0.1607856E+03  0.7561462E-02  0.1086341E+00
         22   -1    0    0    0    0  0.00000000000E+00  0.00000000000E+00  0.34933838780E+04  0.34933838780E+04  0.00000000000E+00 0.  1.
         22   -1    0    0    0    0 -0.00000000000E+00 -0.00000000000E+00 -0.34989306645E+03  0.34989306645E+03  0.00000000000E+00 0.  1.
        -24    2    1    2    0    0 -0.52337146868E+02 -0.85818751289E+02 -0.32110768582E+03  0.34677500090E+03  0.83897081845E+02 0.  0.
         25    2    1    2    0    0  0.20939641321E+02  0.12948062580E+03  0.52669511349E+03  0.55701034112E+03  0.12509626895E+03 0.  0.
         24    2    1    2    0    0  0.31397505546E+02 -0.43661874516E+02  0.29379033839E+04  0.29394916025E+04  0.80264718752E+02 0.  0.
        -11    1    5    5    0    0 -0.53472245666E+01 -0.52525662611E+02  0.21872745354E+04  0.21879116598E+04  0.00000000000E+00 0.  1.
         12    1    5    5    0    0  0.36744730113E+02  0.88637880953E+01  0.75062884851E+03  0.75157994262E+03  0.00000000000E+00 0. -1.
         11    1    3    3    0    0 -0.73106365634E-01  0.55213676890E+01  0.28068976088E+01  0.61943135119E+01  0.00000000000E+00 0. -1.
        -12    1    3    3    0    0 -0.52264040502E+02 -0.91340118978E+02 -0.32391458342E+03  0.34058068738E+03  0.00000000000E+00 0.  1.
          5    1    4    4  501    0  0.23013885411E+02  0.15278847925E+03  0.41589596095E+03  0.44369007319E+03  0.41800000000E+01 0. -1.
         -5    1    4    4    0  501 -0.20742440897E+01 -0.23307853445E+02  0.11079915254E+03  0.11332026793E+03  0.41800000000E+01 0. -1.
</event>
<event>
11    1  0.8039394E-009  0.1424946E+03  0.7561462E-02  0.1104804E+00
         22   -1    0    0    0    0  0.00000000000E+00  0.00000000000E+00  0.29787067865E+03  0.29787067865E+03  0.00000000000E+00 0. -1.
         22   -1    0    0    0    0 -0.00000000000E+00 -0.00000000000E+00 -0.18153571172E+04  0.18153571172E+04  0.00000000000E+00 0. -1.
        -24    2    1    2    0    0  0.17331008019E+02 -0.67497711846E+02 -0.12034815457E+04  0.12081858646E+04  0.80554004658E+02 0.  0.
         25    2    1    2    0    0  0.16619873880E+02  0.67554191129E+02 -0.59460360800E+03  0.61158892721E+03  0.12509107201E+03 0.  0.
         24    2    1    2    0    0 -0.33950881899E+02 -0.56479282565E-01  0.28059871515E+03  0.29345300403E+03  0.78907294090E+02 0.  0.
        -11    1    5    5    0    0  0.12551686116E+02  0.23316807485E+02  0.45344614930E+02  0.52510498367E+02  0.00000000000E+00 0.  1.
         12    1    5    5    0    0 -0.46502568015E+02 -0.23373286768E+02  0.23525410022E+03  0.24094250566E+03  0.00000000000E+00 0. -1.
         11    1    3    3    0    0 -0.76056566621E+01 -0.22177844737E+02 -0.90158803044E+03  0.90189283146E+03  0.00000000000E+00 0. -1.
        -12    1    3    3    0    0  0.24936664681E+02 -0.45319867109E+02 -0.30189351521E+03  0.30629303310E+03  0.00000000000E+00 0.  1.
          5    1    4    4  501    0 -0.12945203772E+02  0.87889780546E+02 -0.25489976615E+03  0.26996954460E+03  0.41800000000E+01 0. -1.
         -5    1    4    4    0  501  0.29565077652E+02 -0.20335589417E+02 -0.33970384185E+03  0.34161938262E+03  0.41800000000E+01 0. -1.
</event>
<event>
11    1  0.8039394E-009  0.1421613E+03  0.7561462E-02  0.1105169E+00
         22   -1    0    0    0    0  0.00000000000E+00  0.00000000000E+00  0.23375331206E+03  0.23375331206E+03  0.00000000000E+00 0. -1.
         22   -1    0    0    0    0 -0.00000000000E+00 -0.00000000000E+00 -0.13438147898E+04  0.13438147898E+04  0.00000000000E+00 0. -1.
         24    2    1    2    0    0  0.67654945163E+01  0.64041298995E+00 -0.98790968320E+03  0.98982096863E+03  0.61105038555E+02 0.  0.
         25    2    1    2    0    0 -0.42823609809E+02 -0.57584673281E+02 -0.32630318904E+03  0.35674828812E+03  0.12508282755E+03 0.  0.
        -24    2    1    2    0    0  0.36058115293E+02  0.56944260291E+02  0.20415139452E+03  0.23099884508E+03  0.84497562591E+02 0.  0.
        -13    1    3    3    0    0 -0.87423437474E+01 -0.22527342127E+02 -0.73170905667E+03  0.73210795196E+03  0.00000000000E+00 0.  1.
         14    1    3    3    0    0  0.15507838264E+02  0.23167755117E+02 -0.25620062653E+03  0.25771301666E+03  0.00000000000E+00 0. -1.
         13    1    5    5    0    0  0.21374795163E+02 -0.83291797905E+01  0.89058966331E+01  0.24608374572E+02  0.00000000000E+00 0. -1.
        -14    1    5    5    0    0  0.14683320131E+02  0.65273440081E+02  0.19524549789E+03  0.20639047051E+03  0.00000000000E+00 0.  1.
          5    1    4    4  501    0 -0.87284079027E+02 -0.35282548920E+02 -0.20869241135E+03  0.22898332617E+03  0.41800000000E+01 0.  1.
         -5    1    4    4    0  501  0.44460469218E+02 -0.22302124361E+02 -0.11761077769E+03  0.12776496196E+03  0.41800000000E+01 0.  1.
</event>
<event>
11    1  0.8789692E-009  0.1535658E+03  0.7561462E-02  0.1093290E+00
         22   -1    0    0    0    0  0.00000000000E+00  0.00000000000E+00  0.93013570694E+03  0.93013570694E+03  0.00000000000E+00 0.  1.
         22   -1    0    0    0    0 -0.00000000000E+00 -0.00000000000E+00 -0.11682613229E+04  0.11682613229E+04  0.00000000000E+00 0.  1.
        -24    2    1    2    0    0 -0.98767783918E+01  0.12863551816E+02 -0.10064478060E+04  0.10099620800E+04  0.82602633752E+02 0.  0.
         25    2    1    2    0    0 -0.50820388610E+02  0.52885284906E+02 -0.12235823689E+03  0.18973341707E+03  0.12509063179E+03 0.  0.
         24    2    1    2    0    0  0.60697167001E+02 -0.65748836722E+02  0.89068042699E+03  0.89870153271E+03  0.79660317991E+02 0.  0.
        -13    1    5    5    0    0  0.21454642263E+02 -0.29495399467E+02  0.69208599876E+03  0.69304639812E+03  0.00000000000E+00 0.  1.
         14    1    5    5    0    0  0.39242524739E+02 -0.36253437255E+02  0.19859442822E+03  0.20565513459E+03  0.00000000000E+00 0. -1.
         13    1    3    3    0    0 -0.39183723380E+02  0.14109099864E+02 -0.29672768194E+03  0.29963602605E+03  0.00000000000E+00 0. -1.
        -14    1    3    3    0    0  0.29306944989E+02 -0.12455480479E+01 -0.70972012408E+03  0.71032605396E+03  0.00000000000E+00 0.  1.
          5    1    4    4  501    0 -0.65240839202E+02  0.14522020023E+02 -0.71113150589E+01  0.67344631317E+02  0.41800000000E+01 0. -1.
         -5    1    4    4    0  501  0.14420450593E+02  0.38363264883E+02 -0.11524692183E+03  0.12238878576E+03  0.41800000000E+01 0. -1.
</event>
<event>
11    1  0.8039394E-009  0.1641290E+03  0.7561462E-02  0.1083257E+00
         22   -1    0    0    0    0  0.00000000000E+00  0.00000000000E+00  0.19260678230E+04  0.19260678230E+04  0.00000000000E+00 0. -1.
         22   -1    0    0    0    0 -0.00000000000E+00 -0.00000000000E+00 -0.24639775836E+03  0.24639775836E+03  0.00000000000E+00 0.  1.
        -24    2    1    2    0    0 -0.10731776179E+03 -0.98212256351E+01 -0.21383435222E+03  0.25269286149E+03  0.80715510212E+02 0.  0.
         25    2    1    2    0    0  0.71912678309E+02 -0.35960973145E+02  0.47219166540E+03  0.49505313473E+03  0.12509201591E+03 0.  0.
         24    2    1    2    0    0  0.35405083480E+02  0.45782198780E+02  0.14213127515E+04  0.14247195851E+04  0.79664478775E+02 0.  0.
        -11    1    5    5    0    0  0.88595009878E+01 -0.21352080763E+01  0.16582546039E+02  0.18921699300E+02  0.00000000000E+00 0.  1.
         12    1    5    5    0    0  0.26545582492E+02  0.47917406856E+02  0.14047302054E+04  0.14057978858E+04  0.00000000000E+00 0. -1.
         11    1    3    3    0    0 -0.87963464187E+02 -0.78177550136E+01 -0.85590792887E+02  0.12298159274E+03  0.00000000000E+00 0. -1.
        -12    1    3    3    0    0 -0.19354297602E+02 -0.20034706215E+01 -0.12824355933E+03  0.12971126875E+03  0.00000000000E+00 0.  1.
          5    1    4    4  501    0 -0.32749113404E+01 -0.56240180247E+02  0.30977438671E+03  0.31488303539E+03  0.41800000000E+01 0.  1.
         -5    1    4    4    0  501  0.75187589649E+02  0.20279207102E+02  0.16241727870E+03  0.18017009934E+03  0.41800000000E+01 0.  1.
</event>
<event>
11    1  0.8039394E-009  0.1384308E+03  0.7561462E-02  0.1109323E+00
         22   -1    0    0    0    0  0.00000000000E+00  0.00000000000E+00  0.11331483379E+04  0.11331483379E+04  0.00000000000E+00 0. -1.
         22   -1    0    0    0    0 -0.00000000000E+00 -0.00000000000E+00 -0.46066473053E+03  0.46066473053E+03  0.00000000000E+00 0.  1.
        -24    2    1    2    0    0  0.13845945286E+02 -0.38175160988E+02 -0.41878099438E+03  0.42822904072E+03  0.79709076894E+02 0.  0.
         25    2    1    2    0    0 -0.62267423282E+02  0.27217238814E+01  0.10628573191E+03  0.17557801711E+03  0.12508534487E+03 0.  0.
         24    2    1    2    0    0  0.48421477996E+02  0.35453437107E+02  0.98497886980E+03  0.99000601056E+03  0.79542072265E+02 0.  0.
        -11    1    5    5    0    0  0.20836539448E+02  0.18433997016E+02  0.84863902065E+02  0.89307645226E+02  0.00000000000E+00 0.  1.
         12    1    5    5    0    0  0.27584938548E+02  0.17019440091E+02  0.90011496773E+03  0.90069836533E+03  0.00000000000E+00 0. -1.
         13    1    3    3    0    0  0.43705902550E+02 -0.97009392898E+01 -0.27594554853E+03  0.27955367981E+03  0.00000000000E+00 0. -1.
        -14    1    3    3    0    0 -0.29859957264E+02 -0.28474221699E+02 -0.14283544585E+03  0.14867536090E+03  0.00000000000E+00 0.  1.
          5    1    4    4  501    0  0.14040784751E+01 -0.42403251378E+02 -0.12413259902E+01  0.42649976014E+02  0.41800000000E+01 0. -1.
         -5    1    4    4    0  501 -0.63671501757E+02  0.45124975260E+02  0.10752705791E+03  0.13292804110E+03  0.41800000000E+01 0. -1.
</event>
<event>
11    1  0.8039394E-009  0.1800680E+03  0.7561462E-02  0.1069588E+00
         22   -1    0    0    0    0  0.00000000000E+00  0.00000000000E+00  0.68147350021E+03  0.68147350021E+03  0.00000000000E+00 0.  1.
         22   -1    0    0    0    0 -0.00000000000E+00 -0.00000000000E+00 -0.17986222086E+04  0.17986222086E+04  0.00000000000E+00 0.  1.
        -24    2    1    2    0    0  0.46252116685E+02 -0.84708750577E+01 -0.16091503056E+04  0.16117237185E+04  0.77959121940E+02 0.  0.
         25    2    1    2    0    0 -0.16785163642E+03 -0.29887348103E+02 -0.11662048530E+03  0.24148477021E+03  0.12508849358E+03 0.  0.
         24    2    1    2    0    0  0.12159951973E+03  0.38358223161E+02  0.60862208255E+03  0.62688722008E+03  0.79428904326E+02 0.  0.
        -11    1    5    5    0    0  0.10504764831E+03  0.52898216510E+01  0.52531567755E+03  0.53574205707E+03  0.00000000000E+00 0.  1.
         12    1    5    5    0    0  0.16551871421E+02  0.33068401510E+02  0.83306404997E+02  0.91145163006E+02  0.00000000000E+00 0. -1.
         11    1    3    3    0    0 -0.68023297951E+01 -0.16089739011E+02 -0.10176601467E+04  0.10178100636E+04  0.00000000000E+00 0. -1.
        -12    1    3    3    0    0  0.53054446480E+02  0.76188639534E+01 -0.59149015895E+03  0.59391365493E+03  0.00000000000E+00 0.  1.
          5    1    4    4  501    0 -0.75256634029E+02 -0.76705266955E+02 -0.56084001012E+02  0.12128539283E+03  0.41800000000E+01 0.  1.
         -5    1    4    4    0  501 -0.92595002387E+02  0.46817918852E+02 -0.60536484287E+02  0.12019937738E+03  0.41800000000E+01 0.  1.
</event>
<event>
11    1  0.8039394E-009  0.2008888E+03  0.7561462E-02  0.1053897E+00
         22   -1    0    0    0    0  0.00000000000E+00  0.00000000000E+00  0.86328846441E+03  0.86328846441E+03  0.00000000000E+00 0.  1.
         22   -1    0    0    0    0 -0.00000000000E+00 -0.00000000000E+00 -0.82624077978E+03  0.82624077978E+03  0.00000000000E+00 0.  1.
        -24    2    1    2    0    0 -0.15276716546E+03 -0.42305219338E+02 -0.78010862060E+03  0.80013162220E+03  0.80706966769E+02 0.  0.
         25    2    1    2    0    0  0.11964943547E+03  0.38841322666E+02  0.20480734710E+03  0.27095778674E+03  0.12508971586E+03 0.  0.
         24    2    1    2    0    0  0.33117729989E+02  0.34638966719E+01  0.61234895813E+03  0.61843983525E+03  0.79923717880E+02 0.  0.
        -11    1    5    5    0    0  0.23410157600E+02  0.37777823743E+02  0.45166694314E+03  0.45384824223E+03  0.00000000000E+00 0.  1.
         12    1    5    5    0    0  0.97075723886E+01 -0.34313927071E+02  0.16068201499E+03  0.16459159302E+03  0.00000000000E+00 0. -1.
         13    1    3    3    0    0 -0.60830561926E+02 -0.57349340572E+02 -0.41395177468E+03  0.42230957352E+03  0.00000000000E+00 0. -1.
        -14    1    3    3    0    0 -0.91936603536E+02  0.15044121234E+02 -0.36615684593E+03  0.37782204868E+03  0.00000000000E+00 0.  1.
          5    1    4    4  501    0  0.32970822990E+01  0.59001809744E+02  0.67760845715E+02  0.90006049334E+02  0.41800000000E+01 0.  1.
         -5    1    4    4    0  501  0.11635235317E+03 -0.20160487078E+02  0.13704650138E+03  0.18095173741E+03  0.41800000000E+01 0.  1.
</event>
<event>
11    1  0.8039394E-009  0.1545165E+03  0.7561462E-02  0.1092351E+00
         22   -1    0    0    0    0  0.00000000000E+00  0.00000000000E+00  0.12242657955E+04  0.12242657955E+04  0.00000000000E+00 0. -1.
         22   -1    0    0    0    0 -0.00000000000E+00 -0.00000000000E+00 -0.49393439857E+03  0.49393439857E+03  0.00000000000E+00 0.  1.
         24    2    1    2    0    0  0.51885309831E+02  0.27497664987E+02 -0.39861128770E+03  0.41565301347E+03  0.10211886193E+03 0.  0.
         25    2    1    2    0    0  0.32123776571E+02 -0.65094195235E+02 -0.20990127789E+02  0.14614126133E+03  0.12508993375E+03 0.  0.
        -24    2    1    2    0    0 -0.84009086403E+02  0.37596530248E+02  0.11499328124E+04  0.11564059192E+04  0.80362624010E+02 0.  0.
        -13    1    3    3    0    0  0.62533031077E+02  0.22127270090E+02 -0.39823510919E+03  0.40372168415E+03  0.00000000000E+00 0.  1.
         14    1    3    3    0    0 -0.10647721245E+02  0.53703948965E+01 -0.37617851272E+00  0.11931329320E+02  0.00000000000E+00 0. -1.
         11    1    5    5    0    0 -0.43972674979E+02 -0.11250491771E+02  0.76331531841E+03  0.76466361561E+03  0.00000000000E+00 0. -1.
        -12    1    5    5    0    0 -0.40036411423E+02  0.48847022019E+02  0.38661749399E+03  0.39174230364E+03  0.00000000000E+00 0.  1.
          5    1    4    4  501    0 -0.45830473990E+02 -0.55223942954E+01 -0.89410164587E+01  0.47205331905E+02  0.41800000000E+01 0. -1.
         -5    1    4    4    0  501  0.77954250561E+02 -0.59571800940E+02 -0.12049111330E+02  0.98935929427E+02  0.41800000000E+01 0. -1.
</event>
<event>
11    1  0.8039394E-009  0.1282892E+03  0.7561462E-02  0.1121389E+00
         22   -1    0    0    0    0  0.00000000000E+00  0.00000000000E+00  0.35958987253E+04  0.35958987253E+04  0.00000000000E+00 0. -1.
         22   -1    0    0    0    0 -0.00000000000E+00 -0.00000000000E+00 -0.32138029806E+02  0.32138029806E+02  0.00000000000E+00 0. -1.
         24    2    1    2    0    0 -0.26655002518E+02  0.10539278278E+02  0.75221905515E+02  0.11520679255E+03  0.82417864776E+02 0.  0.
         25    2    1    2    0    0  0.32941484352E+02  0.14620872895E+02  0.35272889833E+03  0.37598497830E+03  0.12509243331E+03 0.  0.
        -24    2    1    2    0    0 -0.62864818343E+01 -0.25160151173E+02  0.31358098917E+04  0.31368449843E+04  0.76290403440E+02 0.  0.
        -13    1    3    3    0    0  0.12931802047E+02  0.22970709406E+02  0.68208856533E+02  0.73125461396E+02  0.00000000000E+00 0.  1.
         14    1    3    3    0    0 -0.39586804565E+02 -0.12431431129E+02  0.70130489815E+01  0.42081331153E+02  0.00000000000E+00 0. -1.
         11    1    5    5    0    0  0.13163136609E+02 -0.48450070952E+02  0.19140190094E+04  0.19146773738E+04  0.00000000000E+00 0. -1.
        -12    1    5    5    0    0 -0.19449618444E+02  0.23289919778E+02  0.12217908823E+04  0.12221676105E+04  0.00000000000E+00 0.  1.
          5    1    4    4  501    0  0.20050823462E+02 -0.34988156470E+02  0.33362734394E+02  0.52504771792E+02  0.41800000000E+01 0.  1.
         -5    1    4    4    0  501  0.12890660890E+02  0.49609029365E+02  0.31936616394E+03  0.32348020651E+03  0.41800000000E+01 0.  1.
</event>
<event>
11    1  0.8039394E-009  0.2591692E+03  0.7561462E-02  0.1019125E+00
         22   -1    0    0    0    0  0.00000000000E+00  0.00000000000E+00  0.87505402076E+03  0.87505402076E+03  0.00000000000E+00 0. -1.
         22   -1    0    0    0    0 -0.00000000000E+00 -0.00000000000E+00 -0.55524702931E+03  0.55524702931E+03  0.00000000000E+00 0.  1.
         24    2    1    2    0    0  0.16143274104E+02  0.78133023340E+02 -0.32485123192E+03  0.34399141804E+03  0.80227166032E+02 0.  0.
         25    2    1    2    0    0 -0.20987046213E+03 -0.18751231066E+03 -0.84744331409E+02  0.31943033953E+03  0.12509061748E+03 0.  0.
        -24    2    1    2    0    0  0.19372718803E+03  0.10937928732E+03  0.72940255478E+03  0.76687929250E+03  0.81127741624E+02 0.  0.
        -11    1    3    3    0    0  0.21162942946E+02  0.71823886531E+02 -0.13832182542E+03  0.15728785146E+03  0.00000000000E+00 0.  1.
         12    1    3    3    0    0 -0.50196688421E+01  0.63091368082E+01 -0.18652940650E+03  0.18670356658E+03  0.00000000000E+00 0. -1.
         11    1    5    5    0    0  0.14328453728E+03  0.79362445802E+02  0.63441618211E+03  0.65521961856E+03  0.00000000000E+00 0. -1.
        -12    1    5    5    0    0  0.50442650749E+02  0.30016841522E+02  0.94986372671E+02  0.11165967393E+03  0.00000000000E+00 0.  1.
          5    1    4    4  501    0 -0.24544640421E+02 -0.68903460038E+02  0.19651230701E+02  0.75853605364E+02  0.41800000000E+01 0. -1.
         -5    1    4    4    0  501 -0.18532582171E+03 -0.11860885063E+03 -0.10439556211E+03  0.24357673417E+03  0.41800000000E+01 0. -1.
</event>
<event>
11    1  0.8039394E-009  0.1545668E+03  0.7561462E-02  0.1092302E+00
         22   -1    0    0    0    0  0.00000000000E+00  0.00000000000E+00  0.96122498957E+03  0.96122498957E+03  0.00000000000E+00 0. -1.
         22   -1    0    0    0    0 -0.00000000000E+00 -0.00000000000E+00 -0.42463445110E+03  0.42463445110E+03  0.00000000000E+00 0. -1.
         24    2    1    2    0    0  0.30068800465E+02  0.34202291497E+01 -0.35771356615E+03  0.36812730034E+03  0.81503884081E+02 0.  0.
         25    2    1    2    0    0  0.61656915444E+02 -0.17685006868E+02  0.28625575946E+02  0.14345879790E+03  0.12508664360E+03 0.  0.
        -24    2    1    2    0    0 -0.91725715910E+02  0.14264777718E+02  0.86567852868E+03  0.87427334243E+03  0.79608237150E+02 0.  0.
        -13    1    3    3    0    0  0.16677935517E+02 -0.57504330407E+01 -0.10490047857E+02  0.20524670943E+02  0.00000000000E+00 0.  1.
         14    1    3    3    0    0  0.13390864948E+02  0.91706621904E+01 -0.34722351829E+03  0.34760262940E+03  0.00000000000E+00 0. -1.
         13    1    5    5    0    0 -0.90895346393E+02  0.36133005911E+02  0.62573456563E+03  0.63333348619E+03  0.00000000000E+00 0. -1.
        -14    1    5    5    0    0 -0.83036951629E+00 -0.21868228192E+02  0.23994396305E+03  0.24093985624E+03  0.00000000000E+00 0.  1.
          5    1    4    4  501    0  0.94689740109E+02  0.11844960790E+02  0.25393487572E+02  0.98836995043E+02  0.41800000000E+01 0. -1.
         -5    1    4    4    0  501 -0.33032824665E+02 -0.29529967658E+02  0.32320883742E+01  0.44621802860E+02  0.41800000000E+01 0. -1.
</event>
<event>
11    1  0.8039394E-009  0.1404084E+03  0.7561462E-02  0.1107103E+00
         22   -1    0    0    0    0  0.00000000000E+00  0.00000000000E+00  0.11342531379E+04  0.11342531379E+04  0.00000000000E+00 0. -1.
         22   -1    0    0    0    0 -0.00000000000E+00 -0.00000000000E+00 -0.12921751173E+03  0.12921751173E+03  0.00000000000E+00 0.  1.
         24    2    1    2    0    0  0.20869469446E+02 -0.31476382406E+02 -0.72990433420E+02  0.11974777432E+03  0.87095514691E+02 0.  0.
         25    2    1    2    0    0  0.13012107521E+02  0.83843545016E+02  0.16070033236E+03  0.22061546167E+03  0.12509008804E+03 0.  0.
        -24    2    1    2    0    0 -0.33881576968E+02 -0.52367162609E+02  0.91732572719E+03  0.92310741359E+03  0.82161586429E+02 0.  0.
        -13    1    3    3    0    0  0.13271656390E+02  0.16254385764E+01 -0.83212756285E+02  0.84280138363E+02  0.00000000000E+00 0.  1.
         14    1    3    3    0    0  0.75978130567E+01 -0.33101820983E+02  0.10222322865E+02  0.35467635957E+02  0.00000000000E+00 0. -1.
         11    1    5    5    0    0 -0.58215110365E+02 -0.18986830349E+02  0.59602481808E+03  0.59916198358E+03  0.00000000000E+00 0. -1.
        -12    1    5    5    0    0  0.24333533398E+02 -0.33380332260E+02  0.32130090910E+03  0.32394543000E+03  0.00000000000E+00 0.  1.
          5    1    4    4  501    0  0.18128119149E+02  0.85580276957E+02  0.34340319736E+02  0.94070943800E+02  0.41800000000E+01 0. -1.
         -5    1    4    4    0  501 -0.51160116277E+01 -0.17367319412E+01  0.12636001262E+03  0.12654451787E+03  0.41800000000E+01 0. -1.
</event>
<event>
11    1  0.8039394E-009  0.1690556E+03  0.7561462E-02  0.1078856E+00
         22   -1    0    0    0    0  0.00000000000E+00  0.00000000000E+00  0.58426143263E+03  0.58426143263E+03  0.00000000000E+00 0.  1.
         22   -1    0    0    0    0 -0.00000000000E+00 -0.00000000000E+00 -0.79438184209E+03  0.79438184209E+03  0.00000000000E+00 0. -1.
        -24    2    1    2    0    0  0.11273473385E+03  0.57283775858E+01 -0.72391395827E+03  0.73699204918E+03  0.79774225513E+02 0.  0.
         25    2    1    2    0    0 -0.13135415656E+03 -0.24197549922E+01  0.76941882461E+02  0.19704674894E+03  0.12509036066E+03 0.  0.
         24    2    1    2    0    0  0.18619422702E+02 -0.33086225936E+01  0.43685166635E+03  0.44460447661E+03  0.80474420436E+02 0.  0.
        -13    1    5    5    0    0  0.43301239349E+02  0.19591309835E+01  0.37921815515E+03  0.38168736516E+03  0.00000000000E+00 0.  1.
         14    1    5    5    0    0 -0.24681816647E+02 -0.52677535771E+01  0.57633511197E+02  0.62917111454E+02  0.00000000000E+00 0. -1.
         13    1    3    3    0    0  0.11154408235E+03  0.18387307557E+02 -0.70617660071E+03  0.71516820873E+03  0.00000000000E+00 0. -1.
        -14    1    3    3    0    0  0.11906515025E+01 -0.12658929971E+02 -0.17737357562E+02  0.21823840457E+02  0.00000000000E+00 0.  1.
          5    1    4    4  501    0  0.23523413704E+01 -0.30999305200E+02 -0.12328450925E+02  0.33703909789E+02  0.41800000000E+01 0.  1.
         -5    1    4    4    0  501 -0.13370649793E+03  0.28579550208E+02  0.89270333387E+02  0.16334283915E+03  0.41800000000E+01 0.  1.
</event>
<event>
11    1  0.8039394E-009  0.1350814E+03  0.7561462E-02  0.1113179E+00
         22   -1    0    0    0    0  0.00000000000E+00  0.00000000000E+00  0.37330772814E+03  0.37330772814E+03  0.00000000000E+00 0. -1.
         22   -1    0    0    0    0 -0.00000000000E+00 -0.00000000000E+00 -0.42857101140E+03  0.42857101140E+03  0.00000000000E+00 0.  1.
         24    2    1    2    0    0  0.53938395772E+02 -0.17189963512E+01 -0.32415136627E+03  0.33811498416E+03  0.79594778552E+02 0.  0.
         25    2    1    2    0    0 -0.31547185098E+02  0.48493105226E+01 -0.46981228806E+02  0.13738000986E+03  0.12508913042E+03 0.  0.
        -24    2    1    2    0    0 -0.22391210675E+02 -0.31303141714E+01  0.31586931182E+03  0.32638374552E+03  0.79004822656E+02 0.  0.
        -13    1    3    3    0    0  0.70858561191E+02  0.30570368423E+01 -0.29983050248E+03  0.30810487076E+03  0.00000000000E+00 0.  1.
         14    1    3    3    0    0 -0.16920165419E+02 -0.47760331935E+01 -0.24320863786E+02  0.30010113398E+02  0.00000000000E+00 0. -1.
         13    1    5    5    0    0 -0.40786532958E+02  0.16954967018E+02  0.10718273598E+03  0.11592735255E+03  0.00000000000E+00 0. -1.
        -14    1    5    5    0    0  0.18395322284E+02 -0.20085281190E+02  0.20868657585E+03  0.21045639297E+03  0.00000000000E+00 0.  1.
          5    1    4    4  501    0  0.83890309335E+01 -0.52724895432E+02 -0.39997238787E+02  0.66839673465E+02  0.41800000000E+01 0.  1.
         -5    1    4    4    0  501 -0.39936216031E+02  0.57574205955E+02 -0.69839900189E+01  0.70540336395E+02  0.41800000000E+01 0.  1.
</event>
<event>
11    1  0.8039394E-009  0.1849798E+03  0.7561462E-02  0.1065684E+00
         22   -1    0    0    0    0  0.00000000000E+00  0.00000000000E+00  0.83280558648E+03  0.83280558648E+03  0.00000000000E+00 0.  1.
         22   -1    0    0    0    0 -0.00000000000E+00 -0.00000000000E+00 -0.22922313189E+03  0.22922313189E+03  0.00000000000E+00 0. -1.
         24    2    1    2    0    0 -0.73873789814E+02  0.60052691870E+02 -0.16501952436E+03  0.20561080674E+03  0.77334971435E+02 0.  0.
         25    2    1    2    0    0  0.18824730016E+03 -0.35399841149E+02  0.39109948331E+03  0.45309613256E+03  0.12508838764E+03 0.  0.
        -24    2    1    2    0    0 -0.11437351035E+03 -0.24652850721E+02  0.37750249564E+03  0.40332177907E+03  0.80444144237E+02 0.  0.
        -13    1    3    3    0    0 -0.12295157816E+02 -0.41839283507E+01 -0.84850660407E+02  0.85838864937E+02  0.00000000000E+00 0.  1.
         14    1    3    3    0    0 -0.61578631999E+02  0.64236620220E+02 -0.80168863949E+02  0.11977194180E+03  0.00000000000E+00 0. -1.
         11    1    5    5    0    0 -0.65982100068E+02 -0.52257763826E+02  0.19211841476E+03  0.20974745934E+03  0.00000000000E+00 0. -1.
        -12    1    5    5    0    0 -0.48391410282E+02  0.27604913105E+02  0.18538408088E+03  0.19357431974E+03  0.00000000000E+00 0.  1.
          5    1    4    4  501    0  0.52266584743E+02  0.45849084103E+02  0.13572130715E+03  0.15255058181E+03  0.41800000000E+01 0.  1.
         -5    1    4    4    0  501  0.13598071542E+03 -0.81248925252E+02  0.25537817615E+03  0.30054555075E+03  0.41800000000E+01 0.  1.
</event>
<event>
11    1  0.8039394E-009  0.2306688E+03  0.7561462E-02  0.1034733E+00
         22   -1    0    0    0    0  0.00000000000E+00  0.00000000000E+00  0.14556104615E+04  0.14556104615E+04  0.00000000000E+00 0.  1.
         22   -1    0    0    0    0 -0.00000000000E+00 -0.00000000000E+00 -0.50122722721E+03  0.50122722721E+03  0.00000000000E+00 0. -1.
         24    2    1    2    0    0 -0.18844708807E+03 -0.44804802746E+02 -0.42678035716E+03  0.47685453083E+03  0.87914702786E+02 0.  0.
         25    2    1    2    0    0  0.19577301576E+03  0.19391490710E+02  0.23831503454E+03  0.33337965920E+03  0.12507932631E+03 0.  0.
        -24    2    1    2    0    0 -0.73259276959E+01  0.25413312035E+02  0.11428485569E+04  0.11466034987E+04  0.88866492645E+02 0.  0.
        -11    1    3    3    0    0 -0.79132910508E+02 -0.63810130124E+02 -0.19645886951E+03  0.22120089883E+03  0.00000000000E+00 0.  1.
         12    1    3    3    0    0 -0.10931417756E+03  0.19005327379E+02 -0.23032148765E+03  0.25565363200E+03  0.00000000000E+00 0. -1.
         13    1    5    5    0    0  0.10514093824E+02  0.13315383944E+02  0.38831858985E+02  0.42376395443E+02  0.00000000000E+00 0. -1.
        -14    1    5    5    0    0 -0.17840021520E+02  0.12097928092E+02  0.11040166980E+04  0.11042271033E+04  0.00000000000E+00 0.  1.
          5    1    4    4  501    0  0.13543198553E+03 -0.45890749720E+02  0.13111853662E+03  0.19405495783E+03  0.41800000000E+01 0. -1.
         -5    1    4    4    0  501  0.60341030233E+02  0.65282240430E+02  0.10719649792E+03  0.13932470137E+03  0.41800000000E+01 0. -1.
</event>
<event>
11    1  0.8039394E-009  0.1397944E+03  0.7561462E-02  0.1107788E+00
         22   -1    0    0    0    0  0.00000000000E+00  0.00000000000E+00  0.21893046811E+04  0.21893046811E+04  0.00000000000E+00 0.  1.
         22   -1    0    0    0    0 -0.00000000000E+00 -0.00000000000E+00 -0.38623749685E+03  0.38623749685E+03  0.00000000000E+00 0. -1.
         24    2    1    2    0    0 -0.47590832786E+02  0.40461616272E+02 -0.32520486478E+03  0.34078631864E+03  0.80467888885E+02 0.  0.
         25    2    1    2    0    0  0.58342883716E+02 -0.26343424264E+02  0.41707360613E+02  0.14657793315E+03  0.12509084089E+03 0.  0.
        -24    2    1    2    0    0 -0.10752050931E+02 -0.14118192008E+02  0.20865646884E+04  0.20881779262E+04  0.80124418323E+02 0.  0.
        -13    1    3    3    0    0 -0.60604797018E+02  0.24123064437E+02 -0.14049377816E+03  0.15489791916E+03  0.00000000000E+00 0.  1.
         14    1    3    3    0    0  0.13013964232E+02  0.16338551835E+02 -0.18471108662E+03  0.18588839948E+03  0.00000000000E+00 0. -1.
         11    1    5    5    0    0 -0.26116925206E+02 -0.41079776754E+02  0.10186696529E+04  0.10198320957E+04  0.00000000000E+00 0. -1.
        -12    1    5    5    0    0  0.15364874275E+02  0.26961584746E+02  0.10678950356E+04  0.10683458304E+04  0.00000000000E+00 0.  1.
          5    1    4    4  501    0  0.96175534852E+02 -0.11435107743E+02  0.42118829063E+02  0.10569750874E+03  0.41800000000E+01 0. -1.
         -5    1    4    4    0  501 -0.37832651136E+02 -0.14908316521E+02 -0.41146844957E+00  0.40880424407E+02  0.41800000000E+01 0. -1.
</event>
<event>
11    1  0.8039394E-009  0.1471420E+03  0.7561462E-02  0.1099835E+00
         22   -1    0    0    0    0  0.00000000000E+00  0.00000000000E+00  0.31973813185E+03  0.31973813185E+03  0.00000000000E+00 0.  1.
         22   -1    0    0    0    0 -0.00000000000E+00 -0.00000000000E+00 -0.45844156297E+03  0.45844156297E+03  0.00000000000E+00 0.  1.
        -24    2    1    2    0    0 -0.60933849130E+01  0.40576489702E+01 -0.37700729287E+03  0.38509750495E+03  0.78179252916E+02 0.  0.
         25    2    1    2    0    0 -0.58768166992E+02  0.40614035179E+02  0.17337853656E+02  0.14509187196E+03  0.12509137794E+03 0.  0.
         24    2    1    2    0    0  0.64861551905E+02 -0.44671684149E+02  0.22096600808E+03  0.24799031791E+03  0.80440293208E+02 0.  0.
        -13    1    5    5    0    0  0.67507579209E+02 -0.63783233654E+02  0.17445575818E+03  0.19763700490E+03  0.00000000000E+00 0.  1.
         14    1    5    5    0    0 -0.26460273036E+01  0.19111549505E+02  0.46510249905E+02  0.50353313011E+02  0.00000000000E+00 0. -1.
         13    1    3    3    0    0 -0.10957239072E+02  0.17980059512E+02 -0.24595143439E+02  0.32376916298E+02  0.00000000000E+00 0. -1.
        -14    1    3    3    0    0  0.48638541593E+01 -0.13922410542E+02 -0.35241214943E+03  0.35272058865E+03  0.00000000000E+00 0.  1.
          5    1    4    4  501    0  0.38059859211E+02  0.16203948383E+02 -0.71599266523E+01  0.42188360671E+02  0.41800000000E+01 0. -1.
         -5    1    4    4    0  501 -0.96828026203E+02  0.24410086795E+02  0.24497780308E+02  0.10290351129E+03  0.41800000000E+01 0. -1.
</event>
<event>
11    1  0.8039394E-009  0.1986327E+03  0.7561462E-02  0.1055495E+00
         22   -1    0    0    0    0  0.00000000000E+00  0.00000000000E+00  0.73628137012E+03  0.73628137012E+03  0.00000000000E+00 0. -1.
         22   -1    0    0    0    0 -0.00000000000E+00 -0.00000000000E+00 -0.96577052256E+03  0.96577052256E+03  0.00000000000E+00 0. -1.
         24    2    1    2    0    0 -0.13788021037E+03 -0.11439584281E+02 -0.59001259490E+03  0.61127848432E+03  0.80029411812E+02 0.  0.
         25    2    1    2    0    0  0.21975501665E+03  0.78769329762E+02 -0.30945868543E+03  0.40732204721E+03  0.12509875100E+03 0.  0.
        -24    2    1    2    0    0 -0.81874806287E+02 -0.67329745481E+02  0.66998212789E+03  0.68345136114E+03  0.83623757505E+02 0.  0.
        -11    1    3    3    0    0 -0.67358293174E+02 -0.11190356696E+02 -0.13989071671E+03  0.15566559146E+03  0.00000000000E+00 0.  1.
         12    1    3    3    0    0 -0.70521917193E+02 -0.24922758523E+00 -0.45012187818E+03  0.45561289286E+03  0.00000000000E+00 0. -1.
         13    1    5    5    0    0 -0.13208333287E+02 -0.56807283907E+02  0.41874312365E+03  0.42278520690E+03  0.00000000000E+00 0. -1.
        -14    1    5    5    0    0 -0.68666473000E+02 -0.10522461574E+02  0.25123900424E+03  0.26066615424E+03  0.00000000000E+00 0.  1.
          5    1    4    4  501    0  0.14922937440E+03 -0.11372254655E+02 -0.18885254013E+03  0.24100101384E+03  0.41800000000E+01 0. -1.
         -5    1    4    4    0  501  0.70525642250E+02  0.90141584417E+02 -0.12060614531E+03  0.16632103337E+03  0.41800000000E+01 0. -1.
</event>
<event>
11    1  0.8039394E-009  0.1495128E+03  0.7561462E-02  0.1097378E+00
         22   -1    0    0    0    0  0.00000000000E+00  0.00000000000E+00  0.61339591877E+03  0.61339591877E+03  0.00000000000E+00 0. -1.
         22   -1    0    0    0    0 -0.00000000000E+00 -0.00000000000E+00 -0.56862530096E+03  0.56862530096E+03  0.00000000000E+00 0.  1.
        -24    2    1    2    0    0  0.28252387508E+02 -0.39678715701E+02 -0.52791138744E+03  0.53652546194E+03  0.82441133218E+02 0.  0.
         25    2    1    2    0    0  0.42358609042E+02 -0.19789125762E+02  0.12904069620E+03  0.18570005051E+03  0.12508855354E+03 0.  0.
         24    2    1    2    0    0 -0.70610996549E+02  0.59467841463E+02  0.44364130906E+03  0.45979570728E+03  0.77923965039E+02 0.  0.
        -13    1    5    5    0    0 -0.30178722555E+01  0.81058715243E+01  0.57367166260E+00  0.86684373041E+01  0.00000000000E+00 0.  1.
         14    1    5    5    0    0 -0.67593124294E+02  0.51361969939E+02  0.44306763739E+03  0.45112726997E+03  0.00000000000E+00 0. -1.
         13    1    3    3    0    0  0.26351206655E+02 -0.52124502349E+02 -0.19952954663E+03  0.20790235645E+03  0.00000000000E+00 0. -1.
        -14    1    3    3    0    0  0.19011808530E+01  0.12445786648E+02 -0.32838184081E+03  0.32862310549E+03  0.00000000000E+00 0.  1.
          5    1    4    4  501    0  0.21448955651E+02  0.52792545781E+02  0.45864489869E+02  0.73267553661E+02  0.41800000000E+01 0.  1.
         -5    1    4    4    0  501  0.20909653391E+02 -0.72581671544E+02  0.83176206331E+02  0.11243249685E+03  0.41800000000E+01 0.  1.
</event>
<event>
11    1  0.8039394E-009  0.1323797E+03  0.7561462E-02  0.1116379E+00
         22   -1    0    0    0    0  0.00000000000E+00  0.00000000000E+00  0.23364983952E+03  0.23364983952E+03  0.00000000000E+00 0.  1.
         22   -1    0    0    0    0 -0.00000000000E+00 -0.00000000000E+00 -0.35005878422E+03  0.35005878422E+03  0.00000000000E+00 0. -1.
        -24    2    1    2    0    0 -0.20562824484E+02  0.38414481873E+02 -0.22801435926E+03  0.24588951786E+03  0.81071602893E+02 0.  0.
         25    2    1    2    0    0 -0.24431835899E+02 -0.28112779603E+02 -0.59244947627E+02  0.14333946158E+03  0.12509594095E+03 0.  0.
         24    2    1    2    0    0  0.44994660384E+02 -0.10301702270E+02  0.17085036218E+03  0.19447964431E+03  0.80633995677E+02 0.  0.
        -11    1    5    5    0    0  0.46020301427E+02 -0.26635874797E+02  0.16996620214E+03  0.17808943776E+03  0.00000000000E+00 0.  1.
         12    1    5    5    0    0 -0.10256410436E+01  0.16334172527E+02  0.88416003699E+00  0.16390206547E+02  0.00000000000E+00 0. -1.
         11    1    3    3    0    0  0.15409387733E+02  0.13188136971E+02 -0.17867836792E+03  0.17982584728E+03  0.00000000000E+00 0. -1.
        -12    1    3    3    0    0 -0.35972212217E+02  0.25226344902E+02 -0.49335991337E+02  0.66063670577E+02  0.00000000000E+00 0.  1.
          5    1    4    4  501    0  0.38630589755E+02  0.16215013608E+02  0.56612302395E+01  0.42482597131E+02  0.41800000000E+01 0. -1.
         -5    1    4    4    0  501 -0.63062425655E+02 -0.44327793211E+02 -0.64906177867E+02  0.10085686444E+03  0.41800000000E+01 0. -1.
</event>
<event>
11    1  0.8039394E-009  0.1452180E+03  0.7561462E-02  0.1101868E+00
         22   -1    0    0    0    0  0.00000000000E+00  0.00000000000E+00  0.94776491936E+03  0.94776491936E+03  0.00000000000E+00 0. -1.
         22   -1    0    0    0    0 -0.00000000000E+00 -0.00000000000E+00 -0.24017340128E+03  0.24017340128E+03  0.00000000000E+00 0.  1.
         24    2    1    2    0    0  0.34446805122E+02  0.64498831467E+02 -0.19555927502E+03  0.22319601929E+03  0.78907232480E+02 0.  0.
         25    2    1    2    0    0 -0.16211425251E+01 -0.93585176784E+02  0.19111046691E+03  0.24684075109E+03  0.12508530058E+03 0.  0.
        -24    2    1    2    0    0 -0.32825662597E+02  0.29086345317E+02  0.71204032619E+03  0.71790155026E+03  0.80359630032E+02 0.  0.
        -13    1    3    3    0    0  0.58167381232E+02  0.36813590488E+02 -0.14839302630E+03  0.16358231854E+03  0.00000000000E+00 0.  1.
         14    1    3    3    0    0 -0.23720576110E+02  0.27685240979E+02 -0.47166248713E+02  0.59613700747E+02  0.00000000000E+00 0. -1.
         11    1    5    5    0    0 -0.34196393255E+02  0.53652247508E+02  0.41558615011E+03  0.42042812125E+03  0.00000000000E+00 0. -1.
        -12    1    5    5    0    0  0.13707306581E+01 -0.24565902191E+02  0.29645417608E+03  0.29747342901E+03  0.00000000000E+00 0.  1.
          5    1    4    4  501    0  0.10396257887E+02  0.29611562105E+02  0.48948313718E+02  0.58295253703E+02  0.41800000000E+01 0.  1.
         -5    1    4    4    0  501 -0.12017400412E+02 -0.12319673889E+03  0.14216215319E+03  0.18854549739E+03  0.41800000000E+01 0.  1.
</event>
<event>
11    1  0.8039394E-009  0.6859201E+03  0.7561462E-02  0.9053315E-01
         22   -1    0    0    0    0  0.00000000000E+00  0.00000000000E+00  0.78332152525E+03  0.78332152525E+03  0.00000000000E+00 0. -1.
         22   -1    0    0    0    0 -0.00000000000E+00 -0.00000000000E+00 -0.27648008852E+04  0.27648008852E+04  0.00000000000E+00 0. -1.
         24    2    1    2    0    0  0.30040805415E+03 -0.61275094720E+03 -0.25141332028E+04  0.26064142853E+04  0.82588998429E+02 0.  0.
         25    2    1    2    0    0 -0.22900935513E+03  0.54505613293E+03  0.29602776511E+03  0.67291350287E+03  0.12509465153E+03 0.  0.
        -24    2    1    2    0    0 -0.71398699020E+02  0.67694814274E+02  0.23662607782E+03  0.26879462224E+03  0.81106634363E+02 0.  0.
        -13    1    3    3    0    0 -0.28189506828E+01 -0.21134845479E+02 -0.54494020526E+02  0.58516890292E+02  0.00000000000E+00 0.  1.
         14    1    3    3    0    0  0.30322700484E+03 -0.59161610172E+03 -0.24596391823E+04  0.25478973950E+04  0.00000000000E+00 0. -1.
         11    1    5    5    0    0 -0.69543737694E+02  0.35088212739E+02  0.92093765339E+02  0.12061830599E+03  0.00000000000E+00 0. -1.
        -12    1    5    5    0    0 -0.18549613258E+01  0.32606601535E+02  0.14453231249E+03  0.14817631625E+03  0.00000000000E+00 0.  1.
          5    1    4    4  501    0 -0.15794082971E+03  0.43690253992E+03  0.27999733531E+03  0.54244365169E+03  0.41800000000E+01 0. -1.
         -5    1    4    4    0  501 -0.71068525427E+02  0.10815359301E+03  0.16030429803E+02  0.13046985118E+03  0.41800000000E+01 0. -1.
</event>
<event>
11    1  0.8039394E-009  0.1468551E+03  0.7561462E-02  0.1100136E+00
         22   -1    0    0    0    0  0.00000000000E+00  0.00000000000E+00  0.93127314727E+03  0.93127314727E+03  0.00000000000E+00 0. -1.
         22   -1    0    0    0    0 -0.00000000000E+00 -0.00000000000E+00 -0.16320120991E+03  0.16320120991E+03  0.00000000000E+00 0. -1.
         24    2    1    2    0    0  0.35667620942E+02 -0.67972977585E+02 -0.11848663573E+03  0.16290747225E+03  0.81285034314E+02 0.  0.
         25    2    1    2    0    0 -0.16468005018E+02  0.81475299250E+02  0.26326106948E+03  0.30307244627E+03  0.12504838026E+03 0.  0.
        -24    2    1    2    0    0 -0.19199615924E+02 -0.13502321665E+02  0.62329750361E+03  0.62849443867E+03  0.77165688576E+02 0.  0.
        -13    1    3    3    0    0  0.38478967233E+02 -0.14252327412E+02 -0.96373771461E+02  0.10474570913E+03  0.00000000000E+00 0.  1.
         14    1    3    3    0    0 -0.28113462912E+01 -0.53720650173E+02 -0.22112864267E+02  0.58161763119E+02  0.00000000000E+00 0. -1.
         13    1    5    5    0    0  0.16427108456E+02 -0.44954632725E+01  0.48794723751E+03  0.48824437086E+03  0.00000000000E+00 0. -1.
        -14    1    5    5    0    0 -0.35626724380E+02 -0.90068583925E+01  0.13535026610E+03  0.14025006781E+03  0.00000000000E+00 0.  1.
          5    1    4    4  501    0  0.20734368998E+02  0.37126060916E+02  0.23438573345E+03  0.23824861574E+03  0.41800000000E+01 0.  1.
         -5    1    4    4    0  501 -0.37202374016E+02  0.44349238334E+02  0.28875336027E+02  0.64823830525E+02  0.41800000000E+01 0.  1.
</event>
<event>
11    1  0.8039394E-009  0.1406858E+03  0.7561462E-02  0.1106795E+00
         22   -1    0    0    0    0  0.00000000000E+00  0.00000000000E+00  0.13763841904E+03  0.13763841904E+03  0.00000000000E+00 0. -1.
         22   -1    0    0    0    0 -0.00000000000E+00 -0.00000000000E+00 -0.23115387143E+03  0.23115387143E+03  0.00000000000E+00 0.  1.
        -24    2    1    2    0    0  0.59082184371E+02 -0.48812034584E+02 -0.46002539396E+02  0.12144956836E+03  0.82221924044E+02 0.  0.
         25    2    1    2    0    0 -0.63445929030E+02 -0.82838216669E+01 -0.18479074206E+02  0.14171578203E+03  0.12509148285E+03 0.  0.
         24    2    1    2    0    0  0.43637446590E+01  0.57095856251E+02 -0.29033838796E+02  0.10562694008E+03  0.83875548323E+02 0.  0.
        -11    1    5    5    0    0 -0.14882418246E+02 -0.16977899547E+02 -0.16754426865E+02  0.28114876230E+02  0.00000000000E+00 0.  1.
         12    1    5    5    0    0  0.19246162905E+02  0.74073755798E+02 -0.12279411930E+02  0.77512063847E+02  0.00000000000E+00 0. -1.
         13    1    3    3    0    0 -0.30869524731E+01  0.73397835897E+01  0.15566181482E+02  0.17484498982E+02  0.00000000000E+00 0. -1.
        -14    1    3    3    0    0  0.62169136844E+02 -0.56151818174E+02 -0.61568720878E+02  0.10396506938E+03  0.00000000000E+00 0.  1.
          5    1    4    4  501    0 -0.29208810654E+02  0.17721822357E+02 -0.67870829261E+02  0.76099536609E+02  0.41800000000E+01 0.  1.
         -5    1    4    4    0  501 -0.34237118375E+02 -0.26005644024E+02  0.49391755056E+02  0.65616245422E+02  0.41800000000E+01 0.  1.
</event>
<event>
11    1  0.8399432E-009  0.2043688E+03  0.7561462E-02  0.1051477E+00
         22   -1    0    0    0    0  0.00000000000E+00  0.00000000000E+00  0.30336531724E+03  0.30336531724E+03  0.00000000000E+00 0.  1.
         22   -1    0    0    0    0 -0.00000000000E+00 -0.00000000000E+00 -0.18019689982E+04  0.18019689982E+04  0.00000000000E+00 0.  1.
        -24    2    1    2    0    0 -0.16078212916E+02 -0.40632408075E+02 -0.84067043513E+03  0.84570666267E+03  0.81138629954E+02 0.  0.
         25    2    1    2    0    0 -0.14570548759E+03  0.29521457253E+02 -0.92040823295E+03  0.94069136005E+03  0.12508922437E+03 0.  0.
         24    2    1    2    0    0  0.16178370050E+03  0.11110950822E+02  0.26247498715E+03  0.31893629268E+03  0.80807307398E+02 0.  0.
        -11    1    5    5    0    0  0.14902831127E+03  0.48342654596E+01  0.17322009496E+03  0.22855635843E+03  0.00000000000E+00 0.  1.
         12    1    5    5    0    0  0.12755389237E+02  0.62766853620E+01  0.89254892197E+02  0.90379934249E+02  0.00000000000E+00 0. -1.
         11    1    3    3    0    0 -0.34471288203E+02 -0.16823150490E+02 -0.16633457041E+03  0.17069996314E+03  0.00000000000E+00 0. -1.
        -12    1    3    3    0    0  0.18393075287E+02 -0.23809257585E+02 -0.67433586472E+03  0.67500669953E+03  0.00000000000E+00 0.  1.
          5    1    4    4  501    0 -0.34457360709E+02 -0.14130711296E+02 -0.52047021614E+02  0.64135415861E+02  0.41800000000E+01 0. -1.
         -5    1    4    4    0  501 -0.11124812688E+03  0.43652168549E+02 -0.86836121133E+03  0.87655594419E+03  0.41800000000E+01 0. -1.
</event>
<event>
11    1  0.8039394E-009  0.2306356E+03  0.7561462E-02  0.1034752E+00
         22   -1    0    0    0    0  0.00000000000E+00  0.00000000000E+00  0.14036017582E+03  0.14036017582E+03  0.00000000000E+00 0.  1.
         22   -1    0    0    0    0 -0.00000000000E+00 -0.00000000000E+00 -0.16259548182E+04  0.16259548182E+04  0.00000000000E+00 0.  1.
         24    2    1    2    0    0 -0.18763041719E+03  0.72520526005E+02 -0.13385553712E+04  0.13560147735E+04  0.81124496621E+02 0.  0.
         25    2    1    2    0    0  0.14251808464E+03 -0.73621457435E+02 -0.21607286484E+03  0.29675927320E+03  0.12508820834E+03 0.  0.
        -24    2    1    2    0    0  0.45112332544E+02  0.11009314295E+01  0.69033593739E+02  0.11354094727E+03  0.78035729289E+02 0.  0.
        -13    1    3    3    0    0 -0.15082664209E+03  0.26357516514E+02 -0.10803414199E+04  0.10911374699E+04  0.00000000000E+00 0.  1.
         14    1    3    3    0    0 -0.36803775097E+02  0.46163009491E+02 -0.25821395131E+03  0.26487730359E+03  0.00000000000E+00 0. -1.
         11    1    5    5    0    0  0.34565032084E+02  0.37993934089E+02  0.34126897110E+02  0.61667865026E+02  0.00000000000E+00 0. -1.
        -12    1    5    5    0    0  0.10547300460E+02 -0.36893002660E+02  0.34906696629E+02  0.51873082247E+02  0.00000000000E+00 0.  1.
          5    1    4    4  501    0  0.12680376873E+03 -0.47375253640E+02 -0.22672910715E+03  0.26409689671E+03  0.41800000000E+01 0. -1.
         -5    1    4    4    0  501  0.15714315909E+02 -0.26246203795E+02  0.10656242309E+02  0.32662376495E+02  0.41800000000E+01 0. -1.
</event>
<event>
11    1  0.8039394E-009  0.1726106E+03  0.7561462E-02  0.1075782E+00
         22   -1    0    0    0    0  0.00000000000E+00  0.00000000000E+00  0.11041422399E+03  0.11041422399E+03  0.00000000000E+00 0.  1.
         22   -1    0    0    0    0 -0.00000000000E+00 -0.00000000000E+00 -0.29457276239E+04  0.29457276239E+04  0.00000000000E+00 0. -1.
        -24    2    1    2    0    0 -0.11811368704E+03  0.20084898448E+02 -0.27194011014E+04  0.27232284703E+04  0.80477979499E+02 0.  0.
         25    2    1    2    0    0  0.10758391662E+03  0.19651854722E+02 -0.16180524527E+03  0.23192337209E+03  0.12508804347E+03 0.  0.
         24    2    1    2    0    0  0.10529770423E+02 -0.39736753170E+02  0.45892946733E+02  0.10099000548E+03  0.80018329332E+02 0.  0.
        -11    1    5    5    0    0  0.12932054066E+02 -0.54324829752E+02  0.58996530669E+02  0.81234326371E+02  0.00000000000E+00 0.  1.
         12    1    5    5    0    0 -0.24022836430E+01  0.14588076581E+02 -0.13103583936E+02  0.19755679108E+02  0.00000000000E+00 0. -1.
         11    1    3    3    0    0 -0.11277805140E+03  0.38659410028E+02 -0.25384965736E+04  0.25412946096E+04  0.00000000000E+00 0. -1.
        -12    1    3    3    0    0 -0.53356356414E+01 -0.18574511581E+02 -0.18090452778E+03  0.18193386068E+03  0.00000000000E+00 0.  1.
          5    1    4    4  501    0  0.13094340303E+02  0.42726743575E+02 -0.21607957655E+01  0.44935262354E+02  0.41800000000E+01 0.  1.
         -5    1    4    4    0  501  0.94489576315E+02 -0.23074888852E+02 -0.15964444950E+03  0.18698810974E+03  0.41800000000E+01 0.  1.
</event>
<event>
11    1  0.8039394E-009  0.1286236E+03  0.7561462E-02  0.1120972E+00
         22   -1    0    0    0    0  0.00000000000E+00  0.00000000000E+00  0.25757661796E+03  0.25757661796E+03  0.00000000000E+00 0. -1.
         22   -1    0    0    0    0 -0.00000000000E+00 -0.00000000000E+00 -0.21477108310E+03  0.21477108310E+03  0.00000000000E+00 0.  1.
         24    2    1    2    0    0  0.18195781776E+02 -0.49813903704E+01 -0.13634034495E+03  0.15950370381E+03  0.80602984706E+02 0.  0.
         25    2    1    2    0    0 -0.23542125049E+02  0.31660535693E+02  0.40919472653E+02  0.13740077811E+03  0.12509176396E+03 0.  0.
        -24    2    1    2    0    0  0.53463432725E+01 -0.26679145323E+02  0.13822640716E+03  0.17544321914E+03  0.10456301126E+03 0.  0.
        -13    1    3    3    0    0 -0.12190698703E+02 -0.36557111771E+02 -0.71876749919E+02  0.81555519340E+02  0.00000000000E+00 0.  1.
         14    1    3    3    0    0  0.30386480479E+02  0.31575721401E+02 -0.64463595036E+02  0.77948184474E+02  0.00000000000E+00 0. -1.
         11    1    5    5    0    0  0.34557790997E+02  0.28227954450E+02  0.71023239434E+02  0.83877046149E+02  0.00000000000E+00 0. -1.
        -12    1    5    5    0    0 -0.29211447725E+02 -0.54907099772E+02  0.67203167726E+02  0.91566172990E+02  0.00000000000E+00 0.  1.
          5    1    4    4  501    0  0.24675428789E+02 -0.31792138035E+02  0.40991691197E+02  0.57596944138E+02  0.41800000000E+01 0.  1.
         -5    1    4    4    0  501 -0.48217553838E+02  0.63452673728E+02 -0.72218544296E-01  0.79803833973E+02  0.41800000000E+01 0.  1.
</event>
<event>
11    1  0.8039394E-009  0.1511357E+03  0.7561462E-02  0.1095724E+00
         22   -1    0    0    0    0  0.00000000000E+00  0.00000000000E+00  0.22178207983E+03  0.22178207983E+03  0.00000000000E+00 0.  1.
         22   -1    0    0    0    0 -0.00000000000E+00 -0.00000000000E+00 -0.64211936481E+03  0.64211936481E+03  0.00000000000E+00 0. -1.
        -24    2    1    2    0    0 -0.54746589716E+02 -0.56698183219E+02 -0.44606388231E+03  0.46024073818E+03  0.81465802105E+02 0.  0.
         25    2    1    2    0    0  0.11154290020E+03  0.62509865768E+02 -0.12918362906E+03  0.22064939652E+03  0.12509374191E+03 0.  0.
         24    2    1    2    0    0 -0.56796310482E+02 -0.58116825482E+01  0.15491022639E+03  0.18301130994E+03  0.78970657750E+02 0.  0.
        -13    1    5    5    0    0 -0.64892389243E+02  0.96086957842E+01  0.15173412880E+03  0.16530757714E+03  0.00000000000E+00 0.  1.
         14    1    5    5    0    0  0.80960787604E+01 -0.15420378332E+02  0.31760975961E+01  0.17703732803E+02  0.00000000000E+00 0. -1.
         11    1    3    3    0    0 -0.73128858346E+01 -0.36935097511E+02 -0.34316669344E+03  0.34522609868E+03  0.00000000000E+00 0. -1.
        -12    1    3    3    0    0 -0.47433703882E+02 -0.19763085708E+02 -0.10289718888E+03  0.11501463950E+03  0.00000000000E+00 0.  1.
          5    1    4    4  501    0  0.13754983179E+03  0.55753173810E+02 -0.92314485728E+02  0.17483652162E+03  0.41800000000E+01 0. -1.
         -5    1    4    4    0  501 -0.26006931592E+02  0.67566919579E+01 -0.36869143328E+02  0.45812874902E+02  0.41800000000E+01 0. -1.
</event>
<event>
11    1  0.8039394E-009  0.1287541E+03  0.7561462E-02  0.1120809E+00
         22   -1    0    0    0    0  0.00000000000E+00  0.00000000000E+00  0.17937703092E+04  0.17937703092E+04  0.00000000000E+00 0. -1.
         22   -1    0    0    0    0 -0.00000000000E+00 -0.00000000000E+00 -0.26084832475E+03  0.26084832475E+03  0.00000000000E+00 0. -1.
        -24    2    1    2    0    0 -0.13727520381E+02 -0.18791452277E+02 -0.23093450581E+03  0.24597564500E+03  0.81435302328E+02 0.  0.
         25    2    1    2    0    0 -0.16880757618E+02  0.11758499257E+02  0.16796516453E+03  0.21043411608E+03  0.12508796277E+03 0.  0.
         24    2    1    2    0    0  0.30608277998E+02  0.70329530200E+01  0.15958913258E+04  0.15982088729E+04  0.80100865541E+02 0.  0.
        -11    1    5    5    0    0  0.46237581207E+02  0.70881671432E+01  0.49470923238E+03  0.49691586876E+03  0.00000000000E+00 0.  1.
         12    1    5    5    0    0 -0.15629303208E+02 -0.55214123152E-01  0.11011820934E+04  0.11012930041E+04  0.00000000000E+00 0. -1.
         11    1    3    3    0    0  0.81751427895E+01 -0.25342843505E+02 -0.21817589499E+03  0.21979493586E+03  0.00000000000E+00 0. -1.
        -12    1    3    3    0    0 -0.21902663170E+02  0.65513912273E+01 -0.12758610823E+02  0.26180709140E+02  0.00000000000E+00 0.  1.
          5    1    4    4  501    0  0.45994988234E+01  0.44094700312E+02  0.16541715094E+03  0.17130617097E+03  0.41800000000E+01 0. -1.
         -5    1    4    4    0  501 -0.21480256441E+02 -0.32336201055E+02  0.25480135899E+01  0.39127945112E+02  0.41800000000E+01 0. -1.
</event>
<event>
11    1  0.8039394E-009  0.1374462E+03  0.7561462E-02  0.1110444E+00
         22   -1    0    0    0    0  0.00000000000E+00  0.00000000000E+00  0.19587558892E+03  0.19587558892E+03  0.00000000000E+00 0.  1.
         22   -1    0    0    0    0 -0.00000000000E+00 -0.00000000000E+00 -0.68495163378E+03  0.68495163378E+03  0.00000000000E+00 0.  1.
         24    2    1    2    0    0 -0.41125454847E+02  0.30073461099E+02 -0.57673087571E+03  0.58454290475E+03  0.80474768734E+02 0.  0.
         25    2    1    2    0    0  0.30042143584E+01  0.23208995883E+02 -0.38462286921E+02  0.13294651174E+03  0.12509094562E+03 0.  0.
        -24    2    1    2    0    0  0.38121240489E+02 -0.53282456982E+02  0.12611711777E+03  0.16333780620E+03  0.80507529712E+02 0.  0.
        -13    1    3    3    0    0 -0.18350056586E+02  0.51935887009E+02 -0.47069658580E+03  0.47390857433E+03  0.00000000000E+00 0.  1.
         14    1    3    3    0    0 -0.22775398261E+02 -0.21862425910E+02 -0.10603428991E+03  0.11063433043E+03  0.00000000000E+00 0. -1.
         13    1    5    5    0    0 -0.46244148941E+01  0.16771726288E+02  0.43676529486E+02  0.47013989873E+02  0.00000000000E+00 0. -1.
        -14    1    5    5    0    0  0.42745655383E+02 -0.70054183270E+02  0.82440588285E+02  0.11632381633E+03  0.00000000000E+00 0.  1.
          5    1    4    4  501    0  0.26069913784E+02  0.68838108728E+02 -0.34770478179E+02  0.81515545577E+02  0.41800000000E+01 0.  1.
         -5    1    4    4    0  501 -0.23065699426E+02 -0.45629112845E+02 -0.36918087423E+01  0.51430966166E+02  0.41800000000E+01 0.  1.
</event>
<event>
11    1  0.8039394E-009  0.1289884E+03  0.7561462E-02  0.1120518E+00
         22   -1    0    0    0    0  0.00000000000E+00  0.00000000000E+00  0.11353294444E+03  0.11353294444E+03  0.00000000000E+00 0.  1.
         22   -1    0    0    0    0 -0.00000000000E+00 -0.00000000000E+00 -0.11149220128E+04  0.11149220128E+04  0.00000000000E+00 0.  1.
         24    2    1    2    0    0  0.13225772457E+02 -0.22621644104E+02 -0.93463201763E+03  0.93863671507E+03  0.82554313352E+02 0.  0.
         25    2    1    2    0    0  0.18513913650E+02  0.10182946185E+02 -0.12907066569E+03  0.18097752326E+03  0.12508864773E+03 0.  0.
        -24    2    1    2    0    0 -0.31739686107E+02  0.12438697919E+02  0.62313614943E+02  0.10884071894E+03  0.82469307088E+02 0.  0.
        -13    1    3    3    0    0  0.23794947361E+02 -0.23252902645E+02 -0.91986311169E+03  0.92046457903E+03  0.00000000000E+00 0.  1.
         14    1    3    3    0    0 -0.10569174904E+02  0.63125854107E+00 -0.14768905944E+02  0.18172136041E+02  0.00000000000E+00 0. -1.
         11    1    5    5    0    0 -0.41700986878E+02 -0.17950822082E+02  0.84228172088E+01  0.46175189981E+02  0.00000000000E+00 0. -1.
        -12    1    5    5    0    0  0.99613007718E+01  0.30389520001E+02  0.53890797735E+02  0.62665528957E+02  0.00000000000E+00 0.  1.
          5    1    4    4  501    0  0.11544238601E+02 -0.30521121543E+02 -0.13508801444E+03  0.13903615483E+03  0.41800000000E+01 0. -1.
         -5    1    4    4    0  501  0.69696750488E+01  0.40704067728E+02  0.60173487475E+01  0.41941368431E+02  0.41800000000E+01 0. -1.
</event>
<event>
11    1  0.8039394E-009  0.3461698E+03  0.7561462E-02  0.9823469E-01
         22   -1    0    0    0    0  0.00000000000E+00  0.00000000000E+00  0.14444803869E+04  0.14444803869E+04  0.00000000000E+00 0. -1.
         22   -1    0    0    0    0 -0.00000000000E+00 -0.00000000000E+00 -0.44768432493E+03  0.44768432493E+03  0.00000000000E+00 0.  1.
        -24    2    1    2    0    0  0.12569272717E+03  0.23777654034E+03 -0.92048051742E+02  0.29514821613E+03  0.79393204095E+02 0.  0.
         25    2    1    2    0    0 -0.27513419524E+03 -0.34395359153E+03 -0.31475355188E+02  0.45895729637E+03  0.12509277913E+03 0.  0.
         24    2    1    2    0    0  0.14944146806E+03  0.10617705119E+03  0.11203194689E+04  0.11380591993E+04  0.80353656988E+02 0.  0.
        -13    1    5    5    0    0  0.25036564821E+01 -0.16334589888E+00  0.20109378731E+03  0.20110943855E+03  0.00000000000E+00 0.  1.
         14    1    5    5    0    0  0.14693781158E+03  0.10634039709E+03  0.91922568155E+03  0.93694976074E+03  0.00000000000E+00 0. -1.
         13    1    3    3    0    0  0.69625886281E+02  0.20223077754E+03 -0.74475902194E+02  0.22647673486E+03  0.00000000000E+00 0. -1.
        -14    1    3    3    0    0  0.56066840892E+02  0.35545762802E+02 -0.17572149548E+02  0.68671481275E+02  0.00000000000E+00 0.  1.
          5    1    4    4  501    0 -0.36135585365E+01 -0.22512925307E+02 -0.30318078593E+02  0.38164746832E+02  0.41800000000E+01 0. -1.
         -5    1    4    4    0  501 -0.27152063670E+03 -0.32144066622E+03 -0.11572765950E+01  0.42079254954E+03  0.41800000000E+01 0. -1.
</event>
<event>
11    1  0.8039394E-009  0.2136077E+03  0.7561462E-02  0.1045297E+00
         22   -1    0    0    0    0  0.00000000000E+00  0.00000000000E+00  0.23103897922E+04  0.23103897922E+04  0.00000000000E+00 0. -1.
         22   -1    0    0    0    0 -0.00000000000E+00 -0.00000000000E+00 -0.32465815485E+02  0.32465815485E+02  0.00000000000E+00 0.  1.
        -24    2    1    2    0    0 -0.46974940848E+00 -0.12951677128E+02  0.10547674696E+03  0.13327359226E+03  0.80427231949E+02 0.  0.
         25    2    1    2    0    0  0.10682758219E+03 -0.12945228273E+03  0.10798504945E+04  0.10999523878E+04  0.12509252259E+03 0.  0.
         24    2    1    2    0    0 -0.10635783278E+03  0.14240395986E+03  0.10925967353E+04  0.11096296277E+04  0.76937690174E+02 0.  0.
        -11    1    5    5    0    0  0.38339068363E+01 -0.34586505416E+01  0.11324318722E+03  0.11336084226E+03  0.00000000000E+00 0.  1.
         12    1    5    5    0    0 -0.11019173962E+03  0.14586261040E+03  0.97935354811E+03  0.99626878541E+03  0.00000000000E+00 0. -1.
         13    1    3    3    0    0 -0.24875576097E+02 -0.36820552445E+02  0.76623353981E+02  0.88575875631E+02  0.00000000000E+00 0. -1.
        -14    1    3    3    0    0  0.24405826688E+02  0.23868875317E+02  0.28853392978E+02  0.44697716626E+02  0.00000000000E+00 0.  1.
          5    1    4    4  501    0 -0.37265280752E+01 -0.87511011676E+02  0.36564773388E+03  0.37601569364E+03  0.41800000000E+01 0.  1.
         -5    1    4    4    0  501  0.11055411026E+03 -0.41941271052E+02  0.71420276059E+03  0.72393669416E+03  0.41800000000E+01 0.  1.
</event>
<event>
11    1  0.8039394E-009  0.2990282E+03  0.7561462E-02  0.1000603E+00
         22   -1    0    0    0    0  0.00000000000E+00  0.00000000000E+00  0.37999703074E+03  0.37999703074E+03  0.00000000000E+00 0. -1.
         22   -1    0    0    0    0 -0.00000000000E+00 -0.00000000000E+00 -0.13842234280E+04  0.13842234280E+04  0.00000000000E+00 0. -1.
         24    2    1    2    0    0 -0.26006679821E+03  0.26687391350E+02 -0.98970577149E+03  0.10269757387E+04  0.82551179852E+02 0.  0.
         25    2    1    2    0    0  0.30478727456E+03 -0.12358923482E+03 -0.27380004234E+03  0.44585129420E+03  0.12508929475E+03 0.  0.
        -24    2    1    2    0    0 -0.44720476349E+02  0.96901843473E+02  0.25927941655E+03  0.29139342589E+03  0.79337409415E+02 0.  0.
        -11    1    3    3    0    0 -0.11889130557E+03  0.53520148079E+02 -0.45913851185E+03  0.47729207185E+03  0.00000000000E+00 0.  1.
         12    1    3    3    0    0 -0.14117549264E+03 -0.26832756729E+02 -0.53056725964E+03  0.54968366681E+03  0.00000000000E+00 0. -1.
         11    1    5    5    0    0 -0.48644474957E+02  0.81402460877E+02  0.25854598691E+03  0.27538822220E+03  0.00000000000E+00 0. -1.
        -12    1    5    5    0    0  0.39239986074E+01  0.15499382597E+02  0.73342963511E+00  0.16005203684E+02  0.00000000000E+00 0.  1.
          5    1    4    4  501    0  0.11796235078E+03 -0.11471125731E+03 -0.13564787707E+03  0.21328761734E+03  0.41800000000E+01 0.  1.
         -5    1    4    4    0  501  0.18682492377E+03 -0.88779775083E+01 -0.13815216528E+03  0.23256367687E+03  0.41800000000E+01 0.  1.
</event>
<event>
11    1  0.8039394E-009  0.1454836E+03  0.7561462E-02  0.1101585E+00
         22   -1    0    0    0    0  0.00000000000E+00  0.00000000000E+00  0.35517359718E+04  0.35517359718E+04  0.00000000000E+00 0.  1.
         22   -1    0    0    0    0 -0.00000000000E+00 -0.00000000000E+00 -0.30607473139E+03  0.30607473139E+03  0.00000000000E+00 0. -1.
         24    2    1    2    0    0  0.52511586240E+02  0.11650355357E+01 -0.25903726367E+03  0.27593524245E+03  0.79253580720E+02 0.  0.
         25    2    1    2    0    0 -0.94050227277E+02 -0.61884053424E+02  0.15013476676E+03  0.22552879155E+03  0.12509079226E+03 0.  0.
        -24    2    1    2    0    0  0.41538641037E+02  0.60719017888E+02  0.33545637373E+04  0.33563466692E+04  0.80949602761E+02 0.  0.
        -11    1    3    3    0    0  0.43207990837E+02  0.45672724279E+01 -0.48305823302E+02  0.64971093684E+02  0.00000000000E+00 0.  1.
         12    1    3    3    0    0  0.93035954029E+01 -0.34022368922E+01 -0.21073144037E+03  0.21096414876E+03  0.00000000000E+00 0. -1.
         11    1    5    5    0    0  0.45038562748E+02 -0.29435797487E+01  0.12363694375E+04  0.12371930015E+04  0.00000000000E+00 0. -1.
        -12    1    5    5    0    0 -0.34999217114E+01  0.63662597637E+02  0.21181942998E+04  0.21191536677E+04  0.00000000000E+00 0.  1.
          5    1    4    4  501    0 -0.70279803645E+02  0.23080500059E+02  0.98373434957E+02  0.12315342216E+03  0.41800000000E+01 0.  1.
         -5    1    4    4    0  501 -0.23770423632E+02 -0.84964553483E+02  0.51761331800E+02  0.10237536939E+03  0.41800000000E+01 0.  1.
</event>
<event>
11    1  0.8039394E-009  0.1599148E+03  0.7561462E-02  0.1087157E+00
         22   -1    0    0    0    0  0.00000000000E+00  0.00000000000E+00  0.11704130269E+04  0.11704130269E+04  0.00000000000E+00 0. -1.
         22   -1    0    0    0    0 -0.00000000000E+00 -0.00000000000E+00 -0.24406899749E+04  0.24406899749E+04  0.00000000000E+00 0.  1.
         24    2    1    2    0    0  0.29174504437E+02 -0.10735602944E+02 -0.24010588811E+04  0.24026151310E+04  0.80680311020E+02 0.  0.
         25    2    1    2    0    0 -0.93541615624E+02  0.82886226209E+02  0.19050992755E+03  0.25992521665E+03  0.12508767087E+03 0.  0.
        -24    2    1    2    0    0  0.64367111186E+02 -0.72150623265E+02  0.94027200554E+03  0.94856265410E+03  0.79440713164E+02 0.  0.
        -13    1    3    3    0    0  0.56046823252E+02 -0.38748201162E+01 -0.18572069282E+04  0.18580564671E+04  0.00000000000E+00 0.  1.
         14    1    3    3    0    0 -0.26872318815E+02 -0.68607828278E+01 -0.54385195282E+03  0.54455866391E+03  0.00000000000E+00 0. -1.
         11    1    5    5    0    0  0.29948861866E+02 -0.60430387481E+02  0.31043061328E+03  0.31767268016E+03  0.00000000000E+00 0. -1.
        -12    1    5    5    0    0  0.34418249321E+02 -0.11720235784E+02  0.62984139225E+03  0.63088997393E+03  0.00000000000E+00 0.  1.
          5    1    4    4  501    0 -0.97070258592E+01  0.86857819189E+02  0.12862280035E+03  0.15556286278E+03  0.41800000000E+01 0. -1.
         -5    1    4    4    0  501 -0.83834589764E+02 -0.39715929798E+01  0.61887127200E+02  0.10436235387E+03  0.41800000000E+01 0. -1.
</event>
<event>
11    1  0.8039394E-009  0.1508522E+03  0.7561462E-02  0.1096011E+00
         22   -1    0    0    0    0  0.00000000000E+00  0.00000000000E+00  0.58599833182E+03  0.58599833182E+03  0.00000000000E+00 0. -1.
         22   -1    0    0    0    0 -0.00000000000E+00 -0.00000000000E+00 -0.49742316644E+03  0.49742316644E+03  0.00000000000E+00 0.  1.
         24    2    1    2    0    0  0.74950244182E+02  0.36682855276E+02 -0.44343849558E+03  0.45830766323E+03  0.80281030369E+02 0.  0.
         25    2    1    2    0    0 -0.70979211343E+02 -0.93826290050E+02  0.14173778595E+03  0.22266152782E+03  0.12508850810E+03 0.  0.
        -24    2    1    2    0    0 -0.39710328392E+01  0.57143434774E+02  0.39027587501E+03  0.40245230720E+03  0.79821423917E+02 0.  0.
        -11    1    3    3    0    0  0.15819715363E+02  0.19982412396E+02 -0.31392839448E+03  0.31496126279E+03  0.00000000000E+00 0.  1.
         12    1    3    3    0    0  0.59130528819E+02  0.16700442880E+02 -0.12951010110E+03  0.14334640044E+03  0.00000000000E+00 0. -1.
         11    1    5    5    0    0  0.35577940292E+02  0.40533258070E+02  0.18287622639E+03  0.19066318214E+03  0.00000000000E+00 0. -1.
        -12    1    5    5    0    0 -0.39548973131E+02  0.16610176704E+02  0.20739964862E+03  0.21178912506E+03  0.00000000000E+00 0.  1.
          5    1    4    4  501    0  0.22124126325E+02 -0.13640702397E+02 -0.92919977158E+01  0.27917008240E+02  0.41800000000E+01 0.  1.
         -5    1    4    4    0  501 -0.93103337668E+02 -0.80185587654E+02  0.15102978367E+03  0.19474451958E+03  0.41800000000E+01 0.  1.
</event>
<event>
11    1  0.8039394E-009  0.1435533E+03  0.7561462E-02  0.1103654E+00
         22   -1    0    0    0    0  0.00000000000E+00  0.00000000000E+00  0.27683773990E+04  0.27683773990E+04  0.00000000000E+00 0. -1.
         22   -1    0    0    0    0 -0.00000000000E+00 -0.00000000000E+00 -0.26457902089E+02  0.26457902089E+02  0.00000000000E+00 0. -1.
        -24    2    1    2    0    0 -0.71703025295E+02 -0.18743050083E+02  0.13777178868E+03  0.17708239440E+03  0.82972784010E+02 0.  0.
         25    2    1    2    0    0  0.56619082236E+02 -0.27487716086E+02  0.88337068678E+03  0.89440073013E+03  0.12509037047E+03 0.  0.
         24    2    1    2    0    0  0.15083943059E+02  0.46230766169E+02  0.17207770215E+04  0.17233521766E+04  0.80649599100E+02 0.  0.
        -11    1    5    5    0    0  0.17345226218E+02  0.26814301845E+02  0.20700031261E+03  0.20944926134E+03  0.00000000000E+00 0.  1.
         12    1    5    5    0    0 -0.22612831598E+01  0.19416464324E+02  0.15137767089E+04  0.15139029152E+04  0.00000000000E+00 0. -1.
         13    1    3    3    0    0 -0.42470160350E+02 -0.73834095569E+01  0.83418408372E+01  0.43906896558E+02  0.00000000000E+00 0. -1.
        -14    1    3    3    0    0 -0.29232864945E+02 -0.11359640526E+02  0.12942994784E+03  0.13317549784E+03  0.00000000000E+00 0.  1.
          5    1    4    4  501    0 -0.16119815737E+02 -0.58495700873E+02  0.39280156470E+03  0.39748224754E+03  0.41800000000E+01 0. -1.
         -5    1    4    4    0  501  0.72738897973E+02  0.31007984787E+02  0.49056912208E+03  0.49691848258E+03  0.41800000000E+01 0. -1.
</event>
<event>
11    1  0.8039394E-009  0.1635463E+03  0.7561462E-02  0.1083788E+00
         22   -1    0    0    0    0  0.00000000000E+00  0.00000000000E+00  0.56953275919E+03  0.56953275919E+03  0.00000000000E+00 0.  1.
         22   -1    0    0    0    0 -0.00000000000E+00 -0.00000000000E+00 -0.26018250165E+03  0.26018250165E+03  0.00000000000E+00 0. -1.
         24    2    1    2    0    0  0.91650319360E+02  0.39520676596E+02 -0.17176451339E+03  0.21460320772E+03  0.81177729633E+02 0.  0.
         25    2    1    2    0    0 -0.11369758868E+03 -0.11018084392E+03  0.11211069313E+03  0.23083544901E+03  0.12509691030E+03 0.  0.
        -24    2    1    2    0    0  0.22047269320E+02  0.70660167320E+02  0.36900407779E+03  0.38427660411E+03  0.77624465905E+02 0.  0.
        -13    1    3    3    0    0  0.52925376706E+01  0.26912889689E+02 -0.72456075934E+01  0.28369233613E+02  0.00000000000E+00 0.  1.
         14    1    3    3    0    0  0.86357781690E+02  0.12607786907E+02 -0.16451890579E+03  0.18623397411E+03  0.00000000000E+00 0. -1.
         13    1    5    5    0    0 -0.15386439406E+02 -0.96783671354E+01  0.77077264295E+02  0.79191653470E+02  0.00000000000E+00 0. -1.
        -14    1    5    5    0    0  0.37433708725E+02  0.80338534455E+02  0.29192681350E+03  0.30508495064E+03  0.00000000000E+00 0.  1.
          5    1    4    4  501    0 -0.22872114706E+01 -0.10544043923E+01  0.68738030002E+02  0.68911046092E+02  0.41800000000E+01 0. -1.
         -5    1    4    4    0  501 -0.11141037721E+03 -0.10912643952E+03  0.43372663130E+02  0.16192440292E+03  0.41800000000E+01 0. -1.
</event>
<event>
11    1  0.8039394E-009  0.2459328E+03  0.7561462E-02  0.1026088E+00
         22   -1    0    0    0    0  0.00000000000E+00  0.00000000000E+00  0.13791075008E+04  0.13791075008E+04  0.00000000000E+00 0. -1.
         22   -1    0    0    0    0 -0.00000000000E+00 -0.00000000000E+00 -0.19381097386E+04  0.19381097386E+04  0.00000000000E+00 0.  1.
         24    2    1    2    0    0 -0.83978545368E+02 -0.10901511096E+02 -0.13955678529E+04  0.14021444227E+04  0.10596278243E+03 0.  0.
         25    2    1    2    0    0  0.13379012397E+02  0.21085509770E+03 -0.50129980122E+03  0.55820023166E+03  0.12508851955E+03 0.  0.
        -24    2    1    2    0    0  0.70599532971E+02 -0.19995358661E+03  0.13378654163E+04  0.13568725851E+04  0.79079764018E+02 0.  0.
        -11    1    3    3    0    0  0.14206586652E+02  0.65327471381E+01 -0.61932880748E+03  0.61952617028E+03  0.00000000000E+00 0.  1.
         12    1    3    3    0    0 -0.98185132020E+02 -0.17434258234E+02 -0.77623904539E+03  0.78261825247E+03  0.00000000000E+00 0. -1.
         11    1    5    5    0    0  0.44967960645E+02 -0.16092838907E+03  0.11936248263E+04  0.12052635769E+04  0.00000000000E+00 0. -1.
        -12    1    5    5    0    0  0.25631572326E+02 -0.39025197532E+02  0.14424059001E+03  0.15160900814E+03  0.00000000000E+00 0.  1.
          5    1    4    4  501    0  0.46704222711E+02  0.11731368265E+03 -0.16678621317E+03  0.20923407433E+03  0.41800000000E+01 0. -1.
         -5    1    4    4    0  501 -0.33325210314E+02  0.93541415047E+02 -0.33451358805E+03  0.34896615733E+03  0.41800000000E+01 0. -1.
</event>
<event>
11    1  0.8039394E-009  0.1384616E+03  0.7561462E-02  0.1109289E+00
         22   -1    0    0    0    0  0.00000000000E+00  0.00000000000E+00  0.14854133429E+03  0.14854133429E+03  0.00000000000E+00 0.  1.
         22   -1    0    0    0    0 -0.00000000000E+00 -0.00000000000E+00 -0.97686393207E+03  0.97686393207E+03  0.00000000000E+00 0.  1.
        -24    2    1    2    0    0  0.43110320959E+02  0.42962171774E+02 -0.86582493363E+03  0.87234942002E+03  0.87386766355E+02 0.  0.
         25    2    1    2    0    0  0.10976281975E+02 -0.56874785748E+02 -0.28109754170E+02  0.14068885802E+03  0.12509187212E+03 0.  0.
         24    2    1    2    0    0 -0.54086602934E+02  0.13912613974E+02  0.65612090027E+02  0.11236698831E+03  0.72128165515E+02 0.  0.
        -11    1    5    5    0    0 -0.13040703285E+02  0.21720950746E+01  0.68321771081E+02  0.69589096437E+02  0.00000000000E+00 0.  1.
         12    1    5    5    0    0 -0.41045899649E+02  0.11740518899E+02 -0.27096810546E+01  0.42777891877E+02  0.00000000000E+00 0. -1.
         11    1    3    3    0    0 -0.36001138289E+01 -0.24284236250E+02 -0.18712259093E+03  0.18872612164E+03  0.00000000000E+00 0. -1.
        -12    1    3    3    0    0  0.46710434788E+02  0.67246408024E+02 -0.67870234270E+03  0.68362329839E+03  0.00000000000E+00 0.  1.
          5    1    4    4  501    0  0.45214582102E+02 -0.61821023261E+01 -0.56810343858E+02  0.72989481386E+02  0.41800000000E+01 0.  1.
         -5    1    4    4    0  501 -0.34238300127E+02 -0.50692683422E+02  0.28700589687E+02  0.67699376633E+02  0.41800000000E+01 0.  1.
</event>
<event>
11    1  0.8039394E-009  0.1414220E+03  0.7561462E-02  0.1105981E+00
         22   -1    0    0    0    0  0.00000000000E+00  0.00000000000E+00  0.51895581049E+03  0.51895581049E+03  0.00000000000E+00 0. -1.
         22   -1    0    0    0    0 -0.00000000000E+00 -0.00000000000E+00 -0.21456145805E+04  0.21456145805E+04  0.00000000000E+00 0.  1.
         24    2    1    2    0    0  0.48536624055E+01 -0.46845125662E+02 -0.13832354942E+04  0.13863093528E+04  0.79342078605E+02 0.  0.
         25    2    1    2    0    0 -0.59459346234E+02  0.95478331545E+01 -0.74931654652E+03  0.76206899138E+03  0.12508911128E+03 0.  0.
        -24    2    1    2    0    0  0.54605683828E+02  0.37297292508E+02  0.50589327066E+03  0.51619204685E+03  0.78443350275E+02 0.  0.
        -11    1    3    3    0    0  0.40587556034E+02 -0.15432485059E+02 -0.54655970623E+03  0.54828188350E+03  0.00000000000E+00 0.  1.
         12    1    3    3    0    0 -0.35733893629E+02 -0.31412640603E+02 -0.83667578795E+03  0.83802746929E+03  0.00000000000E+00 0. -1.
         11    1    5    5    0    0  0.59769627732E+02  0.50716225304E+02  0.48179691444E+03  0.48813196031E+03  0.00000000000E+00 0. -1.
        -12    1    5    5    0    0 -0.51639439035E+01 -0.13418932796E+02  0.24096356216E+02  0.28060086545E+02  0.00000000000E+00 0.  1.
          5    1    4    4  501    0 -0.30851065827E+02  0.66073876567E+02 -0.46888493681E+03  0.47453988430E+03  0.41800000000E+01 0. -1.
         -5    1    4    4    0  501 -0.28608280407E+02 -0.56526043413E+02 -0.28043160972E+03  0.28752910708E+03  0.41800000000E+01 0. -1.
</event>
<event>
11    1  0.8039394E-009  0.1802384E+03  0.7561462E-02  0.1069450E+00
         22   -1    0    0    0    0  0.00000000000E+00  0.00000000000E+00  0.10697880771E+03  0.10697880771E+03  0.00000000000E+00 0.  1.
         22   -1    0    0    0    0 -0.00000000000E+00 -0.00000000000E+00 -0.62313819515E+03  0.62313819515E+03  0.00000000000E+00 0.  1.
        -24    2    1    2    0    0 -0.82652628763E+02  0.38864660647E+02 -0.20435411622E+03  0.23778087534E+03  0.80232293827E+02 0.  0.
         25    2    1    2    0    0 -0.16799045194E+02 -0.13221842827E+03 -0.27445468725E+03  0.32975333929E+03  0.12509184115E+03 0.  0.
         24    2    1    2    0    0  0.99451673957E+02  0.93353767622E+02 -0.37350583971E+02  0.16258278824E+03  0.80203089256E+02 0.  0.
        -11    1    5    5    0    0  0.10263188320E+03  0.68554603848E+02 -0.51634744627E+02  0.13378783208E+03  0.00000000000E+00 0.  1.
         12    1    5    5    0    0 -0.31802092469E+01  0.24799163774E+02  0.14284160656E+02  0.28794956163E+02  0.00000000000E+00 0. -1.
         11    1    3    3    0    0 -0.36485847901E+02 -0.14128599138E+02 -0.12870982534E+03  0.13452528963E+03  0.00000000000E+00 0. -1.
        -12    1    3    3    0    0 -0.46166780863E+02  0.52993259785E+02 -0.75644290878E+02  0.10325558571E+03  0.00000000000E+00 0.  1.
          5    1    4    4  501    0 -0.46152696441E+01  0.11722152113E+02 -0.11010692542E+03  0.11090408914E+03  0.41800000000E+01 0. -1.
         -5    1    4    4    0  501 -0.12183775550E+02 -0.14394058038E+03 -0.16434776183E+03  0.21884925014E+03  0.41800000000E+01 0. -1.
</event>
<event>
11    1  0.8039394E-009  0.1378147E+03  0.7561462E-02  0.1110023E+00
         22   -1    0    0    0    0  0.00000000000E+00  0.00000000000E+00  0.10932346558E+04  0.10932346558E+04  0.00000000000E+00 0. -1.
         22   -1    0    0    0    0 -0.00000000000E+00 -0.00000000000E+00 -0.16084341625E+03  0.16084341625E+03  0.00000000000E+00 0.  1.
         24    2    1    2    0    0  0.38205456820E+02 -0.40477676653E+02 -0.10208230669E+03  0.14122697538E+03  0.80163345725E+02 0.  0.
         25    2    1    2    0    0 -0.60073017063E+02  0.44347958028E+02  0.10547230366E+03  0.17985590022E+03  0.12509288247E+03 0.  0.
        -24    2    1    2    0    0  0.21867560243E+02 -0.38702813744E+01  0.92900124262E+03  0.93299519648E+03  0.83328018096E+02 0.  0.
        -11    1    3    3    0    0  0.57689789205E+02 -0.40496483630E+02 -0.52304015989E+02  0.87771219961E+02  0.00000000000E+00 0.  1.
         12    1    3    3    0    0 -0.19484332385E+02  0.18806976542E-01 -0.49778290705E+02  0.53455755422E+02  0.00000000000E+00 0. -1.
         11    1    5    5    0    0  0.28068120345E+02  0.22024347349E+02  0.82047330143E+03  0.82124864055E+03  0.00000000000E+00 0. -1.
        -12    1    5    5    0    0 -0.62005601015E+01 -0.25894628724E+02  0.10852794119E+03  0.11174655593E+03  0.00000000000E+00 0.  1.
          5    1    4    4  501    0 -0.89334885780E+02 -0.34300925523E+01  0.64250349741E+02  0.11017289682E+03  0.41800000000E+01 0.  1.
         -5    1    4    4    0  501  0.29261868716E+02  0.47778050580E+02  0.41221953924E+02  0.69683003403E+02  0.41800000000E+01 0.  1.
</event>
<event>
11    1  0.8039394E-009  0.2718901E+03  0.7561462E-02  0.1012844E+00
         22   -1    0    0    0    0  0.00000000000E+00  0.00000000000E+00  0.37547455161E+03  0.37547455161E+03  0.00000000000E+00 0.  1.
         22   -1    0    0    0    0 -0.00000000000E+00 -0.00000000000E+00 -0.26105434735E+04  0.26105434735E+04  0.00000000000E+00 0. -1.
         24    2    1    2    0    0 -0.22520775099E+03  0.10845165344E+03 -0.18514587067E+04  0.18701026823E+04  0.83092765361E+02 0.  0.
         25    2    1    2    0    0  0.16682357654E+03 -0.15537953935E+03 -0.71834258523E+03  0.76396132173E+03  0.12509166402E+03 0.  0.
        -24    2    1    2    0    0  0.58384174450E+02  0.46927885912E+02  0.33473237002E+03  0.35195402105E+03  0.78834859641E+02 0.  0.
        -11    1    3    3    0    0 -0.14695760265E+03  0.27261071534E+02 -0.11418438234E+04  0.11515845692E+04  0.00000000000E+00 0.  1.
         12    1    3    3    0    0 -0.78250148342E+02  0.81190581908E+02 -0.70961488325E+03  0.71851811309E+03  0.00000000000E+00 0. -1.
         11    1    5    5    0    0  0.30615583337E+02 -0.16406460444E+02  0.67423347264E+02  0.75844536017E+02  0.00000000000E+00 0. -1.
        -12    1    5    5    0    0  0.27768591113E+02  0.63334346355E+02  0.26730902276E+03  0.27610948504E+03  0.00000000000E+00 0.  1.
          5    1    4    4  501    0 -0.13717862097E+02 -0.26916903093E+02 -0.16667936760E+03  0.16944669780E+03  0.41800000000E+01 0. -1.
         -5    1    4    4    0  501  0.18054143864E+03 -0.12846263626E+03 -0.55166321763E+03  0.59451462393E+03  0.41800000000E+01 0. -1.
</event>
<event>
11    1  0.8039394E-009  0.2309573E+03  0.7561462E-02  0.1034563E+00
         22   -1    0    0    0    0  0.00000000000E+00  0.00000000000E+00  0.25131485055E+04  0.25131485055E+04  0.00000000000E+00 0. -1.
         22   -1    0    0    0    0 -0.00000000000E+00 -0.00000000000E+00 -0.47224964085E+03  0.47224964085E+03  0.00000000000E+00 0.  1.
         24    2    1    2    0    0  0.69362280316E+02  0.97763254724E+01 -0.43490799032E+03  0.44740918820E+03  0.78251640036E+02 0.  0.
         25    2    1    2    0    0 -0.10615859851E+03 -0.19573920056E+03  0.61614750251E+03  0.66698447829E+03  0.12508823593E+03 0.  0.
        -24    2    1    2    0    0  0.36796318192E+02  0.18596287508E+03  0.18596593525E+04  0.18710044799E+04  0.79929321830E+02 0.  0.
        -13    1    3    3    0    0  0.62631897181E+02  0.32730842767E+02 -0.21758005818E+03  0.22876875733E+03  0.00000000000E+00 0.  1.
         14    1    3    3    0    0  0.67303831352E+01 -0.22954517294E+02 -0.21732793214E+03  0.21864043087E+03  0.00000000000E+00 0. -1.
         11    1    5    5    0    0  0.15075289296E+01  0.12721555067E+03  0.14580369324E+04  0.14635770445E+04  0.00000000000E+00 0. -1.
        -12    1    5    5    0    0  0.35288789262E+02  0.58747324418E+02  0.40162242011E+03  0.40742743539E+03  0.00000000000E+00 0.  1.
          5    1    4    4  501    0 -0.73302680156E+02 -0.16783540852E+03  0.58664374256E+03  0.61458145136E+03  0.41800000000E+01 0.  1.
         -5    1    4    4    0  501 -0.32855918352E+02 -0.27903792035E+02  0.29503759946E+02  0.52403026932E+02  0.41800000000E+01 0.  1.
</event>
<event>
11    1  0.8039394E-009  0.1672336E+03  0.7561462E-02  0.1080465E+00
         22   -1    0    0    0    0  0.00000000000E+00  0.00000000000E+00  0.13964626095E+04  0.13964626095E+04  0.00000000000E+00 0.  1.
         22   -1    0    0    0    0 -0.00000000000E+00 -0.00000000000E+00 -0.14492160452E+03  0.14492160452E+03  0.00000000000E+00 0. -1.
         24    2    1    2    0    0  0.94690844114E+02 -0.24587012913E+01 -0.91730100817E+02  0.15428970448E+03  0.80115543703E+02 0.  0.
         25    2    1    2    0    0 -0.54756903303E+02 -0.10888213374E+03  0.49538999126E+03  0.52527363960E+03  0.12509002965E+03 0.  0.
        -24    2    1    2    0    0 -0.39933940812E+02  0.11134083504E+03  0.84788111450E+03  0.86182086988E+03  0.99203458973E+02 0.  0.
        -11    1    3    3    0    0  0.83828961739E+01  0.29042334914E+02 -0.11594215469E+02  0.32375237418E+02  0.00000000000E+00 0.  1.
         12    1    3    3    0    0  0.86307947941E+02 -0.31501036205E+02 -0.80135885348E+02  0.12191446707E+03  0.00000000000E+00 0. -1.
         11    1    5    5    0    0 -0.40414470425E+02  0.46000072647E+02  0.16807012438E+03  0.17887678109E+03  0.00000000000E+00 0. -1.
        -12    1    5    5    0    0  0.48052961351E+00  0.65340762388E+02  0.67981099011E+03  0.68294408879E+03  0.00000000000E+00 0.  1.
          5    1    4    4  501    0 -0.10599113727E+02 -0.52466245239E+02  0.41101555206E+03  0.41450730335E+03  0.41800000000E+01 0.  1.
         -5    1    4    4    0  501 -0.44157789576E+02 -0.56415888505E+02  0.84374439199E+02  0.11076633625E+03  0.41800000000E+01 0.  1.
</event>
<event>
11    1  0.8039394E-009  0.2599695E+03  0.7561462E-02  0.1018718E+00
         22   -1    0    0    0    0  0.00000000000E+00  0.00000000000E+00  0.53754073942E+03  0.53754073942E+03  0.00000000000E+00 0.  1.
         22   -1    0    0    0    0 -0.00000000000E+00 -0.00000000000E+00 -0.28329680346E+04  0.28329680346E+04  0.00000000000E+00 0.  1.
        -24    2    1    2    0    0 -0.13596235974E+02  0.69170105286E+02 -0.26281032672E+04  0.26302593351E+04  0.79799910601E+02 0.  0.
         25    2    1    2    0    0 -0.21656150118E+03 -0.59276456679E+02 -0.72588107958E+02  0.26707341439E+03  0.12508634277E+03 0.  0.
         24    2    1    2    0    0  0.23015773716E+03 -0.98936486072E+01  0.40526407999E+03  0.47317602451E+03  0.81154835867E+02 0.  0.
        -11    1    5    5    0    0  0.21534790005E+03  0.11063987388E+02  0.33527661355E+03  0.39863208283E+03  0.00000000000E+00 0.  1.
         12    1    5    5    0    0  0.14809837111E+02 -0.20957635995E+02  0.69987466443E+02  0.74543941678E+02  0.00000000000E+00 0. -1.
         13    1    3    3    0    0 -0.41458676466E+02  0.55680573346E+02 -0.13523970933E+04  0.13541776272E+04  0.00000000000E+00 0. -1.
        -14    1    3    3    0    0  0.27862440492E+02  0.13489531940E+02 -0.12757061739E+04  0.12760817078E+04  0.00000000000E+00 0.  1.
          5    1    4    4  501    0 -0.15162805880E+03 -0.46716802406E+02 -0.10796114100E+03  0.19195470353E+03  0.41800000000E+01 0.  1.
         -5    1    4    4    0  501 -0.64933442384E+02 -0.12559654274E+02  0.35373033038E+02  0.75118710862E+02  0.41800000000E+01 0.  1.
</event>
<event>
11    1  0.8039394E-009  0.2104979E+03  0.7561462E-02  0.1047339E+00
         22   -1    0    0    0    0  0.00000000000E+00  0.00000000000E+00  0.37072353327E+03  0.37072353327E+03  0.00000000000E+00 0.  1.
         22   -1    0    0    0    0 -0.00000000000E+00 -0.00000000000E+00 -0.60058859965E+03  0.60058859965E+03  0.00000000000E+00 0. -1.
        -24    2    1    2    0    0 -0.39967910916E+01 -0.75277707452E+02 -0.32975869078E+03  0.34944850937E+03  0.87696972448E+02 0.  0.
         25    2    1    2    0    0 -0.77923063274E+02  0.21541033812E+03 -0.15902697477E+03  0.30563296584E+03  0.12509321941E+03 0.  0.
         24    2    1    2    0    0  0.81919854366E+02 -0.14013263067E+03  0.25892059918E+03  0.31623065771E+03  0.81326105767E+02 0.  0.
        -11    1    5    5    0    0  0.31410531430E+02  0.95705608821E-01  0.59297189705E+02  0.67102811798E+02  0.00000000000E+00 0.  1.
         12    1    5    5    0    0  0.50509322936E+02 -0.14022833628E+03  0.19962340947E+03  0.24912784591E+03  0.00000000000E+00 0. -1.
         13    1    3    3    0    0  0.28898447619E+02 -0.70823003316E+02 -0.17210431174E+03  0.18833722997E+03  0.00000000000E+00 0. -1.
        -14    1    3    3    0    0 -0.32895238710E+02 -0.44547041364E+01 -0.15765437904E+03  0.16111127940E+03  0.00000000000E+00 0.  1.
          5    1    4    4  501    0 -0.84695489950E+02  0.91030562316E+02 -0.12517646288E+03  0.17648373453E+03  0.41800000000E+01 0. -1.
         -5    1    4    4    0  501  0.67724266757E+01  0.12437977581E+03 -0.33850511887E+02  0.12914923131E+03  0.41800000000E+01 0. -1.
</event>
<event>
11    1  0.8039394E-009  0.1631541E+03  0.7561462E-02  0.1084148E+00
         22   -1    0    0    0    0  0.00000000000E+00  0.00000000000E+00  0.61323631116E+03  0.61323631116E+03  0.00000000000E+00 0. -1.
         22   -1    0    0    0    0 -0.00000000000E+00 -0.00000000000E+00 -0.81083718999E+03  0.81083718999E+03  0.00000000000E+00 0. -1.
         24    2    1    2    0    0 -0.29661860458E+02  0.40898829241E+02 -0.66794424226E+03  0.67483411988E+03  0.81847653470E+02 0.  0.
         25    2    1    2    0    0  0.13236478173E+03 -0.47537206590E+02 -0.64340440249E+02  0.19891467914E+03  0.12508851216E+03 0.  0.
        -24    2    1    2    0    0 -0.10270292127E+03  0.66383773484E+01  0.53468380368E+03  0.55032470212E+03  0.79865823477E+02 0.  0.
        -13    1    3    3    0    0 -0.57683728942E+02  0.22191666679E+02 -0.39237628530E+03  0.39721408827E+03  0.00000000000E+00 0.  1.
         14    1    3    3    0    0  0.28021868484E+02  0.18707162562E+02 -0.27556795696E+03  0.27762003160E+03  0.00000000000E+00 0. -1.
         11    1    5    5    0    0 -0.10759090286E+03 -0.14396825371E+02  0.45460533238E+03  0.46738536475E+03  0.00000000000E+00 0. -1.
        -12    1    5    5    0    0  0.48879815911E+01  0.21035202720E+02  0.80078471301E+02  0.82939337370E+02  0.00000000000E+00 0.  1.
          5    1    4    4  501    0 -0.21219182494E+02  0.55609185840E+01 -0.21058604436E+02  0.30693887698E+02  0.41800000000E+01 0.  1.
         -5    1    4    4    0  501  0.15358396422E+03 -0.53098125174E+02 -0.43281835813E+02  0.16822079145E+03  0.41800000000E+01 0.  1.
</event>
<event>
11    1  0.1238845E-008  0.1678976E+03  0.7561462E-02  0.1079876E+00
         22   -1    0    0    0    0  0.00000000000E+00  0.00000000000E+00  0.27871822009E+03  0.27871822009E+03  0.00000000000E+00 0.  1.
         22   -1    0    0    0    0 -0.00000000000E+00 -0.00000000000E+00 -0.72775702815E+03  0.72775702815E+03  0.00000000000E+00 0. -1.
         24    2    1    2    0    0  0.42476670565E+02  0.45569071536E+02 -0.35278943905E+03  0.36730803775E+03  0.81080197758E+02 0.  0.
         25    2    1    2    0    0 -0.19819807141E+02 -0.15332063631E+03 -0.32035534656E+03  0.37706117024E+03  0.12509011056E+03 0.  0.
        -24    2    1    2    0    0 -0.22656863424E+02  0.10775156477E+03  0.22410597756E+03  0.26210604025E+03  0.79701656110E+02 0.  0.
        -13    1    3    3    0    0  0.16927186094E+02  0.58899456374E+01 -0.85658900224E+01  0.19864429530E+02  0.00000000000E+00 0.  1.
         14    1    3    3    0    0  0.25549484471E+02  0.39679125898E+02 -0.34422354903E+03  0.34744360822E+03  0.00000000000E+00 0. -1.
         13    1    5    5    0    0 -0.15853252729E+01  0.11228531321E+03  0.16872509936E+03  0.20267872107E+03  0.00000000000E+00 0. -1.
        -14    1    5    5    0    0 -0.21071538151E+02 -0.45337484429E+01  0.55380878197E+02  0.59427319180E+02  0.00000000000E+00 0.  1.
          5    1    4    4  501    0 -0.58681577187E+02 -0.36924768750E+02 -0.72169629167E+02  0.10016433408E+03  0.41800000000E+01 0.  1.
         -5    1    4    4    0  501  0.38861770046E+02 -0.11639586756E+03 -0.24818571739E+03  0.27689683615E+03  0.41800000000E+01 0.  1.
</event>
<event>
11    1  0.8039394E-009  0.1425964E+03  0.7561462E-02  0.1104693E+00
         22   -1    0    0    0    0  0.00000000000E+00  0.00000000000E+00  0.12300521119E+04  0.12300521119E+04  0.00000000000E+00 0. -1.
         22   -1    0    0    0    0 -0.00000000000E+00 -0.00000000000E+00 -0.13026033976E+04  0.13026033976E+04  0.00000000000E+00 0.  1.
         24    2    1    2    0    0  0.12938305571E+02 -0.10549550953E+02 -0.11644731616E+04  0.11674286285E+04  0.81321372644E+02 0.  0.
         25    2    1    2    0    0  0.55420375427E+02  0.16940502376E+02 -0.99174995073E+02  0.16982266889E+03  0.12508261505E+03 0.  0.
        -24    2    1    2    0    0 -0.68358680998E+02 -0.63909514229E+01  0.11910968710E+04  0.11954042121E+04  0.74603757956E+02 0.  0.
        -11    1    3    3    0    0  0.37829436127E+02 -0.10406751923E+02 -0.10250718723E+04  0.10258224555E+04  0.00000000000E+00 0.  1.
         12    1    3    3    0    0 -0.24891130556E+02 -0.14279903019E+00 -0.13940128932E+03  0.14160617302E+03  0.00000000000E+00 0. -1.
         11    1    5    5    0    0 -0.75766717200E+02 -0.23454744466E+02  0.81577082163E+03  0.81961744363E+03  0.00000000000E+00 0. -1.
        -12    1    5    5    0    0  0.74080362019E+01  0.17063793043E+02  0.37532604938E+03  0.37578676849E+03  0.00000000000E+00 0.  1.
          5    1    4    4  501    0  0.60396124117E+02 -0.43949453455E+02 -0.68047824821E+02  0.10112974404E+03  0.41800000000E+01 0. -1.
         -5    1    4    4    0  501 -0.49757486897E+01  0.60889955831E+02 -0.31127170252E+02  0.68692924847E+02  0.41800000000E+01 0. -1.
</event>
<event>
11    1  0.8039394E-009  0.1323141E+03  0.7561462E-02  0.1116458E+00
         22   -1    0    0    0    0  0.00000000000E+00  0.00000000000E+00  0.35017541122E+03  0.35017541122E+03  0.00000000000E+00 0. -1.
         22   -1    0    0    0    0 -0.00000000000E+00 -0.00000000000E+00 -0.20320586470E+04  0.20320586470E+04  0.00000000000E+00 0. -1.
        -24    2    1    2    0    0  0.16714011141E+01 -0.48405963321E+02 -0.19705123562E+04  0.19727675678E+04  0.80913532370E+02 0.  0.
         25    2    1    2    0    0  0.31900637553E+02  0.14260827354E+02  0.29226101758E+02  0.13312491817E+03  0.12508819665E+03 0.  0.
         24    2    1    2    0    0 -0.33572038667E+02  0.34145135967E+02  0.25940301871E+03  0.27634157222E+03  0.82351480442E+02 0.  0.
        -11    1    5    5    0    0 -0.41756650497E+02 -0.13373773659E+02  0.15940437327E+03  0.16532461977E+03  0.00000000000E+00 0.  1.
         12    1    5    5    0    0  0.81846118299E+01  0.47518909626E+02  0.99998645437E+02  0.11101695245E+03  0.00000000000E+00 0. -1.
         11    1    3    3    0    0 -0.11675785851E+02 -0.46873474817E+02 -0.53104234876E+03  0.53323486644E+03  0.00000000000E+00 0. -1.
        -12    1    3    3    0    0  0.13347186965E+02 -0.15324885046E+01 -0.14394700074E+04  0.14395327013E+04  0.00000000000E+00 0.  1.
          5    1    4    4  501    0  0.31400218715E+02 -0.20249209184E+01  0.76566265620E+02  0.82885098004E+02  0.41800000000E+01 0.  1.
         -5    1    4    4    0  501  0.50041883799E+00  0.16285748273E+02 -0.47340163862E+02  0.50239820166E+02  0.41800000000E+01 0.  1.
</event>
<event>
11    1  0.8039394E-009  0.1451387E+03  0.7561462E-02  0.1101952E+00
         22   -1    0    0    0    0  0.00000000000E+00  0.00000000000E+00  0.29297111909E+04  0.29297111909E+04  0.00000000000E+00 0. -1.
         22   -1    0    0    0    0 -0.00000000000E+00 -0.00000000000E+00 -0.37812874212E+02  0.37812874212E+02  0.00000000000E+00 0. -1.
        -24    2    1    2    0    0  0.59891238693E+01  0.75374182312E+01  0.29366109997E+02  0.85985715793E+02  0.80240218256E+02 0.  0.
         25    2    1    2    0    0  0.45369043333E+02 -0.60004893530E+02  0.64367808267E+03  0.66002175913E+03  0.12509320952E+03 0.  0.
         24    2    1    2    0    0 -0.51358167203E+02  0.52467475299E+02  0.22188541240E+04  0.22215165901E+04  0.80198750137E+02 0.  0.
        -11    1    5    5    0    0 -0.47101803294E+02  0.38554955079E+02  0.71336949033E+03  0.71596165691E+03  0.00000000000E+00 0.  1.
         12    1    5    5    0    0 -0.42563639089E+01  0.13912520220E+02  0.15054846336E+04  0.15055549332E+04  0.00000000000E+00 0. -1.
         11    1    3    3    0    0  0.15038017720E+02 -0.42854577653E+01 -0.25071958841E+02  0.29548438966E+02  0.00000000000E+00 0. -1.
        -12    1    3    3    0    0 -0.90488938509E+01  0.11822875996E+02  0.54438068838E+02  0.56437276826E+02  0.00000000000E+00 0.  1.
          5    1    4    4  501    0  0.72908865490E+02 -0.76071666608E+02  0.56938962227E+03  0.57907220230E+03  0.41800000000E+01 0.  1.
         -5    1    4    4    0  501 -0.27539822157E+02  0.16066773078E+02  0.74288460404E+02  0.80949556829E+02  0.41800000000E+01 0.  1.
</event>
<event>
11    1  0.8039394E-009  0.2472303E+03  0.7561462E-02  0.1025385E+00
         22   -1    0    0    0    0  0.00000000000E+00  0.00000000000E+00  0.30871773759E+03  0.30871773759E+03  0.00000000000E+00 0. -1.
         22   -1    0    0    0    0 -0.00000000000E+00 -0.00000000000E+00 -0.28411864382E+03  0.28411864382E+03  0.00000000000E+00 0.  1.
         24    2    1    2    0    0 -0.20782710093E+03  0.36243514408E+02  0.59217375212E+02  0.23391897110E+03  0.81888285471E+02 0.  0.
         25    2    1    2    0    0  0.21709999986E+03  0.25185016618E+02 -0.48381005662E+02  0.25642591600E+03  0.12508730424E+03 0.  0.
        -24    2    1    2    0    0 -0.92728989340E+01 -0.61428531026E+02  0.13762724228E+02  0.10249149431E+03  0.80347014563E+02 0.  0.
        -13    1    3    3    0    0 -0.11116031673E+03  0.20647564435E+02 -0.10752234973E+02  0.11357177681E+03  0.00000000000E+00 0.  1.
         14    1    3    3    0    0 -0.96666784205E+02  0.15595949973E+02  0.69969610185E+02  0.12034719429E+03  0.00000000000E+00 0. -1.
         13    1    5    5    0    0 -0.25950344248E+02  0.59236757423E+01  0.19309060626E+02  0.32883888504E+02  0.00000000000E+00 0. -1.
        -14    1    5    5    0    0  0.16677445314E+02 -0.67352206768E+02 -0.55463363983E+01  0.69607605807E+02  0.00000000000E+00 0.  1.
          5    1    4    4  501    0  0.14586702104E+03 -0.39463359760E+02 -0.52569671651E+02  0.16004870311E+03  0.41800000000E+01 0. -1.
         -5    1    4    4    0  501  0.71232978826E+02  0.64648376377E+02  0.41886659890E+01  0.96377212885E+02  0.41800000000E+01 0. -1.
</event>
<event>
11    1  0.8039394E-009  0.1321086E+03  0.7561462E-02  0.1116705E+00
         22   -1    0    0    0    0  0.00000000000E+00  0.00000000000E+00  0.27036966337E+03  0.27036966337E+03  0.00000000000E+00 0.  1.
         22   -1    0    0    0    0 -0.00000000000E+00 -0.00000000000E+00 -0.96609274281E+03  0.96609274281E+03  0.00000000000E+00 0.  1.
         24    2    1    2    0    0  0.42762857215E+02  0.32937188536E+01 -0.83321433941E+03  0.83819632970E+03  0.80544653310E+02 0.  0.
         25    2    1    2    0    0 -0.37643642992E+02  0.13108544662E+02 -0.88157051552E+02  0.15814139118E+03  0.12509258997E+03 0.  0.
        -24    2    1    2    0    0 -0.51192142236E+01 -0.16402263515E+02  0.22564831152E+03  0.24012468530E+03  0.80296098257E+02 0.  0.
        -13    1    3    3    0    0  0.29042363431E+02  0.40169925098E+02 -0.55573575489E+03  0.55794203196E+03  0.00000000000E+00 0.  1.
         14    1    3    3    0    0  0.13720493784E+02 -0.36876206245E+02 -0.27747858452E+03  0.28025429774E+03  0.00000000000E+00 0. -1.
         13    1    5    5    0    0 -0.31391696681E+02 -0.18812024301E+01  0.19389318039E+03  0.19642694047E+03  0.00000000000E+00 0. -1.
        -14    1    5    5    0    0  0.26272482457E+02 -0.14521061085E+02  0.31755131130E+02  0.43697744823E+02  0.00000000000E+00 0.  1.
          5    1    4    4  501    0  0.18618435852E+02 -0.17737609316E+02  0.19638560209E+02  0.32625364134E+02  0.41800000000E+01 0.  1.
         -5    1    4    4    0  501 -0.56262078843E+02  0.30846153977E+02 -0.10779561176E+03  0.12551602705E+03  0.41800000000E+01 0.  1.
</event>
<event>
11    1  0.8039394E-009  0.1846152E+03  0.7561462E-02  0.1065970E+00
         22   -1    0    0    0    0  0.00000000000E+00  0.00000000000E+00  0.20214146463E+04  0.20214146463E+04  0.00000000000E+00 0. -1.
         22   -1    0    0    0    0 -0.00000000000E+00 -0.00000000000E+00 -0.19683009060E+03  0.19683009060E+03  0.00000000000E+00 0. -1.
        -24    2    1    2    0    0  0.43389898616E+02 -0.29665839250E+02 -0.12999772616E+03  0.16187650466E+03  0.80881695302E+02 0.  0.
         25    2    1    2    0    0 -0.14166828240E+03  0.11821649736E+03  0.21412744096E+03  0.30910160554E+03  0.12509276194E+03 0.  0.
         24    2    1    2    0    0  0.98278383781E+02 -0.88550658114E+02  0.17404548409E+04  0.17472666267E+04  0.79105953025E+02 0.  0.
        -11    1    5    5    0    0 -0.59921945533E+01 -0.37025577531E+02  0.47471790298E+03  0.47619731960E+03  0.00000000000E+00 0.  1.
         12    1    5    5    0    0  0.10427057833E+03 -0.51525080584E+02  0.12657369379E+04  0.12710693071E+04  0.00000000000E+00 0. -1.
         11    1    3    3    0    0  0.51486900544E+01 -0.37787309578E+02 -0.15991428876E+02  0.41353543644E+02  0.00000000000E+00 0. -1.
        -12    1    3    3    0    0  0.38241208561E+02  0.81214703279E+01 -0.11400629728E+03  0.12052296102E+03  0.00000000000E+00 0.  1.
          5    1    4    4  501    0 -0.54397963397E+02 -0.20504082959E+02  0.45748007186E+02  0.74093916088E+02  0.41800000000E+01 0.  1.
         -5    1    4    4    0  501 -0.87270319000E+02  0.13872058032E+03  0.16837943378E+03  0.23500768946E+03  0.41800000000E+01 0.  1.
</event>
<event>
11    1  0.8039394E-009  0.1528004E+03  0.7561462E-02  0.1094051E+00
         22   -1    0    0    0    0  0.00000000000E+00  0.00000000000E+00  0.30544083585E+03  0.30544083585E+03  0.00000000000E+00 0.  1.
         22   -1    0    0    0    0 -0.00000000000E+00 -0.00000000000E+00 -0.38791411464E+03  0.38791411464E+03  0.00000000000E+00 0.  1.
        -24    2    1    2    0    0  0.54652492855E+02 -0.19631740289E+02 -0.16846865424E+03  0.19918070871E+03  0.88988578250E+02 0.  0.
         25    2    1    2    0    0 -0.13297461717E+03 -0.12936056893E+02 -0.14633992960E+03  0.23433282404E+03  0.12508759750E+03 0.  0.
         24    2    1    2    0    0  0.78322124313E+02  0.32567797182E+02  0.23233530506E+03  0.25984141773E+03  0.79642022956E+02 0.  0.
        -11    1    5    5    0    0  0.83069097647E+02  0.27777777079E+01  0.14123407299E+03  0.16387572854E+03  0.00000000000E+00 0.  1.
         12    1    5    5    0    0 -0.47469733340E+01  0.29790019474E+02  0.91101232070E+02  0.95965689185E+02  0.00000000000E+00 0. -1.
         11    1    3    3    0    0  0.96410471033E+01  0.33930206912E+02 -0.70032620605E+02  0.78414135710E+02  0.00000000000E+00 0. -1.
        -12    1    3    3    0    0  0.45011445752E+02 -0.53561947200E+02 -0.98436033640E+02  0.12076657300E+03  0.00000000000E+00 0.  1.
          5    1    4    4  501    0  0.14290903103E+02 -0.29529018773E+02 -0.39903845500E+02  0.51826461840E+02  0.41800000000E+01 0.  1.
         -5    1    4    4    0  501 -0.14726552027E+03  0.16592961880E+02 -0.10643608410E+03  0.18250636220E+03  0.41800000000E+01 0.  1.
</event>
<event>
11    1  0.8039394E-009  0.3033865E+03  0.7561462E-02  0.9987681E-01
         22   -1    0    0    0    0  0.00000000000E+00  0.00000000000E+00  0.33186413964E+03  0.33186413964E+03  0.00000000000E+00 0. -1.
         22   -1    0    0    0    0 -0.00000000000E+00 -0.00000000000E+00 -0.88753640046E+03  0.88753640046E+03  0.00000000000E+00 0.  1.
         24    2    1    2    0    0 -0.13281906043E+02  0.27025600497E+03 -0.67798009774E+03  0.73455844076E+03  0.81880233954E+02 0.  0.
         25    2    1    2    0    0 -0.94639113829E+01 -0.31259478328E+03  0.85683345808E+01  0.33693656688E+03  0.12509104520E+03 0.  0.
        -24    2    1    2    0    0  0.22745817426E+02  0.42338778315E+02  0.11373950235E+03  0.14790553245E+03  0.81421298051E+02 0.  0.
        -11    1    3    3    0    0 -0.85416167494E+00  0.26989412182E+03 -0.65508283589E+03  0.70850341457E+03  0.00000000000E+00 0.  1.
         12    1    3    3    0    0 -0.12427744368E+02  0.36188315241E+00 -0.22897261856E+02  0.26055026195E+02  0.00000000000E+00 0. -1.
         11    1    5    5    0    0  0.19946351723E+01  0.47773923135E+02  0.11682690952E+03  0.12623332797E+03  0.00000000000E+00 0. -1.
        -12    1    5    5    0    0  0.20751182253E+02 -0.54351448193E+01 -0.30874071765E+01  0.21672204484E+02  0.00000000000E+00 0.  1.
          5    1    4    4  501    0  0.23490115266E+02 -0.75216289376E+02  0.50386534813E+02  0.93624521324E+02  0.41800000000E+01 0. -1.
         -5    1    4    4    0  501 -0.32954026649E+02 -0.23737849391E+03 -0.41818200232E+02  0.24331204556E+03  0.41800000000E+01 0. -1.
</event>
<event>
11    1  0.8039394E-009  0.1421992E+03  0.7561462E-02  0.1105127E+00
         22   -1    0    0    0    0  0.00000000000E+00  0.00000000000E+00  0.13088679008E+04  0.13088679008E+04  0.00000000000E+00 0. -1.
         22   -1    0    0    0    0 -0.00000000000E+00 -0.00000000000E+00 -0.84264651643E+03  0.84264651643E+03  0.00000000000E+00 0. -1.
         24    2    1    2    0    0  0.34979357796E+02 -0.53723985412E+02 -0.70915892318E+03  0.71874988257E+03  0.97904000405E+02 0.  0.
         25    2    1    2    0    0 -0.31787432062E+02  0.10795551717E+03 -0.71090092093E+02  0.18266740208E+03  0.12509494020E+03 0.  0.
        -24    2    1    2    0    0 -0.31919257344E+01 -0.54231531756E+02  0.12464703996E+04  0.12500971326E+04  0.78122572159E+02 0.  0.
        -11    1    3    3    0    0  0.20124566845E+02  0.13462622701E+02 -0.44877238749E+03  0.44942507293E+03  0.00000000000E+00 0.  1.
         12    1    3    3    0    0  0.14854790951E+02 -0.67186608113E+02 -0.26038653569E+03  0.26932480965E+03  0.00000000000E+00 0. -1.
         11    1    5    5    0    0  0.10859352028E+02  0.13314690174E+00  0.80459900109E+03  0.80467229094E+03  0.00000000000E+00 0. -1.
        -12    1    5    5    0    0 -0.14051277762E+02 -0.54364678658E+02  0.44187139855E+03  0.44542484164E+03  0.00000000000E+00 0.  1.
          5    1    4    4  501    0  0.13578168686E+02  0.14627491131E+02  0.30955986096E+02  0.37068526229E+02  0.41800000000E+01 0. -1.
         -5    1    4    4    0  501 -0.45365600748E+02  0.93328026037E+02 -0.10204607819E+03  0.14559887585E+03  0.41800000000E+01 0. -1.
</event>
<event>
11    1  0.8039394E-009  0.1642362E+03  0.7561462E-02  0.1083159E+00
         22   -1    0    0    0    0  0.00000000000E+00  0.00000000000E+00  0.36898912327E+03  0.36898912327E+03  0.00000000000E+00 0.  1.
         22   -1    0    0    0    0 -0.00000000000E+00 -0.00000000000E+00 -0.13423256147E+04  0.13423256147E+04  0.00000000000E+00 0. -1.
         24    2    1    2    0    0  0.10221051620E+03 -0.20175447520E+02 -0.11747722711E+04  0.11820559512E+04  0.79450263844E+02 0.  0.
         25    2    1    2    0    0 -0.13391269902E+03  0.55211692537E+02 -0.98768675522E+02  0.21536903399E+03  0.12509047760E+03 0.  0.
        -24    2    1    2    0    0  0.31702182819E+02 -0.35036245017E+02  0.30020445526E+03  0.31388975276E+03  0.78558863728E+02 0.  0.
        -13    1    3    3    0    0  0.46951389224E+02  0.99136384820E+01 -0.21809257444E+03  0.22330939122E+03  0.00000000000E+00 0.  1.
         14    1    3    3    0    0  0.55259126978E+02 -0.30089086002E+02 -0.95667969669E+03  0.95874655998E+03  0.00000000000E+00 0. -1.
         11    1    5    5    0    0  0.23999838222E+01  0.24774072689E+02  0.73158276146E+02  0.77276438638E+02  0.00000000000E+00 0. -1.
        -12    1    5    5    0    0  0.29302198997E+02 -0.59810317706E+02  0.22704617911E+03  0.23661331412E+03  0.00000000000E+00 0.  1.
          5    1    4    4  501    0  0.36349164765E+01  0.41898720631E+02 -0.56970121177E+02  0.70935058435E+02  0.41800000000E+01 0.  1.
         -5    1    4    4    0  501 -0.13754761550E+03  0.13312971906E+02 -0.41798554345E+02  0.14443397556E+03  0.41800000000E+01 0.  1.
</event>
<event>
11    1  0.8039394E-009  0.1513720E+03  0.7561462E-02  0.1095485E+00
         22   -1    0    0    0    0  0.00000000000E+00  0.00000000000E+00  0.42958736597E+03  0.42958736597E+03  0.00000000000E+00 0. -1.
         22   -1    0    0    0    0 -0.00000000000E+00 -0.00000000000E+00 -0.47358103894E+03  0.47358103894E+03  0.00000000000E+00 0. -1.
         24    2    1    2    0    0 -0.81559064647E+02  0.21693622474E+02 -0.40265089675E+03  0.41919644009E+03  0.80469972359E+02 0.  0.
         25    2    1    2    0    0  0.10229614050E+03  0.91428964518E+01  0.59795030949E+02  0.17254709132E+03  0.12509580361E+03 0.  0.
        -24    2    1    2    0    0 -0.20737075853E+02 -0.30836518926E+02  0.29886219284E+03  0.31142487350E+03  0.79283821244E+02 0.  0.
        -11    1    3    3    0    0 -0.18835267656E+02  0.28255099719E+02 -0.46922943706E+02  0.57921331251E+02  0.00000000000E+00 0.  1.
         12    1    3    3    0    0 -0.62723796992E+02 -0.65614772450E+01 -0.35572795304E+03  0.36127510884E+03  0.00000000000E+00 0. -1.
         11    1    5    5    0    0 -0.86876732682E+01 -0.39827754812E+02  0.29211561971E+03  0.29494620018E+03  0.00000000000E+00 0. -1.
        -12    1    5    5    0    0 -0.12049402585E+02  0.89912358860E+01  0.67465731251E+01  0.16478673318E+02  0.00000000000E+00 0.  1.
          5    1    4    4  501    0 -0.27258240967E+02  0.93728515916E+01  0.24877617670E+02  0.38304442412E+02  0.41800000000E+01 0.  1.
         -5    1    4    4    0  501  0.12955438147E+03 -0.22995513981E+00  0.34917413279E+02  0.13424264891E+03  0.41800000000E+01 0.  1.
</event>
<event>
11    1  0.8039394E-009  0.2206627E+03  0.7561462E-02  0.1040803E+00
         22   -1    0    0    0    0  0.00000000000E+00  0.00000000000E+00  0.48706366799E+03  0.48706366799E+03  0.00000000000E+00 0.  1.
         22   -1    0    0    0    0 -0.00000000000E+00 -0.00000000000E+00 -0.35945521764E+03  0.35945521764E+03  0.00000000000E+00 0.  1.
        -24    2    1    2    0    0  0.12254886417E+03 -0.14459833842E+03 -0.19422038150E+03  0.28328373327E+03  0.81247851442E+02 0.  0.
         25    2    1    2    0    0 -0.16065775278E+03  0.71901624288E+02 -0.59998559789E+01  0.21601762380E+03  0.12508740311E+03 0.  0.
         24    2    1    2    0    0  0.38108888606E+02  0.72696714131E+02  0.32782868784E+03  0.34721752855E+03  0.79694817458E+02 0.  0.
        -11    1    5    5    0    0  0.46712600774E+02  0.59704405926E+01  0.13911205988E+03  0.14686687318E+03  0.00000000000E+00 0.  1.
         12    1    5    5    0    0 -0.86037121676E+01  0.66726273539E+02  0.18871662795E+03  0.20035065538E+03  0.00000000000E+00 0. -1.
         11    1    3    3    0    0  0.52808270932E+02 -0.73761922493E+02 -0.38519379717E+02  0.98555960258E+02  0.00000000000E+00 0. -1.
        -12    1    3    3    0    0  0.69740593240E+02 -0.70836415926E+02 -0.15570100178E+03  0.18472777302E+03  0.00000000000E+00 0.  1.
          5    1    4    4  501    0 -0.64826861386E+02  0.81130643744E+02 -0.43424736413E+02  0.11264050534E+03  0.41800000000E+01 0. -1.
         -5    1    4    4    0  501 -0.95830891393E+02 -0.92290194557E+01  0.37424880434E+02  0.10337711846E+03  0.41800000000E+01 0. -1.
</event>
<event>
11    1  0.8039394E-009  0.1791392E+03  0.7561462E-02  0.1070341E+00
         22   -1    0    0    0    0  0.00000000000E+00  0.00000000000E+00  0.10352543939E+04  0.10352543939E+04  0.00000000000E+00 0.  1.
         22   -1    0    0    0    0 -0.00000000000E+00 -0.00000000000E+00 -0.34865478434E+03  0.34865478434E+03  0.00000000000E+00 0.  1.
        -24    2    1    2    0    0  0.12961226077E+03 -0.19749349867E+02 -0.24354479536E+03  0.28825549024E+03  0.81165173231E+02 0.  0.
         25    2    1    2    0    0 -0.11765221517E+03 -0.74300177362E+00  0.10412401546E+02  0.17204700270E+03  0.12509659167E+03 0.  0.
         24    2    1    2    0    0 -0.11960045598E+02  0.20492351641E+02  0.91973200341E+03  0.92360668535E+03  0.81113327843E+02 0.  0.
        -11    1    5    5    0    0  0.11019206843E+02  0.29865083467E+02  0.82696507330E+03  0.82757753630E+03  0.00000000000E+00 0.  1.
         12    1    5    5    0    0 -0.22979252441E+02 -0.93727318261E+01  0.92766930114E+02  0.96029149051E+02  0.00000000000E+00 0. -1.
         13    1    3    3    0    0  0.19688327086E+02  0.25543862697E+02 -0.31083129264E+02  0.44791517833E+02  0.00000000000E+00 0. -1.
        -14    1    3    3    0    0  0.10992393368E+03 -0.45293212564E+02 -0.21246166610E+03  0.24346397241E+03  0.00000000000E+00 0.  1.
          5    1    4    4  501    0 -0.13268284779E+02  0.51637325901E+02  0.13449398504E+02  0.55143626353E+02  0.41800000000E+01 0.  1.
         -5    1    4    4    0  501 -0.10438393039E+03 -0.52380327675E+02 -0.30369969580E+01  0.11690337635E+03  0.41800000000E+01 0.  1.
</event>
<event>
11    1  0.8039394E-009  0.6570392E+03  0.7561462E-02  0.9098124E-01
         22   -1    0    0    0    0  0.00000000000E+00  0.00000000000E+00  0.21776094120E+04  0.21776094120E+04  0.00000000000E+00 0. -1.
         22   -1    0    0    0    0 -0.00000000000E+00 -0.00000000000E+00 -0.11793564673E+04  0.11793564673E+04  0.00000000000E+00 0. -1.
         24    2    1    2    0    0  0.55938225812E+03  0.18137632928E+03 -0.65961957664E+03  0.88885137956E+03  0.95670818634E+02 0.  0.
         25    2    1    2    0    0 -0.10003867807E+04 -0.12374043275E+03  0.33392172157E+03  0.10692213818E+04  0.12508093998E+03 0.  0.
        -24    2    1    2    0    0  0.44100452255E+03 -0.57635896532E+02  0.13239507998E+04  0.13988931179E+04  0.79052827982E+02 0.  0.
        -13    1    3    3    0    0  0.10072569531E+03  0.14806334999E+02 -0.16614670027E+03  0.19485794636E+03  0.00000000000E+00 0.  1.
         14    1    3    3    0    0  0.45865656281E+03  0.16656999428E+03 -0.49347287637E+03  0.69399343320E+03  0.00000000000E+00 0. -1.
         13    1    5    5    0    0  0.28636463322E+03 -0.62946171683E-01  0.81309491322E+03  0.86204874864E+03  0.00000000000E+00 0. -1.
        -14    1    5    5    0    0  0.15463988933E+03 -0.57572950360E+02  0.51085588653E+03  0.53684436924E+03  0.00000000000E+00 0.  1.
          5    1    4    4  501    0 -0.74821439709E+03 -0.62659294005E+02  0.19912120147E+03  0.77679965011E+03  0.41800000000E+01 0. -1.
         -5    1    4    4    0  501 -0.25217238358E+03 -0.61081138742E+02  0.13480052010E+03  0.29242173170E+03  0.41800000000E+01 0. -1.
</event>
<event>
11    1  0.8039394E-009  0.1783144E+03  0.7561462E-02  0.1071015E+00
         22   -1    0    0    0    0  0.00000000000E+00  0.00000000000E+00  0.40063032383E+03  0.40063032383E+03  0.00000000000E+00 0. -1.
         22   -1    0    0    0    0 -0.00000000000E+00 -0.00000000000E+00 -0.80670103618E+03  0.80670103618E+03  0.00000000000E+00 0.  1.
        -24    2    1    2    0    0 -0.77529006985E+02 -0.64544682713E+02 -0.61983170167E+03  0.63313196726E+03  0.80548038994E+02 0.  0.
         25    2    1    2    0    0  0.16689609418E+03 -0.23970227201E+02 -0.95269594726E+02  0.23054816201E+03  0.12508909338E+03 0.  0.
         24    2    1    2    0    0 -0.89367087198E+02  0.88514909914E+02  0.30903058403E+03  0.34365123074E+03  0.82309786586E+02 0.  0.
        -11    1    5    5    0    0 -0.45250278874E+02  0.12463053840E+01  0.53688016153E+02  0.70224953498E+02  0.00000000000E+00 0.  1.
         12    1    5    5    0    0 -0.44116808323E+02  0.87268604530E+02  0.25534256788E+03  0.27342627724E+03  0.00000000000E+00 0. -1.
         13    1    3    3    0    0 -0.34929501748E+02 -0.17459117511E+02 -0.74479243158E+02  0.84095472756E+02  0.00000000000E+00 0. -1.
        -14    1    3    3    0    0 -0.42599505237E+02 -0.47085565202E+02 -0.54535245851E+03  0.54903649450E+03  0.00000000000E+00 0.  1.
          5    1    4    4  501    0 -0.28952956716E+01 -0.31805482885E+02 -0.40864790521E+02  0.52032441639E+02  0.41800000000E+01 0.  1.
         -5    1    4    4    0  501  0.16979138985E+03  0.78352556837E+01 -0.54404804205E+02  0.17851572037E+03  0.41800000000E+01 0.  1.
</event>
<event>
11    1  0.8039394E-009  0.1462573E+03  0.7561462E-02  0.1100766E+00
         22   -1    0    0    0    0  0.00000000000E+00  0.00000000000E+00  0.11500312950E+03  0.11500312950E+03  0.00000000000E+00 0.  1.
         22   -1    0    0    0    0 -0.00000000000E+00 -0.00000000000E+00 -0.12790200476E+04  0.12790200476E+04  0.00000000000E+00 0.  1.
        -24    2    1    2    0    0 -0.14807750500E+02  0.49874723419E+02 -0.10070230270E+04  0.10116853126E+04  0.81884291272E+02 0.  0.
         25    2    1    2    0    0 -0.26035818862E+02  0.21649501315E+02 -0.21663775800E+03  0.25244151865E+03  0.12509291496E+03 0.  0.
         24    2    1    2    0    0  0.40843569362E+02 -0.71524224734E+02  0.59643866921E+02  0.12989634590E+03  0.80819291856E+02 0.  0.
        -13    1    5    5    0    0  0.50348943139E+02 -0.43943398241E+02  0.71982246234E+02  0.98221596897E+02  0.00000000000E+00 0.  1.
         14    1    5    5    0    0 -0.95053737764E+01 -0.27580826492E+02 -0.12338379313E+02  0.31674749007E+02  0.00000000000E+00 0. -1.
         13    1    3    3    0    0 -0.31486373322E+02  0.22687314958E+02 -0.18417711030E+03  0.18822144916E+03  0.00000000000E+00 0. -1.
        -14    1    3    3    0    0  0.16678622822E+02  0.27187408461E+02 -0.82284591673E+03  0.82346386339E+03  0.00000000000E+00 0.  1.
          5    1    4    4  501    0 -0.38332345012E+02 -0.44299312982E+02 -0.13110315351E+03  0.14365690747E+03  0.41800000000E+01 0.  1.
         -5    1    4    4    0  501  0.12296526150E+02  0.65948814297E+02 -0.85534604494E+02  0.10878461118E+03  0.41800000000E+01 0.  1.
</event>
<event>
11    1  0.8039394E-009  0.1835345E+03  0.7561462E-02  0.1066819E+00
         22   -1    0    0    0    0  0.00000000000E+00  0.00000000000E+00  0.34802234533E+03  0.34802234533E+03  0.00000000000E+00 0.  1.
         22   -1    0    0    0    0 -0.00000000000E+00 -0.00000000000E+00 -0.26272187873E+04  0.26272187873E+04  0.00000000000E+00 0. -1.
        -24    2    1    2    0    0 -0.19664497510E+02  0.55945451371E+02 -0.19599874425E+04  0.19625174206E+04  0.80045394005E+02 0.  0.
         25    2    1    2    0    0  0.13850048656E+03 -0.11596385942E+03 -0.62914036969E+03  0.66640418070E+03  0.12508767251E+03 0.  0.
         24    2    1    2    0    0 -0.11883598905E+03  0.60018408045E+02  0.30993137022E+03  0.34631953140E+03  0.78457389576E+02 0.  0.
        -13    1    5    5    0    0 -0.56926219882E+02  0.63649342495E+02  0.22869339243E+03  0.24411575339E+03  0.00000000000E+00 0.  1.
         14    1    5    5    0    0 -0.61909769167E+02 -0.36309344495E+01  0.81237977796E+02  0.10220377801E+03  0.00000000000E+00 0. -1.
         11    1    3    3    0    0 -0.98945771225E+01 -0.18781848513E+02 -0.26212619498E+03  0.26298441510E+03  0.00000000000E+00 0. -1.
        -12    1    3    3    0    0 -0.97699203879E+01  0.74727299884E+02 -0.16978612476E+04  0.16995330055E+04  0.00000000000E+00 0.  1.
          5    1    4    4  501    0  0.10216389293E+03 -0.99246241416E+02 -0.60013478995E+03  0.61681967864E+03  0.41800000000E+01 0. -1.
         -5    1    4    4    0  501  0.36336593632E+02 -0.16717618001E+02 -0.29005579743E+02  0.49584502061E+02  0.41800000000E+01 0. -1.
</event>
<event>
11    1  0.8039394E-009  0.2161545E+03  0.7561462E-02  0.1043653E+00
         22   -1    0    0    0    0  0.00000000000E+00  0.00000000000E+00  0.10499104392E+04  0.10499104392E+04  0.00000000000E+00 0. -1.
         22   -1    0    0    0    0 -0.00000000000E+00 -0.00000000000E+00 -0.57611519234E+03  0.57611519234E+03  0.00000000000E+00 0. -1.
        -24    2    1    2    0    0  0.14214399823E+03 -0.10268130534E+03 -0.50474748509E+03  0.54041289884E+03  0.80794249960E+02 0.  0.
         25    2    1    2    0    0 -0.16140664345E+03  0.99930658701E+02  0.19971352308E+03  0.30260678424E+03  0.12508850255E+03 0.  0.
         24    2    1    2    0    0  0.19262645210E+02  0.27506466388E+01  0.77882920884E+03  0.78300594841E+03  0.78388539644E+02 0.  0.
        -13    1    5    5    0    0 -0.21864738904E+01 -0.35926651129E+02  0.39526312681E+03  0.39689853154E+03  0.00000000000E+00 0.  1.
         14    1    5    5    0    0  0.21449119101E+02  0.38677297768E+02  0.38356608204E+03  0.38610741687E+03  0.00000000000E+00 0. -1.
         13    1    3    3    0    0  0.11167842567E+03 -0.56851800278E+02 -0.42803638136E+03  0.44600374631E+03  0.00000000000E+00 0. -1.
        -14    1    3    3    0    0  0.30465572561E+02 -0.45829505062E+02 -0.76711103734E+02  0.94409152532E+02  0.00000000000E+00 0.  1.
          5    1    4    4  501    0 -0.16889023477E+02  0.63246274802E+02  0.11135970902E+03  0.12924313360E+03  0.41800000000E+01 0.  1.
         -5    1    4    4    0  501 -0.14451761997E+03  0.36684383900E+02  0.88353814054E+02  0.17336365063E+03  0.41800000000E+01 0.  1.
</event>
<event>
11    1  0.8039394E-009  0.1421133E+03  0.7561462E-02  0.1105221E+00
         22   -1    0    0    0    0  0.00000000000E+00  0.00000000000E+00  0.55015776360E+03  0.55015776360E+03  0.00000000000E+00 0.  1.
         22   -1    0    0    0    0 -0.00000000000E+00 -0.00000000000E+00 -0.12645291403E+03  0.12645291403E+03  0.00000000000E+00 0.  1.
        -24    2    1    2    0    0  0.58071610872E+02 -0.39488162580E+02 -0.31700392353E+02  0.11450774017E+03  0.84708209227E+02 0.  0.
         25    2    1    2    0    0 -0.56324564161E+02  0.25017542462E+02  0.47387398467E+02  0.14727913746E+03  0.12508894771E+03 0.  0.
         24    2    1    2    0    0 -0.17470467115E+01  0.14470620118E+02  0.40801784346E+03  0.41482380000E+03  0.73401453986E+02 0.  0.
        -13    1    5    5    0    0 -0.13997171379E+01  0.39367531910E+02  0.13381335372E+03  0.13949113023E+03  0.00000000000E+00 0.  1.
         14    1    5    5    0    0 -0.34732957354E+00 -0.24896911793E+02  0.27420448973E+03  0.27533266977E+03  0.00000000000E+00 0. -1.
         11    1    3    3    0    0 -0.29224132081E+01  0.93480132284E+01  0.18991687634E+02  0.21368435822E+02  0.00000000000E+00 0. -1.
        -12    1    3    3    0    0  0.60994024080E+02 -0.48836175808E+02 -0.50692079988E+02  0.93139304348E+02  0.00000000000E+00 0.  1.
          5    1    4    4  501    0 -0.53448706877E+02 -0.32274205279E+02 -0.12968965587E+02  0.63906612034E+02  0.41800000000E+01 0. -1.
         -5    1    4    4    0  501 -0.28758572834E+01  0.57291747740E+02  0.60356364054E+02  0.83372525427E+02  0.41800000000E+01 0. -1.
</event>
<event>
11    1  0.8039394E-009  0.1399634E+03  0.7561462E-02  0.1107599E+00
         22   -1    0    0    0    0  0.00000000000E+00  0.00000000000E+00  0.50695895303E+03  0.50695895303E+03  0.00000000000E+00 0. -1.
         22   -1    0    0    0    0 -0.00000000000E+00 -0.00000000000E+00 -0.56204824661E+03  0.56204824661E+03  0.00000000000E+00 0. -1.
         24    2    1    2    0    0 -0.53724719255E+02 -0.37035071266E+02 -0.37151195359E+03  0.38538756059E+03  0.79022137625E+02 0.  0.
         25    2    1    2    0    0  0.31926238995E+02  0.46664356141E+02 -0.15358447899E+03  0.20599263443E+03  0.12509167191E+03 0.  0.
        -24    2    1    2    0    0  0.21798480260E+02 -0.96292848749E+01  0.47000713899E+03  0.47762700462E+03  0.81565605325E+02 0.  0.
        -13    1    3    3    0    0 -0.25252977572E+02  0.81846923867E+01 -0.31463857580E+02  0.41166447497E+02  0.00000000000E+00 0.  1.
         14    1    3    3    0    0 -0.28471741683E+02 -0.45219763653E+02 -0.34004809601E+03  0.34422111309E+03  0.00000000000E+00 0. -1.
         11    1    5    5    0    0  0.10848639499E+02  0.17667765846E+02  0.41263369083E+03  0.41315421544E+03  0.00000000000E+00 0. -1.
        -12    1    5    5    0    0  0.10949840761E+02 -0.27297050720E+02  0.57373448160E+02  0.64472789179E+02  0.00000000000E+00 0.  1.
          5    1    4    4  501    0  0.13555267120E+02  0.87734172682E+02 -0.12167505866E+03  0.15067621784E+03  0.41800000000E+01 0.  1.
         -5    1    4    4    0  501  0.18370971876E+02 -0.41069816541E+02 -0.31909420326E+02  0.55316416586E+02  0.41800000000E+01 0.  1.
</event>
<event>
11    1  0.8039394E-009  0.1456614E+03  0.7561462E-02  0.1101396E+00
         22   -1    0    0    0    0  0.00000000000E+00  0.00000000000E+00  0.62020458515E+03  0.62020458515E+03  0.00000000000E+00 0. -1.
         22   -1    0    0    0    0 -0.00000000000E+00 -0.00000000000E+00 -0.24146508365E+03  0.24146508365E+03  0.00000000000E+00 0. -1.
         24    2    1    2    0    0 -0.40514684201E+02  0.59453296448E+02 -0.18262874156E+03  0.21614832350E+03  0.90502521585E+02 0.  0.
         25    2    1    2    0    0  0.62877707457E+02 -0.81061893294E+02  0.13578153086E+03  0.21120820232E+03  0.12509054307E+03 0.  0.
        -24    2    1    2    0    0 -0.22363023256E+02  0.21608596846E+02  0.42558671219E+03  0.43431314298E+03  0.80850604856E+02 0.  0.
        -11    1    3    3    0    0 -0.49424159309E+02 -0.24851585948E+01 -0.54879947939E+02  0.73896767334E+02  0.00000000000E+00 0.  1.
         12    1    3    3    0    0  0.89094751077E+01  0.61938455042E+02 -0.12774879362E+03  0.14225155616E+03  0.00000000000E+00 0. -1.
         11    1    5    5    0    0 -0.26908483954E+02  0.39588196915E+02  0.39920926205E+03  0.40206880848E+03  0.00000000000E+00 0. -1.
        -12    1    5    5    0    0  0.45454606975E+01 -0.17979600069E+02  0.26377450137E+02  0.32244334500E+02  0.00000000000E+00 0.  1.
          5    1    4    4  501    0 -0.14508113559E+02  0.11426710331E+02 -0.10444044218E+02  0.21624188485E+02  0.41800000000E+01 0. -1.
         -5    1    4    4    0  501  0.77385821016E+02 -0.92488603625E+02  0.14622557508E+03  0.18958401384E+03  0.41800000000E+01 0. -1.
</event>
<event>
11    1  0.8039394E-009  0.1295440E+03  0.7561462E-02  0.1119830E+00
         22   -1    0    0    0    0  0.00000000000E+00  0.00000000000E+00  0.20483444573E+04  0.20483444573E+04  0.00000000000E+00 0.  1.
         22   -1    0    0    0    0 -0.00000000000E+00 -0.00000000000E+00 -0.49786345405E+03  0.49786345405E+03  0.00000000000E+00 0. -1.
         24    2    1    2    0    0  0.20613243071E+02  0.26014815370E+02 -0.46598389534E+03  0.47412028995E+03  0.80915895955E+02 0.  0.
         25    2    1    2    0    0 -0.40406892902E+02 -0.36822226911E+02  0.14647988122E+03  0.20023250757E+03  0.12509239823E+03 0.  0.
        -24    2    1    2    0    0  0.19793649830E+02  0.10807411542E+02  0.18699850174E+04  0.18718551138E+04  0.80554411642E+02 0.  0.
        -11    1    3    3    0    0  0.41171251437E+02 -0.13032737250E+02 -0.24414537620E+03  0.24793525144E+03  0.00000000000E+00 0.  1.
         12    1    3    3    0    0 -0.20558008365E+02  0.39047552619E+02 -0.22183851914E+03  0.22618503852E+03  0.00000000000E+00 0. -1.
         13    1    5    5    0    0 -0.56508455456E-01 -0.47373897223E+00 -0.79963133077E+00  0.93114557642E+00  0.00000000000E+00 0. -1.
        -14    1    5    5    0    0  0.19850158286E+02  0.11281150514E+02  0.18707846487E+04  0.18709239682E+04  0.00000000000E+00 0.  1.
          5    1    4    4  501    0 -0.34273862072E+02 -0.81490659015E+02  0.11486760665E+03  0.14500849832E+03  0.41800000000E+01 0. -1.
         -5    1    4    4    0  501 -0.61330308294E+01  0.44668432104E+02  0.31612274578E+02  0.55224009251E+02  0.41800000000E+01 0. -1.
</event>
<event>
11    1  0.8039394E-009  0.1844688E+03  0.7561462E-02  0.1066084E+00
         22   -1    0    0    0    0  0.00000000000E+00  0.00000000000E+00  0.42153728462E+02  0.42153728462E+02  0.00000000000E+00 0. -1.
         22   -1    0    0    0    0 -0.00000000000E+00 -0.00000000000E+00 -0.12332076939E+04  0.12332076939E+04  0.00000000000E+00 0. -1.
        -24    2    1    2    0    0  0.30193171695E+02 -0.35598683803E+02 -0.31383350569E+03  0.32655942396E+03  0.77270267108E+02 0.  0.
         25    2    1    2    0    0 -0.78747337189E+02 -0.98124064646E+02 -0.61312026389E+03  0.63827346114E+03  0.12508828091E+03 0.  0.
         24    2    1    2    0    0  0.48554165494E+02  0.13372274845E+03 -0.26410019589E+03  0.31052853730E+03  0.80248230926E+02 0.  0.
        -11    1    5    5    0    0 -0.10484645551E+02  0.39692114543E+02 -0.28199838430E+02  0.49805849422E+02  0.00000000000E+00 0.  1.
         12    1    5    5    0    0  0.59038811045E+02  0.94030633906E+02 -0.23590035746E+03  0.26072268787E+03  0.00000000000E+00 0. -1.
         11    1    3    3    0    0  0.52042008361E+02 -0.40633834503E+02 -0.20255767659E+03  0.21304715789E+03  0.00000000000E+00 0. -1.
        -12    1    3    3    0    0 -0.21848836666E+02  0.50351506996E+01 -0.11127582910E+03  0.11351226607E+03  0.00000000000E+00 0.  1.
          5    1    4    4  501    0 -0.62220051801E+02 -0.12335861496E+03 -0.56218688883E+03  0.57893026619E+03  0.41800000000E+01 0. -1.
         -5    1    4    4    0  501 -0.16527285388E+02  0.25234550319E+02 -0.50933375058E+02  0.59343194950E+02  0.41800000000E+01 0. -1.
</event>
<event>
11    1  0.8039394E-009  0.1339328E+03  0.7561462E-02  0.1114529E+00
         22   -1    0    0    0    0  0.00000000000E+00  0.00000000000E+00  0.68589972203E+03  0.68589972203E+03  0.00000000000E+00 0. -1.
         22   -1    0    0    0    0 -0.00000000000E+00 -0.00000000000E+00 -0.57165062010E+03  0.57165062010E+03  0.00000000000E+00 0. -1.
        -24    2    1    2    0    0  0.20090793329E+02 -0.44579959434E+01 -0.48633749452E+03  0.49327934094E+03  0.79855093242E+02 0.  0.
         25    2    1    2    0    0 -0.66996466454E+02  0.42951313316E+01 -0.13989173999E+02  0.14268516003E+03  0.12512546996E+03 0.  0.
         24    2    1    2    0    0  0.46905673125E+02  0.16286461177E+00  0.61457577045E+03  0.62158584115E+03  0.80407783201E+02 0.  0.
        -13    1    5    5    0    0  0.48856232968E+02  0.27404592331E+02  0.52389927157E+03  0.52688555677E+03  0.00000000000E+00 0.  1.
         14    1    5    5    0    0 -0.19505598433E+01 -0.27241727719E+02  0.90676498877E+02  0.94700284379E+02  0.00000000000E+00 0. -1.
         11    1    3    3    0    0  0.34647640277E+02  0.20371664334E+02 -0.40519116340E+03  0.40717974235E+03  0.00000000000E+00 0. -1.
        -12    1    3    3    0    0 -0.14556846948E+02 -0.24829660278E+02 -0.81146331122E+02  0.86099598589E+02  0.00000000000E+00 0.  1.
          5    1    4    4  501    0 -0.41960566970E+02  0.57452685934E+02  0.20840986318E+02  0.74251730028E+02  0.41800000000E+01 0. -1.
         -5    1    4    4    0  501 -0.25035899484E+02 -0.53157554603E+02 -0.34830160316E+02  0.68433430003E+02  0.41800000000E+01 0. -1.
</event>
<event>
11    1  0.8039394E-009  0.1308213E+03  0.7561462E-02  0.1118264E+00
         22   -1    0    0    0    0  0.00000000000E+00  0.00000000000E+00  0.13201883441E+03  0.13201883441E+03  0.00000000000E+00 0.  1.
         22   -1    0    0    0    0 -0.00000000000E+00 -0.00000000000E+00 -0.15108178500E+04  0.15108178500E+04  0.00000000000E+00 0.  1.
        -24    2    1    2    0    0  0.38147803988E+02  0.71114795337E+01 -0.13435084853E+04  0.13464061104E+04  0.79300290601E+02 0.  0.
         25    2    1    2    0    0 -0.39330545663E+01  0.17842790318E+02 -0.11918714643E+03  0.17374241955E+03  0.12508804257E+03 0.  0.
         24    2    1    2    0    0 -0.34214749422E+02 -0.24954269852E+02  0.83896616110E+02  0.12268815444E+03  0.78869362768E+02 0.  0.
        -13    1    5    5    0    0 -0.22719237513E+02  0.24229826512E+02  0.55671785568E+02  0.64827432112E+02  0.00000000000E+00 0.  1.
         14    1    5    5    0    0 -0.11495511909E+02 -0.49184096364E+02  0.28224830542E+02  0.57860722328E+02  0.00000000000E+00 0. -1.
         13    1    3    3    0    0  0.23955414085E+01  0.14113438947E+02 -0.41714807506E+02  0.44102754367E+02  0.00000000000E+00 0. -1.
        -14    1    3    3    0    0  0.35752262580E+02 -0.70019594128E+01 -0.13017936778E+04  0.13023033561E+04  0.00000000000E+00 0.  1.
          5    1    4    4  501    0 -0.69805280962E+01 -0.41096696736E+02 -0.10478368989E+03  0.11284839530E+03  0.41800000000E+01 0.  1.
         -5    1    4    4    0  501  0.30474735299E+01  0.58939487054E+02 -0.14403456536E+02  0.60894024249E+02  0.41800000000E+01 0.  1.
</event>
<event>
11    1  0.8039394E-009  0.1851386E+03  0.7561462E-02  0.1065561E+00
         22   -1    0    0    0    0  0.00000000000E+00  0.00000000000E+00  0.28391418492E+03  0.28391418492E+03  0.00000000000E+00 0.  1.
         22   -1    0    0    0    0 -0.00000000000E+00 -0.00000000000E+00 -0.66693887140E+03  0.66693887140E+03  0.00000000000E+00 0.  1.
        -24    2    1    2    0    0 -0.31069653190E+02 -0.15877266424E+02 -0.52969639367E+03  0.53708399710E+03  0.81630506200E+02 0.  0.
         25    2    1    2    0    0  0.12622034514E+03  0.10189637421E+03  0.28540509843E+01  0.20485855294E+03  0.12507771384E+03 0.  0.
         24    2    1    2    0    0 -0.95150691952E+02 -0.86019107790E+02  0.14381765620E+03  0.20891050627E+03  0.80666847651E+02 0.  0.
        -13    1    5    5    0    0 -0.66021297541E+02 -0.62631048942E+01  0.69613969317E+02  0.96146466060E+02  0.00000000000E+00 0.  1.
         14    1    5    5    0    0 -0.29129394412E+02 -0.79756002896E+02  0.74203686885E+02  0.11276404021E+03  0.00000000000E+00 0. -1.
         11    1    3    3    0    0 -0.14722129831E+02 -0.42216734574E+02 -0.16118610684E+03  0.16727209816E+03  0.00000000000E+00 0. -1.
        -12    1    3    3    0    0 -0.16347523359E+02  0.26339468150E+02 -0.36851028683E+03  0.36981189894E+03  0.00000000000E+00 0.  1.
          5    1    4    4  501    0 -0.77436509860E+00  0.71305800754E+02 -0.14883332385E+02  0.72966450135E+02  0.41800000000E+01 0. -1.
         -5    1    4    4    0  501  0.12699471024E+03  0.30590573461E+02  0.17737383369E+02  0.13189210281E+03  0.41800000000E+01 0. -1.
</event>
<event>
11    1  0.8039394E-009  0.1594613E+03  0.7561462E-02  0.1087585E+00
         22   -1    0    0    0    0  0.00000000000E+00  0.00000000000E+00  0.70636292319E+03  0.70636292319E+03  0.00000000000E+00 0. -1.
         22   -1    0    0    0    0 -0.00000000000E+00 -0.00000000000E+00 -0.15874014179E+04  0.15874014179E+04  0.00000000000E+00 0. -1.
         24    2    1    2    0    0  0.74318329020E+02 -0.67329296659E+02 -0.14188355401E+04  0.14245634064E+04  0.78931367155E+02 0.  0.
         25    2    1    2    0    0 -0.51530111162E+02  0.65390441251E+02 -0.12845152894E+03  0.19768220346E+03  0.12508875295E+03 0.  0.
        -24    2    1    2    0    0 -0.22788217858E+02  0.19388554085E+01  0.66624857432E+03  0.67151873126E+03  0.80790974817E+02 0.  0.
        -11    1    3    3    0    0 -0.12622807634E+02  0.44301633060E+01 -0.23224977840E+03  0.23263473770E+03  0.00000000000E+00 0.  1.
         12    1    3    3    0    0  0.86941136654E+02 -0.71759459965E+02 -0.11865857617E+04  0.11919286687E+04  0.00000000000E+00 0. -1.
         11    1    5    5    0    0 -0.43756185466E+01 -0.28336630713E+02  0.52877458136E+03  0.52955138426E+03  0.00000000000E+00 0. -1.
        -12    1    5    5    0    0 -0.18412599311E+02  0.30275486122E+02  0.13747399296E+03  0.14196734700E+03  0.00000000000E+00 0.  1.
          5    1    4    4  501    0 -0.73537138721E+01 -0.36216600106E+02 -0.18518325839E+02  0.41546600617E+02  0.41800000000E+01 0.  1.
         -5    1    4    4    0  501 -0.44176397290E+02  0.10160704136E+03 -0.10993320310E+03  0.15613560284E+03  0.41800000000E+01 0.  1.
</event>
<event>
11    1  0.8039394E-009  0.1601019E+03  0.7561462E-02  0.1086981E+00
         22   -1    0    0    0    0  0.00000000000E+00  0.00000000000E+00  0.74966492872E+03  0.74966492872E+03  0.00000000000E+00 0.  1.
         22   -1    0    0    0    0 -0.00000000000E+00 -0.00000000000E+00 -0.13350608121E+03  0.13350608121E+03  0.00000000000E+00 0.  1.
         24    2    1    2    0    0  0.28462584525E+02 -0.83193811700E+01 -0.78820625007E+02  0.11650078909E+03  0.80501006894E+02 0.  0.
         25    2    1    2    0    0 -0.24712846655E+02  0.10622548123E+03  0.22460409260E+03  0.27926445341E+03  0.12508820437E+03 0.  0.
        -24    2    1    2    0    0 -0.37497378705E+01 -0.97906100055E+02  0.47037537991E+03  0.48740576743E+03  0.81925082443E+02 0.  0.
        -11    1    3    3    0    0  0.55458207132E+02 -0.63906430867E+01 -0.66322807104E+02  0.86690067479E+02  0.00000000000E+00 0.  1.
         12    1    3    3    0    0 -0.26995622607E+02 -0.19287380833E+01 -0.12497817903E+02  0.29810721610E+02  0.00000000000E+00 0. -1.
         11    1    5    5    0    0  0.27665888350E+02 -0.10857664412E+02  0.63105015821E+02  0.69753374659E+02  0.00000000000E+00 0. -1.
        -12    1    5    5    0    0 -0.31415626220E+02 -0.87048435643E+02  0.40727036409E+03  0.41765239277E+03  0.00000000000E+00 0.  1.
          5    1    4    4  501    0 -0.52291639075E+02  0.12800116077E+02  0.30419091041E+02  0.61976221154E+02  0.41800000000E+01 0.  1.
         -5    1    4    4    0  501  0.27578792421E+02  0.93425365148E+02  0.19418500156E+03  0.21728823225E+03  0.41800000000E+01 0.  1.
</event>
<event>
11    1  0.8039394E-009  0.1341966E+03  0.7561462E-02  0.1114218E+00
         22   -1    0    0    0    0  0.00000000000E+00  0.00000000000E+00  0.40585111124E+03  0.40585111124E+03  0.00000000000E+00 0.  1.
         22   -1    0    0    0    0 -0.00000000000E+00 -0.00000000000E+00 -0.31277982041E+04  0.31277982041E+04  0.00000000000E+00 0. -1.
        -24    2    1    2    0    0 -0.12755336647E+01  0.24546938443E+02 -0.30561917013E+04  0.30573257847E+04  0.79555384628E+02 0.  0.
         25    2    1    2    0    0 -0.35359003385E+02 -0.54301052560E+02  0.12723850579E+02  0.14145057799E+03  0.12508999245E+03 0.  0.
         24    2    1    2    0    0  0.36634537050E+02  0.29754114117E+02  0.32152075789E+03  0.33487295267E+03  0.80851098111E+02 0.  0.
        -11    1    5    5    0    0  0.30591444028E+02  0.51801013926E+02  0.28853613710E+03  0.29474104550E+03  0.00000000000E+00 0.  1.
         12    1    5    5    0    0  0.60430930218E+01 -0.22046899809E+02  0.32984620792E+02  0.40131907172E+02  0.00000000000E+00 0. -1.
         11    1    3    3    0    0 -0.26770636498E+02  0.39940314069E+02 -0.13137559698E+04  0.13146355555E+04  0.00000000000E+00 0. -1.
        -12    1    3    3    0    0  0.25495102833E+02 -0.15393375626E+02 -0.17424357315E+04  0.17426902292E+04  0.00000000000E+00 0.  1.
          5    1    4    4  501    0 -0.36646139396E+02 -0.38171421557E+02 -0.52178197269E+02  0.74431402154E+02  0.41800000000E+01 0.  1.
         -5    1    4    4    0  501  0.12871360103E+01 -0.16129631002E+02  0.64902047848E+02  0.67019175840E+02  0.41800000000E+01 0.  1.
</event>
<event>
11    1  0.8039394E-009  0.1338438E+03  0.7561462E-02  0.1114634E+00
         22   -1    0    0    0    0  0.00000000000E+00  0.00000000000E+00  0.11962639937E+04  0.11962639937E+04  0.00000000000E+00 0.  1.
         22   -1    0    0    0    0 -0.00000000000E+00 -0.00000000000E+00 -0.61306339599E+02  0.61306339599E+02  0.00000000000E+00 0.  1.
        -24    2    1    2    0    0 -0.34627392991E+02  0.12689156987E+02  0.14743770323E+02  0.89487670985E+02  0.80190981068E+02 0.  0.
         25    2    1    2    0    0  0.70443742336E+02 -0.38253526212E+02  0.23448016681E+03  0.27759759611E+03  0.12511524141E+03 0.  0.
         24    2    1    2    0    0 -0.35816349345E+02  0.25564369224E+02  0.88573371699E+03  0.89048506623E+03  0.80641725635E+02 0.  0.
        -11    1    5    5    0    0 -0.18677019565E+01  0.27743197633E+02  0.75128512271E+03  0.75179951379E+03  0.00000000000E+00 0.  1.
         12    1    5    5    0    0 -0.33948647389E+02 -0.21788284090E+01  0.13444859428E+03  0.13868555245E+03  0.00000000000E+00 0. -1.
         11    1    3    3    0    0 -0.38989487301E+02 -0.27516099435E+02  0.58328126178E+01  0.48076372068E+02  0.00000000000E+00 0. -1.
        -12    1    3    3    0    0  0.43620943108E+01  0.40205256423E+02  0.89109577050E+01  0.41411298917E+02  0.00000000000E+00 0.  1.
          5    1    4    4  501    0 -0.23640739624E+02  0.17896132073E+02  0.18010302510E+02  0.34942803403E+02  0.41800000000E+01 0.  1.
         -5    1    4    4    0  501  0.94084481960E+02 -0.56149658285E+02  0.21646986430E+03  0.24265479270E+03  0.41800000000E+01 0.  1.
</event>
<event>
11    1  0.8039394E-009  0.1362200E+03  0.7561462E-02  0.1111854E+00
         22   -1    0    0    0    0  0.00000000000E+00  0.00000000000E+00  0.22323734609E+04  0.22323734609E+04  0.00000000000E+00 0. -1.
         22   -1    0    0    0    0 -0.00000000000E+00 -0.00000000000E+00 -0.29895916772E+04  0.29895916772E+04  0.00000000000E+00 0. -1.
         24    2    1    2    0    0 -0.33621558218E+02  0.55745439009E+01 -0.29811824165E+04  0.29824776695E+04  0.81012120480E+02 0.  0.
         25    2    1    2    0    0 -0.22387968441E+02  0.17568951272E+02  0.65761173064E+03  0.67000741774E+03  0.12508741891E+03 0.  0.
        -24    2    1    2    0    0  0.56009526659E+02 -0.23143495173E+02  0.15663524696E+04  0.15694800509E+04  0.78325491194E+02 0.  0.
        -11    1    3    3    0    0 -0.21694289289E+02  0.17901884298E+02 -0.31837813425E+03  0.31961814094E+03  0.00000000000E+00 0.  1.
         12    1    3    3    0    0 -0.11927268929E+02 -0.12327340397E+02 -0.26628042823E+04  0.26628595286E+04  0.00000000000E+00 0. -1.
         11    1    5    5    0    0  0.71999599257E+02 -0.21143241394E+02  0.14586260255E+04  0.14605549839E+04  0.00000000000E+00 0. -1.
        -12    1    5    5    0    0 -0.15990072599E+02 -0.20002537784E+01  0.10772644419E+03  0.10892506697E+03  0.00000000000E+00 0.  1.
          5    1    4    4  501    0 -0.45265948326E+02 -0.41244685767E+02  0.40358713409E+03  0.40822809480E+03  0.41800000000E+01 0. -1.
         -5    1    4    4    0  501  0.22877979886E+02  0.58813637039E+02  0.25402459655E+03  0.26177932294E+03  0.41800000000E+01 0. -1.
</event>
<event>
11    1  0.8039394E-009  0.1650182E+03  0.7561462E-02  0.1082450E+00
         22   -1    0    0    0    0  0.00000000000E+00  0.00000000000E+00  0.43671491035E+03  0.43671491035E+03  0.00000000000E+00 0.  1.
         22   -1    0    0    0    0 -0.00000000000E+00 -0.00000000000E+00 -0.18150894759E+04  0.18150894759E+04  0.00000000000E+00 0.  1.
        -24    2    1    2    0    0 -0.85025773576E+02  0.68757014190E+02 -0.17287017972E+04  0.17332925509E+04  0.62739573368E+02 0.  0.
         25    2    1    2    0    0  0.76320141699E+02  0.83203317929E+01 -0.42327437192E+01  0.14682279455E+03  0.12508007407E+03 0.  0.
         24    2    1    2    0    0  0.87056318769E+01 -0.77077345983E+02  0.35455997533E+03  0.37168904088E+03  0.80145253864E+02 0.  0.
        -13    1    5    5    0    0  0.20501233359E+02 -0.89474525343E+02  0.32297906971E+03  0.33576996698E+03  0.00000000000E+00 0.  1.
         14    1    5    5    0    0 -0.11795601482E+02  0.12397179360E+02  0.31580905622E+02  0.35919073906E+02  0.00000000000E+00 0. -1.
         11    1    3    3    0    0 -0.88318064363E+01  0.15888701477E+02 -0.82428075177E+02  0.84408762679E+02  0.00000000000E+00 0. -1.
        -12    1    3    3    0    0 -0.76193967140E+02  0.52868312713E+02 -0.16462737220E+04  0.16488837882E+04  0.00000000000E+00 0.  1.
          5    1    4    4  501    0 -0.21383230600E+02  0.30187290084E+02  0.21993404693E+02  0.43239996340E+02  0.41800000000E+01 0.  1.
         -5    1    4    4    0  501  0.97703372299E+02 -0.21866958291E+02 -0.26226148412E+02  0.10358279821E+03  0.41800000000E+01 0.  1.
</event>
<event>
11    1  0.8039394E-009  0.1674877E+03  0.7561462E-02  0.1080239E+00
         22   -1    0    0    0    0  0.00000000000E+00  0.00000000000E+00  0.63642730303E+03  0.63642730303E+03  0.00000000000E+00 0. -1.
         22   -1    0    0    0    0 -0.00000000000E+00 -0.00000000000E+00 -0.54622020977E+03  0.54622020977E+03  0.00000000000E+00 0.  1.
        -24    2    1    2    0    0 -0.10064653594E+03  0.49042279568E+02 -0.50428789139E+03  0.52263875789E+03  0.79436285535E+02 0.  0.
         25    2    1    2    0    0  0.90511707641E+02 -0.37044204942E+02  0.18836929518E+03  0.24636313053E+03  0.12508860211E+03 0.  0.
         24    2    1    2    0    0  0.10134828298E+02 -0.11998074627E+02  0.40612568947E+03  0.41364562438E+03  0.76928267770E+02 0.  0.
        -11    1    5    5    0    0  0.19603022370E+02 -0.25875542566E+02  0.70667944119E+02  0.77767477233E+02  0.00000000000E+00 0.  1.
         12    1    5    5    0    0 -0.94681940716E+01  0.13877467939E+02  0.33545774535E+03  0.33587814715E+03  0.00000000000E+00 0. -1.
         11    1    3    3    0    0 -0.23773690214E+02  0.52851024441E+02 -0.17005527932E+03  0.17965861281E+03  0.00000000000E+00 0. -1.
        -12    1    3    3    0    0 -0.76872845725E+02 -0.38087448729E+01 -0.33423261207E+03  0.34298014508E+03  0.00000000000E+00 0.  1.
          5    1    4    4  501    0  0.80331083678E+02 -0.24808382433E+02  0.20582463815E+03  0.22237309395E+03  0.41800000000E+01 0. -1.
         -5    1    4    4    0  501  0.10180623963E+02 -0.12235822508E+02 -0.17455342972E+02  0.23990036578E+02  0.41800000000E+01 0. -1.
</event>
<event>
11    1  0.8039394E-009  0.1344302E+03  0.7561462E-02  0.1113942E+00
         22   -1    0    0    0    0  0.00000000000E+00  0.00000000000E+00  0.24205974656E+03  0.24205974656E+03  0.00000000000E+00 0. -1.
         22   -1    0    0    0    0 -0.00000000000E+00 -0.00000000000E+00 -0.19175714808E+04  0.19175714808E+04  0.00000000000E+00 0.  1.
        -24    2    1    2    0    0 -0.35283766597E+02  0.78255608965E+01 -0.14759124688E+04  0.14785625282E+04  0.80767261573E+02 0.  0.
         25    2    1    2    0    0  0.98765550414E+01 -0.50296822156E+02 -0.42025614313E+03  0.44146161540E+03  0.12508323377E+03 0.  0.
         24    2    1    2    0    0  0.25407211555E+02  0.42471261260E+02  0.22065687774E+03  0.23960708376E+03  0.79200773128E+02 0.  0.
        -13    1    5    5    0    0  0.39627075317E+02 -0.30854505109E+01  0.59677120868E+02  0.71702049190E+02  0.00000000000E+00 0.  1.
         14    1    5    5    0    0 -0.14219863761E+02  0.45556711771E+02  0.16097975687E+03  0.16790503457E+03  0.00000000000E+00 0. -1.
         11    1    3    3    0    0  0.10114415013E+02  0.26108131500E+02 -0.23134364459E+03  0.23303179571E+03  0.00000000000E+00 0. -1.
        -12    1    3    3    0    0 -0.45398181610E+02 -0.18282570604E+02 -0.12445688242E+04  0.12455307324E+04  0.00000000000E+00 0.  1.
          5    1    4    4  501    0 -0.96993670261E+01 -0.56189079122E+02 -0.69099613689E+02  0.89685669676E+02  0.41800000000E+01 0.  1.
         -5    1    4    4    0  501  0.19575922068E+02  0.58922569654E+01 -0.35115652944E+03  0.35177594572E+03  0.41800000000E+01 0.  1.
</event>
<event>
11    1  0.8039394E-009  0.1929466E+03  0.7561462E-02  0.1059627E+00
         22   -1    0    0    0    0  0.00000000000E+00  0.00000000000E+00  0.10597772290E+04  0.10597772290E+04  0.00000000000E+00 0.  1.
         22   -1    0    0    0    0 -0.00000000000E+00 -0.00000000000E+00 -0.79536596820E+03  0.79536596820E+03  0.00000000000E+00 0. -1.
         24    2    1    2    0    0 -0.14203338033E+03 -0.22845359339E+02 -0.69289300321E+03  0.71221360411E+03  0.80325042224E+02 0.  0.
         25    2    1    2    0    0  0.18615911869E+03  0.10228141529E+03  0.82829482629E+02  0.26004746985E+03  0.12508900030E+03 0.  0.
        -24    2    1    2    0    0 -0.44125738363E+02 -0.79436055952E+02  0.87447478141E+03  0.88288212327E+03  0.80731236169E+02 0.  0.
        -11    1    3    3    0    0 -0.23914903553E+02  0.15421677851E+02 -0.50809567251E+02  0.58235409193E+02  0.00000000000E+00 0.  1.
         12    1    3    3    0    0 -0.11811847678E+03 -0.38267037189E+02 -0.64208343596E+03  0.65397819492E+03  0.00000000000E+00 0. -1.
         11    1    5    5    0    0 -0.44518799273E+02 -0.43219259175E+01  0.25806574344E+03  0.26191321171E+03  0.00000000000E+00 0. -1.
        -12    1    5    5    0    0  0.39306090940E+00 -0.75114130035E+02  0.61640903797E+03  0.62096891155E+03  0.00000000000E+00 0.  1.
          5    1    4    4  501    0  0.18166619652E+03  0.12204826876E+03  0.91955649967E+02  0.23742725375E+03  0.41800000000E+01 0. -1.
         -5    1    4    4    0  501  0.44929221728E+01 -0.19766853469E+02 -0.91261673379E+01  0.22620216091E+02  0.41800000000E+01 0. -1.
</event>
<event>
11    1  0.8039394E-009  0.1350952E+03  0.7561462E-02  0.1113162E+00
         22   -1    0    0    0    0  0.00000000000E+00  0.00000000000E+00  0.67561978251E+03  0.67561978251E+03  0.00000000000E+00 0. -1.
         22   -1    0    0    0    0 -0.00000000000E+00 -0.00000000000E+00 -0.48777839884E+03  0.48777839884E+03  0.00000000000E+00 0. -1.
         24    2    1    2    0    0  0.21303373570E+02  0.42001768656E+02 -0.35796922976E+03  0.37018382935E+03  0.81707501278E+02 0.  0.
         25    2    1    2    0    0 -0.38809140488E+02 -0.71071359552E+02 -0.74589836337E+02  0.16662639881E+03  0.12507368053E+03 0.  0.
        -24    2    1    2    0    0  0.17505766918E+02  0.29069590897E+02  0.62040044977E+03  0.62658795319E+03  0.81020071709E+02 0.  0.
        -11    1    3    3    0    0 -0.79459962582E+01 -0.37047620592E+01 -0.67585973370E+00  0.87932306253E+01  0.00000000000E+00 0.  1.
         12    1    3    3    0    0  0.29249369828E+02  0.45706530715E+02 -0.35729337003E+03  0.36139059873E+03  0.00000000000E+00 0. -1.
         11    1    5    5    0    0  0.14227433943E+02 -0.12065223258E+02  0.47709554580E+03  0.47746010232E+03  0.00000000000E+00 0. -1.
        -12    1    5    5    0    0  0.32783329745E+01  0.41134814154E+02  0.14330490397E+03  0.14912785087E+03  0.00000000000E+00 0.  1.
          5    1    4    4  501    0 -0.63649212849E+02 -0.46859067925E+02  0.54066016421E+01  0.79332832324E+02  0.41800000000E+01 0. -1.
         -5    1    4    4    0  501  0.24840072361E+02 -0.24212291627E+02 -0.79996437979E+02  0.87293566487E+02  0.41800000000E+01 0. -1.
</event>
<event>
11    1  0.8039394E-009  0.1361234E+03  0.7561462E-02  0.1111966E+00
         22   -1    0    0    0    0  0.00000000000E+00  0.00000000000E+00  0.17908510407E+04  0.17908510407E+04  0.00000000000E+00 0. -1.
         22   -1    0    0    0    0 -0.00000000000E+00 -0.00000000000E+00 -0.19617022329E+02  0.19617022329E+02  0.00000000000E+00 0. -1.
         24    2    1    2    0    0  0.91477953894E+01 -0.56462240861E+02  0.21724209543E+03  0.24071440744E+03  0.86473297159E+02 0.  0.
         25    2    1    2    0    0  0.20136645640E+02  0.43512948060E+02  0.80819868091E+03  0.81922599689E+03  0.12508902833E+03 0.  0.
        -24    2    1    2    0    0 -0.29284441029E+02  0.12949292802E+02  0.74579324202E+03  0.75052765869E+03  0.77839218473E+02 0.  0.
        -13    1    3    3    0    0  0.28306955992E+02  0.84322569741E+00  0.13900697519E+03  0.14186237676E+03  0.00000000000E+00 0.  1.
         14    1    3    3    0    0 -0.19159160602E+02 -0.57305466559E+02  0.78235120232E+02  0.98852030683E+02  0.00000000000E+00 0. -1.
         11    1    5    5    0    0 -0.15378886937E+02  0.36059227962E+02  0.64493936930E+03  0.64612968370E+03  0.00000000000E+00 0. -1.
        -12    1    5    5    0    0 -0.13905554092E+02 -0.23109935160E+02  0.10085387272E+03  0.10439797499E+03  0.00000000000E+00 0.  1.
          5    1    4    4  501    0 -0.47976100208E+02  0.44342260251E+02  0.42093472491E+03  0.42599466813E+03  0.41800000000E+01 0. -1.
         -5    1    4    4    0  501  0.68112745848E+02 -0.82931219176E+00  0.38726395600E+03  0.39323132876E+03  0.41800000000E+01 0. -1.
</event>
<event>
11    1  0.8039394E-009  0.1461919E+03  0.7561462E-02  0.1100835E+00
         22   -1    0    0    0    0  0.00000000000E+00  0.00000000000E+00  0.32320344413E+04  0.32320344413E+04  0.00000000000E+00 0. -1.
         22   -1    0    0    0    0 -0.00000000000E+00 -0.00000000000E+00 -0.13921887395E+03  0.13921887395E+03  0.00000000000E+00 0.  1.
         24    2    1    2    0    0  0.18922567793E+02 -0.72787480346E+02 -0.11029341414E+03  0.15598799824E+03  0.80694098452E+02 0.  0.
         25    2    1    2    0    0 -0.36319632434E+02  0.94688991310E+02  0.12591607742E+04  0.12694165691E+04  0.12508976748E+03 0.  0.
        -24    2    1    2    0    0  0.17397064641E+02 -0.21901510964E+02  0.19439482073E+04  0.19458487479E+04  0.81304261750E+02 0.  0.
        -13    1    3    3    0    0  0.50141937131E+02 -0.42410870960E+02 -0.76737458249E+02  0.10100264023E+03  0.00000000000E+00 0.  1.
         14    1    3    3    0    0 -0.31219369338E+02 -0.30376609386E+02 -0.33555955892E+02  0.54985358010E+02  0.00000000000E+00 0. -1.
         13    1    5    5    0    0  0.29612897034E+02  0.83265890766E+01  0.16141146277E+04  0.16144077203E+04  0.00000000000E+00 0. -1.
        -14    1    5    5    0    0 -0.12215832393E+02 -0.30228100041E+02  0.32983357955E+03  0.33144102762E+03  0.00000000000E+00 0.  1.
          5    1    4    4  501    0 -0.19325414802E+01  0.10771813445E+03  0.62928055293E+03  0.63845001206E+03  0.41800000000E+01 0.  1.
         -5    1    4    4    0  501 -0.34387090954E+02 -0.13029143138E+02  0.62988022127E+03  0.63096655707E+03  0.41800000000E+01 0.  1.
</event>
<event>
11    1  0.8039394E-009  0.1330541E+03  0.7561462E-02  0.1115572E+00
         22   -1    0    0    0    0  0.00000000000E+00  0.00000000000E+00  0.78100278031E+03  0.78100278031E+03  0.00000000000E+00 0. -1.
         22   -1    0    0    0    0 -0.00000000000E+00 -0.00000000000E+00 -0.13397217323E+04  0.13397217323E+04  0.00000000000E+00 0. -1.
        -24    2    1    2    0    0 -0.58209659680E+01 -0.44724794320E+02 -0.13049220006E+04  0.13081332465E+04  0.79730622568E+02 0.  0.
         25    2    1    2    0    0  0.18230279824E+02  0.68796051115E+02  0.14092957167E+03  0.20143034493E+03  0.12509116650E+03 0.  0.
         24    2    1    2    0    0 -0.12409313856E+02 -0.24071256795E+02  0.60527347690E+03  0.61116092118E+03  0.80176513216E+02 0.  0.
        -13    1    5    5    0    0 -0.11503016225E+02  0.15937563822E+02  0.40976311521E+02  0.45446489729E+02  0.00000000000E+00 0.  1.
         14    1    5    5    0    0 -0.90629763112E+00 -0.40008820618E+02  0.56429716538E+03  0.56571443146E+03  0.00000000000E+00 0. -1.
         13    1    3    3    0    0 -0.47362299617E+01 -0.67557139029E+02 -0.10534070162E+04  0.10555817073E+04  0.00000000000E+00 0. -1.
        -14    1    3    3    0    0 -0.10847360063E+01  0.22832344709E+02 -0.25151498436E+03  0.25255153925E+03  0.00000000000E+00 0.  1.
          5    1    4    4  501    0 -0.98226034002E+01  0.40692989443E+02  0.15382323023E+03  0.15947244742E+03  0.41800000000E+01 0. -1.
         -5    1    4    4    0  501  0.28052883224E+02  0.28103061673E+02 -0.12893658557E+02  0.41957897511E+02  0.41800000000E+01 0. -1.
</event>
<event>
11    1  0.8039394E-009  0.2141660E+03  0.7561462E-02  0.1044935E+00
         22   -1    0    0    0    0  0.00000000000E+00  0.00000000000E+00  0.38464682888E+04  0.38464682888E+04  0.00000000000E+00 0. -1.
         22   -1    0    0    0    0 -0.00000000000E+00 -0.00000000000E+00 -0.19495672422E+03  0.19495672422E+03  0.00000000000E+00 0. -1.
        -24    2    1    2    0    0  0.68162984082E+02 -0.15857517479E+03 -0.10119702801E+03  0.21477892323E+03  0.78082449547E+02 0.  0.
         25    2    1    2    0    0 -0.11469672752E+03  0.14714573816E+03  0.31077835605E+03  0.38345473254E+03  0.12508851969E+03 0.  0.
         24    2    1    2    0    0  0.46533743440E+02  0.11429436634E+02  0.34419302365E+04  0.34431913572E+04  0.79918383950E+02 0.  0.
        -13    1    5    5    0    0 -0.18356482925E+02 -0.93764187471E+01  0.43387589314E+03  0.43436524762E+03  0.00000000000E+00 0.  1.
         14    1    5    5    0    0  0.64890226365E+02  0.20805855381E+02  0.30080543434E+04  0.30088261096E+04  0.00000000000E+00 0. -1.
         11    1    3    3    0    0  0.10889117713E+02 -0.80940022780E+02 -0.83301766641E+02  0.11665780942E+03  0.00000000000E+00 0. -1.
        -12    1    3    3    0    0  0.57273866369E+02 -0.77635152009E+02 -0.17895261365E+02  0.98121113811E+02  0.00000000000E+00 0.  1.
          5    1    4    4  501    0 -0.12734975987E+03  0.99213378038E+02  0.17153542565E+03  0.23559102354E+03  0.41800000000E+01 0.  1.
         -5    1    4    4    0  501  0.12653032344E+02  0.47932360117E+02  0.13924293040E+03  0.14786370900E+03  0.41800000000E+01 0.  1.
</event>
<event>
11    1  0.8039394E-009  0.1517054E+03  0.7561462E-02  0.1095149E+00
         22   -1    0    0    0    0  0.00000000000E+00  0.00000000000E+00  0.12931058568E+04  0.12931058568E+04  0.00000000000E+00 0. -1.
         22   -1    0    0    0    0 -0.00000000000E+00 -0.00000000000E+00 -0.99623217836E+03  0.99623217836E+03  0.00000000000E+00 0.  1.
         24    2    1    2    0    0  0.84871756319E+02 -0.13254858141E+02 -0.96301721435E+03  0.97210281648E+03  0.10100903123E+03 0.  0.
         25    2    1    2    0    0 -0.81078989925E+02  0.16504795069E+02  0.17955119858E+03  0.23394963721E+03  0.12509032326E+03 0.  0.
        -24    2    1    2    0    0 -0.37927663933E+01 -0.32499369275E+01  0.10803396942E+04  0.10832855815E+04  0.79679664432E+02 0.  0.
        -13    1    3    3    0    0  0.40034021000E+02 -0.20744960037E+02 -0.83566164711E+03  0.83687721002E+03  0.00000000000E+00 0.  1.
         14    1    3    3    0    0  0.44837735319E+02  0.74901018959E+01 -0.12735556724E+03  0.13522560646E+03  0.00000000000E+00 0. -1.
         13    1    5    5    0    0  0.20239668664E+02 -0.31830425793E+02  0.72706976912E+03  0.72804757356E+03  0.00000000000E+00 0. -1.
        -14    1    5    5    0    0 -0.24032435058E+02  0.28580488865E+02  0.35326992511E+03  0.35523800791E+03  0.00000000000E+00 0.  1.
          5    1    4    4  501    0 -0.26123685333E+02 -0.79338949441E+01  0.17081143680E+03  0.17303009266E+03  0.41800000000E+01 0.  1.
         -5    1    4    4    0  501 -0.54955304593E+02  0.24438690013E+02  0.87397617773E+01  0.60919544551E+02  0.41800000000E+01 0.  1.
</event>
<event>
11    1  0.8039394E-009  0.1505861E+03  0.7561462E-02  0.1096281E+00
         22   -1    0    0    0    0  0.00000000000E+00  0.00000000000E+00  0.12159758659E+04  0.12159758659E+04  0.00000000000E+00 0.  1.
         22   -1    0    0    0    0 -0.00000000000E+00 -0.00000000000E+00 -0.26499119514E+03  0.26499119514E+03  0.00000000000E+00 0. -1.
        -24    2    1    2    0    0 -0.13290833874E+01  0.13788899733E+02 -0.13182594458E+03  0.15516070595E+03  0.80652741971E+02 0.  0.
         25    2    1    2    0    0  0.40783803876E+02 -0.87459752738E+02 -0.65893355644E+02  0.17115541292E+03  0.12505884234E+03 0.  0.
         24    2    1    2    0    0 -0.39454720489E+02  0.73670853005E+02  0.11487039710E+04  0.11546509422E+04  0.81938487666E+02 0.  0.
        -11    1    5    5    0    0 -0.16351056344E+02  0.87517782430E+02  0.81024903223E+03  0.81512588814E+03  0.00000000000E+00 0.  1.
         12    1    5    5    0    0 -0.23103664145E+02 -0.13846929425E+02  0.33845493873E+03  0.33952505401E+03  0.00000000000E+00 0. -1.
         13    1    3    3    0    0 -0.40515423057E+02  0.17139399851E+01 -0.71933417127E+02  0.82576350097E+02  0.00000000000E+00 0. -1.
        -14    1    3    3    0    0  0.39186339670E+02  0.12074959748E+02 -0.59892527452E+02  0.72584355850E+02  0.00000000000E+00 0.  1.
          5    1    4    4  501    0  0.65598688540E+02 -0.30310977226E+02 -0.79216113126E+02  0.10730614268E+03  0.41800000000E+01 0. -1.
         -5    1    4    4    0  501 -0.24814884664E+02 -0.57148775512E+02  0.13322757482E+02  0.63849270241E+02  0.41800000000E+01 0. -1.
</event>
<event>
11    1  0.8039394E-009  0.1598175E+03  0.7561462E-02  0.1087249E+00
         22   -1    0    0    0    0  0.00000000000E+00  0.00000000000E+00  0.89621213145E+03  0.89621213145E+03  0.00000000000E+00 0.  1.
         22   -1    0    0    0    0 -0.00000000000E+00 -0.00000000000E+00 -0.10783311516E+03  0.10783311516E+03  0.00000000000E+00 0. -1.
        -24    2    1    2    0    0 -0.54765756238E+01  0.50495748670E+02 -0.55712252648E+02  0.10940197992E+03  0.79278777747E+02 0.  0.
         25    2    1    2    0    0  0.66795057801E+02 -0.10754338518E+03  0.49603733864E+03  0.52699801477E+03  0.12508679709E+03 0.  0.
         24    2    1    2    0    0 -0.61318482177E+02  0.57047636513E+02  0.34805393030E+03  0.36764525192E+03  0.83708445059E+02 0.  0.
        -13    1    5    5    0    0 -0.31902669661E+02  0.46388402777E+02  0.32213116995E+03  0.32701399801E+03  0.00000000000E+00 0.  1.
         14    1    5    5    0    0 -0.29415812517E+02  0.10659233736E+02  0.25922760349E+02  0.40631253906E+02  0.00000000000E+00 0. -1.
         13    1    3    3    0    0 -0.20651549619E+02  0.59396561046E+02 -0.64201542265E+02  0.89868103323E+02  0.00000000000E+00 0. -1.
        -14    1    3    3    0    0  0.15174973995E+02 -0.89008123756E+01  0.84892896172E+01  0.19533876597E+02  0.00000000000E+00 0.  1.
          5    1    4    4  501    0  0.71855381534E+02 -0.11013903444E+03  0.26511952542E+03  0.29597236006E+03  0.41800000000E+01 0.  1.
         -5    1    4    4    0  501 -0.50603237331E+01  0.25956492576E+01  0.23091781322E+03  0.23102565471E+03  0.41800000000E+01 0.  1.
</event>
<event>
11    1  0.8039394E-009  0.2459266E+03  0.7561462E-02  0.1026092E+00
         22   -1    0    0    0    0  0.00000000000E+00  0.00000000000E+00  0.40387262643E+03  0.40387262643E+03  0.00000000000E+00 0.  1.
         22   -1    0    0    0    0 -0.00000000000E+00 -0.00000000000E+00 -0.11387891882E+04  0.11387891882E+04  0.00000000000E+00 0. -1.
         24    2    1    2    0    0  0.25572531130E+02 -0.29501701531E+02 -0.98687420270E+03  0.99160697498E+03  0.88540364394E+02 0.  0.
         25    2    1    2    0    0  0.37891292654E+02  0.22364686063E+03  0.77714511509E+02  0.27044574381E+03  0.12509071395E+03 0.  0.
        -24    2    1    2    0    0 -0.63463823784E+02 -0.19414515910E+03  0.17424312942E+03  0.28060909584E+03  0.81613704658E+02 0.  0.
        -11    1    3    3    0    0  0.72448171891E+01  0.18755514196E+02 -0.59658888821E+02  0.62955855202E+02  0.00000000000E+00 0.  1.
         12    1    3    3    0    0  0.18327713941E+02 -0.48257215727E+02 -0.92721531388E+03  0.92865111978E+03  0.00000000000E+00 0. -1.
         13    1    5    5    0    0 -0.35744697353E+02 -0.12641447786E+03  0.58813758508E+02  0.14393526945E+03  0.00000000000E+00 0. -1.
        -14    1    5    5    0    0 -0.27719126431E+02 -0.67730681237E+02  0.11542937092E+03  0.13667382639E+03  0.00000000000E+00 0.  1.
          5    1    4    4  501    0  0.53601237680E+02  0.12814123846E+03 -0.10582907018E+02  0.13936549069E+03  0.41800000000E+01 0. -1.
         -5    1    4    4    0  501 -0.15709945027E+02  0.95505622172E+02  0.88297418527E+02  0.13108025312E+03  0.41800000000E+01 0. -1.
</event>
<event>
11    1  0.8039394E-009  0.1688179E+03  0.7561462E-02  0.1079065E+00
         22   -1    0    0    0    0  0.00000000000E+00  0.00000000000E+00  0.72493680969E+03  0.72493680969E+03  0.00000000000E+00 0. -1.
         22   -1    0    0    0    0 -0.00000000000E+00 -0.00000000000E+00 -0.55674958498E+03  0.55674958498E+03  0.00000000000E+00 0.  1.
        -24    2    1    2    0    0  0.30444731899E+02 -0.15214309131E+02 -0.47459706072E+03  0.48262736088E+03  0.80798778000E+02 0.  0.
         25    2    1    2    0    0 -0.12924022053E+03  0.63224617319E+02  0.59661232423E+02  0.19976981173E+03  0.12509247853E+03 0.  0.
         24    2    1    2    0    0  0.98795488632E+02 -0.48010308188E+02  0.58312305300E+03  0.59928922207E+03  0.83961529738E+02 0.  0.
        -11    1    5    5    0    0  0.87410460694E+02 -0.89474455161E+01  0.28042303633E+03  0.29386684863E+03  0.00000000000E+00 0.  1.
         12    1    5    5    0    0  0.11385027938E+02 -0.39062862672E+02  0.30270001667E+03  0.30542237343E+03  0.00000000000E+00 0. -1.
         13    1    3    3    0    0  0.29804185497E+01  0.28987021464E+02 -0.91922166573E+02  0.96430363556E+02  0.00000000000E+00 0. -1.
        -14    1    3    3    0    0  0.27464313350E+02 -0.44201330595E+02 -0.38267489415E+03  0.38619699733E+03  0.00000000000E+00 0.  1.
          5    1    4    4  501    0 -0.27433656770E+02 -0.73095828262E+01 -0.33957027434E+02  0.44458830811E+02  0.41800000000E+01 0.  1.
         -5    1    4    4    0  501 -0.10180656376E+03  0.70534200145E+02  0.93618259858E+02  0.15531098092E+03  0.41800000000E+01 0.  1.
</event>
<event>
11    1  0.9896111E-009  0.1823431E+03  0.7561462E-02  0.1067763E+00
         22   -1    0    0    0    0  0.00000000000E+00  0.00000000000E+00  0.38215445109E+03  0.38215445109E+03  0.00000000000E+00 0. -1.
         22   -1    0    0    0    0 -0.00000000000E+00 -0.00000000000E+00 -0.18310635308E+04  0.18310635308E+04  0.00000000000E+00 0. -1.
        -24    2    1    2    0    0  0.58070383582E+01  0.12855990334E+03 -0.15799491536E+04  0.15872499477E+04  0.81004308385E+02 0.  0.
         25    2    1    2    0    0  0.30619262352E+02 -0.19810072021E+03 -0.17819231141E+03  0.29594146473E+03  0.12508963237E+03 0.  0.
         24    2    1    2    0    0 -0.36426300710E+02  0.69540816866E+02  0.30923238529E+03  0.33002656950E+03  0.84439729210E+02 0.  0.
        -11    1    5    5    0    0  0.20087316962E+02  0.46949488057E+02  0.10242066230E+03  0.11444538784E+03  0.00000000000E+00 0.  1.
         12    1    5    5    0    0 -0.56513617672E+02  0.22591328809E+02  0.20681172299E+03  0.21558118166E+03  0.00000000000E+00 0. -1.
         11    1    3    3    0    0  0.48163400138E+01  0.11898513659E+03 -0.15646464788E+04  0.15691715213E+04  0.00000000000E+00 0. -1.
        -12    1    3    3    0    0  0.99069834441E+00  0.95747667520E+01 -0.15302674824E+02  0.18078426324E+02  0.00000000000E+00 0.  1.
          5    1    4    4  501    0  0.48782156140E+02 -0.12863256902E+03 -0.17672934072E+03  0.22400171616E+03  0.41800000000E+01 0.  1.
         -5    1    4    4    0  501 -0.18162893789E+02 -0.69468151189E+02 -0.14629706821E+01  0.71939748565E+02  0.41800000000E+01 0.  1.
</event>
<event>
11    1  0.8039394E-009  0.1935576E+03  0.7561462E-02  0.1059175E+00
         22   -1    0    0    0    0  0.00000000000E+00  0.00000000000E+00  0.45674726187E+03  0.45674726187E+03  0.00000000000E+00 0. -1.
         22   -1    0    0    0    0 -0.00000000000E+00 -0.00000000000E+00 -0.91910159332E+03  0.91910159332E+03  0.00000000000E+00 0.  1.
         24    2    1    2    0    0  0.76134674105E+02  0.59483719452E+01 -0.76641146846E+03  0.77442748750E+03  0.80743561259E+02 0.  0.
         25    2    1    2    0    0 -0.20216409729E+02 -0.14544610538E+03 -0.58441337407E+02  0.20155890173E+03  0.12508928074E+03 0.  0.
        -24    2    1    2    0    0 -0.55918264376E+02  0.13949773343E+03  0.36249847441E+03  0.39986246595E+03  0.76800897157E+02 0.  0.
        -11    1    3    3    0    0  0.74965364519E+02 -0.21132152452E+02 -0.66155693396E+03  0.66612607712E+03  0.00000000000E+00 0.  1.
         12    1    3    3    0    0  0.11693095860E+01  0.27080524398E+02 -0.10485453450E+03  0.10830141038E+03  0.00000000000E+00 0. -1.
         13    1    5    5    0    0 -0.73813302231E+02  0.93303465303E+02  0.24548904972E+03  0.27279811904E+03  0.00000000000E+00 0. -1.
        -14    1    5    5    0    0  0.17895037855E+02  0.46194268132E+02  0.11700942470E+03  0.12706434691E+03  0.00000000000E+00 0.  1.
          5    1    4    4  501    0 -0.57471141983E+02 -0.87802659232E+02  0.87921284614E+01  0.10538981474E+03  0.41800000000E+01 0. -1.
         -5    1    4    4    0  501  0.37254732254E+02 -0.57643446148E+02 -0.67233465869E+02  0.96169086987E+02  0.41800000000E+01 0. -1.
</event>
<event>
11    1  0.8039394E-009  0.1451555E+03  0.7561462E-02  0.1101934E+00
         22   -1    0    0    0    0  0.00000000000E+00  0.00000000000E+00  0.32536288713E+03  0.32536288713E+03  0.00000000000E+00 0. -1.
         22   -1    0    0    0    0 -0.00000000000E+00 -0.00000000000E+00 -0.61169312713E+03  0.61169312713E+03  0.00000000000E+00 0.  1.
        -24    2    1    2    0    0 -0.68876141379E+02  0.28333379423E+02 -0.50937061742E+03  0.52082657964E+03  0.79089802996E+02 0.  0.
         25    2    1    2    0    0  0.52194644160E+02 -0.44315004007E+02 -0.33460277315E+02  0.14647430809E+03  0.12508809821E+03 0.  0.
         24    2    1    2    0    0  0.16681497219E+02  0.15981624584E+02  0.25650065474E+03  0.26975512653E+03  0.80259315551E+02 0.  0.
        -13    1    5    5    0    0  0.10337968274E+02  0.30921121428E+02  0.35656547472E+02  0.48315408681E+02  0.00000000000E+00 0.  1.
         14    1    5    5    0    0  0.63435289446E+01 -0.14939496844E+02  0.22084410727E+03  0.22143971785E+03  0.00000000000E+00 0. -1.
         13    1    3    3    0    0 -0.36394678461E+02  0.30514750920E+02 -0.10611255560E+03  0.11625660025E+03  0.00000000000E+00 0. -1.
        -14    1    3    3    0    0 -0.32481462918E+02 -0.21813714974E+01 -0.40325806181E+03  0.40456997940E+03  0.00000000000E+00 0.  1.
          5    1    4    4  501    0  0.63058389039E+02 -0.73866486597E+02  0.40842435323E+01  0.97297336632E+02  0.41800000000E+01 0.  1.
         -5    1    4    4    0  501 -0.10863744879E+02  0.29551482590E+02 -0.37544520847E+02  0.49176971457E+02  0.41800000000E+01 0.  1.
</event>
<event>
11    1  0.8039394E-009  0.1372490E+03  0.7561462E-02  0.1110670E+00
         22   -1    0    0    0    0  0.00000000000E+00  0.00000000000E+00  0.60626131910E+02  0.60626131910E+02  0.00000000000E+00 0. -1.
         22   -1    0    0    0    0 -0.00000000000E+00 -0.00000000000E+00 -0.10129595183E+04  0.10129595183E+04  0.00000000000E+00 0. -1.
        -24    2    1    2    0    0  0.23250466131E+01  0.49117396792E+01 -0.35273426938E+03  0.36195026214E+03  0.80975282912E+02 0.  0.
         25    2    1    2    0    0  0.73808511988E+01  0.51164080937E+02 -0.59377135181E+03  0.60900274871E+03  0.12509072534E+03 0.  0.
         24    2    1    2    0    0 -0.97058978119E+01 -0.56075820616E+02 -0.58277652123E+01  0.10263263937E+03  0.85210291080E+02 0.  0.
        -11    1    5    5    0    0 -0.16383988278E+02 -0.70376247628E+01 -0.39115751196E+02  0.42988431302E+02  0.00000000000E+00 0.  1.
         12    1    5    5    0    0  0.66780904658E+01 -0.49038195853E+02  0.33287985984E+02  0.59644208065E+02  0.00000000000E+00 0. -1.
         13    1    3    3    0    0  0.38397627681E+02  0.16961927588E+02 -0.15452102495E+03  0.16012130386E+03  0.00000000000E+00 0. -1.
        -14    1    3    3    0    0 -0.36072581068E+02 -0.12050187909E+02 -0.19821324443E+03  0.20182895828E+03  0.00000000000E+00 0.  1.
          5    1    4    4  501    0  0.43901069222E+02  0.62000439704E+02 -0.21064640781E+03  0.22396593475E+03  0.41800000000E+01 0.  1.
         -5    1    4    4    0  501 -0.36520218024E+02 -0.10836358767E+02 -0.38312494399E+03  0.38503681396E+03  0.41800000000E+01 0.  1.
</event>
<event>
11    1  0.8039394E-009  0.1426435E+03  0.7561462E-02  0.1104642E+00
         22   -1    0    0    0    0  0.00000000000E+00  0.00000000000E+00  0.10479927145E+04  0.10479927145E+04  0.00000000000E+00 0.  1.
         22   -1    0    0    0    0 -0.00000000000E+00 -0.00000000000E+00 -0.64445067983E+03  0.64445067983E+03  0.00000000000E+00 0.  1.
        -24    2    1    2    0    0 -0.88175822984E+01  0.48534296839E+02 -0.58029201223E+03  0.58803799515E+03  0.81342095816E+02 0.  0.
         25    2    1    2    0    0  0.72444607789E+02 -0.21754512604E+02  0.35886121887E+02  0.15052480420E+03  0.12509365659E+03 0.  0.
         24    2    1    2    0    0 -0.63627025490E+02 -0.26779784235E+02  0.94794792499E+03  0.95388059496E+03  0.80730203347E+02 0.  0.
        -11    1    5    5    0    0 -0.73287552559E+02 -0.37678145825E+02  0.90012634097E+03  0.90389055628E+03  0.00000000000E+00 0.  1.
         12    1    5    5    0    0  0.96605270685E+01  0.10898361590E+02  0.47821584019E+02  0.49990038674E+02  0.00000000000E+00 0. -1.
         11    1    3    3    0    0  0.18062158823E+02 -0.16551460472E+02 -0.13314419275E+03  0.13537935030E+03  0.00000000000E+00 0. -1.
        -12    1    3    3    0    0 -0.26879741121E+02  0.65085757311E+02 -0.44714781948E+03  0.45265864485E+03  0.00000000000E+00 0.  1.
          5    1    4    4  501    0  0.84676943397E+02 -0.24743764728E+02  0.70788680289E+02  0.11318545972E+03  0.41800000000E+01 0.  1.
         -5    1    4    4    0  501 -0.12232335609E+02  0.29892521241E+01 -0.34902558402E+02  0.37339344473E+02  0.41800000000E+01 0.  1.
</event>
<event>
11    1  0.8039394E-009  0.2118940E+03  0.7561462E-02  0.1046417E+00
         22   -1    0    0    0    0  0.00000000000E+00  0.00000000000E+00  0.78078600352E+03  0.78078600352E+03  0.00000000000E+00 0. -1.
         22   -1    0    0    0    0 -0.00000000000E+00 -0.00000000000E+00 -0.83373902550E+03  0.83373902550E+03  0.00000000000E+00 0. -1.
        -24    2    1    2    0    0  0.52475840055E+02  0.11078638197E+03 -0.75254347763E+03  0.76657472727E+03  0.79295589641E+02 0.  0.
         25    2    1    2    0    0  0.50383992050E+01  0.79535940802E+02  0.39097060955E+02  0.15338493921E+03  0.12508800125E+03 0.  0.
         24    2    1    2    0    0 -0.57514239260E+02 -0.19032232277E+03  0.66049339470E+03  0.69456536254E+03  0.81480329731E+02 0.  0.
        -11    1    5    5    0    0 -0.44533753772E+02 -0.74625538447E+02  0.17607758664E+03  0.19635565368E+03  0.00000000000E+00 0.  1.
         12    1    5    5    0    0 -0.12980485489E+02 -0.11569678432E+03  0.48441580806E+03  0.49820970887E+03  0.00000000000E+00 0. -1.
         13    1    3    3    0    0  0.24214750859E+02  0.94913420529E+02 -0.68128256644E+03  0.68828834574E+03  0.00000000000E+00 0. -1.
        -14    1    3    3    0    0  0.28261089197E+02  0.15872961440E+02 -0.71260911197E+02  0.78286381524E+02  0.00000000000E+00 0.  1.
          5    1    4    4  501    0  0.15618931703E+02 -0.10058397676E+02 -0.32814123002E+02  0.37938917483E+02  0.41800000000E+01 0.  1.
         -5    1    4    4    0  501 -0.10580532498E+02  0.89594338478E+02  0.71911183957E+02  0.11544602173E+03  0.41800000000E+01 0.  1.
</event>
<event>
11    1  0.8039394E-009  0.2377966E+03  0.7561462E-02  0.1030609E+00
         22   -1    0    0    0    0  0.00000000000E+00  0.00000000000E+00  0.66270899196E+03  0.66270899196E+03  0.00000000000E+00 0. -1.
         22   -1    0    0    0    0 -0.00000000000E+00 -0.00000000000E+00 -0.21371449247E+04  0.21371449247E+04  0.00000000000E+00 0. -1.
         24    2    1    2    0    0 -0.13095715513E+03 -0.74285148033E+02 -0.20460879358E+04  0.20532122595E+04  0.80849749976E+02 0.  0.
         25    2    1    2    0    0  0.12571383171E+03 -0.15444420729E+03  0.24442688815E+03  0.33918866963E+03  0.12508984492E+03 0.  0.
        -24    2    1    2    0    0  0.52433234217E+01  0.22872935533E+03  0.32722511486E+03  0.40745298752E+03  0.81222231051E+02 0.  0.
        -13    1    3    3    0    0 -0.11044278852E+03 -0.66990943387E+02 -0.12165127799E+04  0.12233514375E+04  0.00000000000E+00 0.  1.
         14    1    3    3    0    0 -0.20514366609E+02 -0.72942046459E+01 -0.82957515590E+03  0.82986082203E+03  0.00000000000E+00 0. -1.
         11    1    5    5    0    0 -0.34708243802E+02  0.14556739477E+03  0.21889440883E+03  0.26515899160E+03  0.00000000000E+00 0. -1.
        -12    1    5    5    0    0  0.39951567224E+02  0.83161960555E+02  0.10833070603E+03  0.14229399592E+03  0.00000000000E+00 0.  1.
          5    1    4    4  501    0  0.48704003165E+02  0.90753863902E+00  0.14143476627E+02  0.50896108710E+02  0.41800000000E+01 0. -1.
         -5    1    4    4    0  501  0.77009828542E+02 -0.15535174593E+03  0.23028341152E+03  0.28829256092E+03  0.41800000000E+01 0. -1.
</event>
<event>
11    1  0.8039394E-009  0.4499885E+03  0.7561462E-02  0.9512788E-01
         22   -1    0    0    0    0  0.00000000000E+00  0.00000000000E+00  0.30171082747E+03  0.30171082747E+03  0.00000000000E+00 0. -1.
         22   -1    0    0    0    0 -0.00000000000E+00 -0.00000000000E+00 -0.12602853241E+04  0.12602853241E+04  0.00000000000E+00 0. -1.
        -24    2    1    2    0    0  0.32252449915E+01  0.12934644609E+02 -0.47457531006E+03  0.48138403386E+03  0.79568560989E+02 0.  0.
         25    2    1    2    0    0 -0.12429160964E+03  0.40561451949E+03 -0.45834364551E+03  0.63694365709E+03  0.12508709876E+03 0.  0.
         24    2    1    2    0    0  0.12106636465E+03 -0.41854916410E+03 -0.25655541039E+02  0.44366846061E+03  0.79643133639E+02 0.  0.
        -13    1    5    5    0    0  0.83107885183E+01 -0.85310674823E+01  0.11821297414E+02  0.16780685049E+02  0.00000000000E+00 0.  1.
         14    1    5    5    0    0  0.11275557613E+03 -0.41001809662E+03 -0.37476838453E+02  0.42688777556E+03  0.00000000000E+00 0. -1.
         13    1    3    3    0    0 -0.26770491227E+02 -0.20462110197E+02 -0.15127730945E+03  0.15498445570E+03  0.00000000000E+00 0. -1.
        -14    1    3    3    0    0  0.29995736219E+02  0.33396754806E+02 -0.32329800061E+03  0.32639957815E+03  0.00000000000E+00 0.  1.
          5    1    4    4  501    0 -0.43234532665E+02  0.19410581493E+02 -0.45829522181E+02  0.66059162817E+02  0.41800000000E+01 0. -1.
         -5    1    4    4    0  501 -0.81057076973E+02  0.38620393800E+03 -0.41251412333E+03  0.57088449427E+03  0.41800000000E+01 0. -1.
</event>
<event>
11    1  0.8039394E-009  0.1320355E+03  0.7561462E-02  0.1116793E+00
         22   -1    0    0    0    0  0.00000000000E+00  0.00000000000E+00  0.35388565055E+03  0.35388565055E+03  0.00000000000E+00 0.  1.
         22   -1    0    0    0    0 -0.00000000000E+00 -0.00000000000E+00 -0.15394645954E+04  0.15394645954E+04  0.00000000000E+00 0.  1.
         24    2    1    2    0    0  0.77795702803E+01  0.51435479696E+00 -0.95992506539E+03  0.96323582205E+03  0.79412413611E+02 0.  0.
         25    2    1    2    0    0 -0.19602186597E+02  0.40043055101E+02 -0.56408034821E+03  0.57950110315E+03  0.12508875780E+03 0.  0.
        -24    2    1    2    0    0  0.11822616317E+02 -0.40557409898E+02  0.33842646879E+03  0.35061332073E+03  0.81317575867E+02 0.  0.
        -11    1    3    3    0    0 -0.32169882543E+02 -0.41018421823E+01 -0.23903488346E+03  0.24122479550E+03  0.00000000000E+00 0.  1.
         12    1    3    3    0    0  0.39949452824E+02  0.46161969793E+01 -0.72089018193E+03  0.72201102655E+03  0.00000000000E+00 0. -1.
         13    1    5    5    0    0  0.79161775045E+01  0.24768228165E+02  0.10676234050E+03  0.10988324869E+03  0.00000000000E+00 0. -1.
        -14    1    5    5    0    0  0.39064388127E+01 -0.65325638062E+02  0.23166412829E+03  0.24073007205E+03  0.00000000000E+00 0.  1.
          5    1    4    4  501    0  0.29472122630E+02 -0.19987079024E+02 -0.63407810550E+02  0.72843065415E+02  0.41800000000E+01 0. -1.
         -5    1    4    4    0  501 -0.49074309228E+02  0.60030134125E+02 -0.50067253766E+03  0.50665803773E+03  0.41800000000E+01 0. -1.
</event>
<event>
11    1  0.8039394E-009  0.1905252E+03  0.7561462E-02  0.1061434E+00
         22   -1    0    0    0    0  0.00000000000E+00  0.00000000000E+00  0.15825345257E+04  0.15825345257E+04  0.00000000000E+00 0. -1.
         22   -1    0    0    0    0 -0.00000000000E+00 -0.00000000000E+00 -0.23009292131E+03  0.23009292131E+03  0.00000000000E+00 0. -1.
         24    2    1    2    0    0  0.16761796909E+02 -0.41758100811E+02 -0.19287424043E+03  0.21343111247E+03  0.79546655029E+02 0.  0.
         25    2    1    2    0    0 -0.31247095636E+02  0.17489112793E+03  0.54466978282E+03  0.58640991575E+03  0.12509248324E+03 0.  0.
        -24    2    1    2    0    0  0.14485298727E+02 -0.13313302712E+03  0.10006460620E+04  0.10127864188E+04  0.80681855971E+02 0.  0.
        -11    1    3    3    0    0  0.91702437134E+01 -0.57170317256E+02 -0.77267153422E+02  0.96554396807E+02  0.00000000000E+00 0.  1.
         12    1    3    3    0    0  0.75915531956E+01  0.15412216444E+02 -0.11560708701E+03  0.11687671566E+03  0.00000000000E+00 0. -1.
         11    1    5    5    0    0  0.33084717198E+02 -0.10661754169E+03  0.90379861601E+03  0.91066669919E+03  0.00000000000E+00 0. -1.
        -12    1    5    5    0    0 -0.18599418471E+02 -0.26515485427E+02  0.96847445969E+02  0.10211971957E+03  0.00000000000E+00 0.  1.
          5    1    4    4  501    0  0.44331498602E+02  0.48311964149E+02  0.22424748478E+03  0.23367441982E+03  0.41800000000E+01 0.  1.
         -5    1    4    4    0  501 -0.75578594238E+02  0.12657916378E+03  0.32042229803E+03  0.35273549593E+03  0.41800000000E+01 0.  1.
</event>
<event>
11    1  0.8039394E-009  0.1658902E+03  0.7561462E-02  0.1081665E+00
         22   -1    0    0    0    0  0.00000000000E+00  0.00000000000E+00  0.33345840643E+03  0.33345840643E+03  0.00000000000E+00 0. -1.
         22   -1    0    0    0    0 -0.00000000000E+00 -0.00000000000E+00 -0.22163264911E+04  0.22163264911E+04  0.00000000000E+00 0.  1.
         24    2    1    2    0    0 -0.11324092291E+03  0.39344108444E+01 -0.20390895802E+04  0.20437420949E+04  0.78463036859E+02 0.  0.
         25    2    1    2    0    0  0.40516462042E+02 -0.70129093288E+02 -0.12616424240E+03  0.19525736391E+03  0.12509335984E+03 0.  0.
        -24    2    1    2    0    0  0.72724460870E+02  0.66194682444E+02  0.28238573796E+03  0.31078543869E+03  0.84707146711E+02 0.  0.
        -13    1    3    3    0    0 -0.12329311437E+03 -0.63201498691E+01 -0.18337215292E+04  0.18378726242E+04  0.00000000000E+00 0.  1.
         14    1    3    3    0    0  0.10052191460E+02  0.10254560714E+02 -0.20536805107E+03  0.20586947071E+03  0.00000000000E+00 0. -1.
         11    1    5    5    0    0 -0.59579773518E+00  0.49931767220E+02  0.15569925921E+03  0.16351084267E+03  0.00000000000E+00 0. -1.
        -12    1    5    5    0    0  0.73320258605E+02  0.16262915224E+02  0.12668647876E+03  0.14727459602E+03  0.00000000000E+00 0.  1.
          5    1    4    4  501    0 -0.21584816081E+02  0.24718237162E+02 -0.44617713106E+02  0.55543750832E+02  0.41800000000E+01 0. -1.
         -5    1    4    4    0  501  0.62101278123E+02 -0.94847330451E+02 -0.81546529295E+02  0.13971361307E+03  0.41800000000E+01 0. -1.
</event>
<event>
11    1  0.8039394E-009  0.1565361E+03  0.7561462E-02  0.1090381E+00
         22   -1    0    0    0    0  0.00000000000E+00  0.00000000000E+00  0.25596055399E+04  0.25596055399E+04  0.00000000000E+00 0.  1.
         22   -1    0    0    0    0 -0.00000000000E+00 -0.00000000000E+00 -0.28961871217E+03  0.28961871217E+03  0.00000000000E+00 0.  1.
        -24    2    1    2    0    0  0.92818026501E+02 -0.49594628139E+01 -0.21258879108E+03  0.24503142502E+03  0.78782122593E+02 0.  0.
         25    2    1    2    0    0 -0.10370164258E+03 -0.54977351232E+02  0.63437337319E+02  0.18288907176E+03  0.12509027533E+03 0.  0.
         24    2    1    2    0    0  0.10883616077E+02  0.59936814046E+02  0.24191382815E+04  0.24213037553E+04  0.82285938280E+02 0.  0.
        -13    1    5    5    0    0 -0.23839512970E+02  0.61693075430E+02  0.17697436536E+04  0.17709790957E+04  0.00000000000E+00 0.  1.
         14    1    5    5    0    0  0.34723129047E+02 -0.17562613844E+01  0.64939462789E+03  0.65032465960E+03  0.00000000000E+00 0. -1.
         13    1    3    3    0    0  0.10057152758E+02 -0.31489104469E+02 -0.79274122522E+02  0.85890025751E+02  0.00000000000E+00 0. -1.
        -14    1    3    3    0    0  0.82760873743E+02  0.26529641655E+02 -0.13331466856E+03  0.15914139927E+03  0.00000000000E+00 0.  1.
          5    1    4    4  501    0 -0.18366179810E+00  0.36639841750E+01  0.63598990151E+02  0.63841698442E+02  0.41800000000E+01 0.  1.
         -5    1    4    4    0  501 -0.10351798078E+03 -0.58641335407E+02 -0.16165283204E+00  0.11904737332E+03  0.41800000000E+01 0.  1.
</event>
<event>
11    1  0.8039394E-009  0.1469830E+03  0.7561462E-02  0.1100002E+00
         22   -1    0    0    0    0  0.00000000000E+00  0.00000000000E+00  0.34112793585E+03  0.34112793585E+03  0.00000000000E+00 0. -1.
         22   -1    0    0    0    0 -0.00000000000E+00 -0.00000000000E+00 -0.13603944378E+04  0.13603944378E+04  0.00000000000E+00 0.  1.
        -24    2    1    2    0    0 -0.60955345442E+02 -0.46568003787E+02 -0.12867776667E+04  0.12915314122E+04  0.79827891112E+02 0.  0.
         25    2    1    2    0    0  0.61517086019E+02  0.79368467181E+02  0.38747376670E+02  0.16502474014E+03  0.12509236669E+03 0.  0.
         24    2    1    2    0    0 -0.56174057709E+00 -0.32800463394E+02  0.22876378811E+03  0.24496622123E+03  0.81236647165E+02 0.  0.
        -11    1    5    5    0    0  0.18187269344E+02 -0.26090152096E+02  0.25594686542E+02  0.40823532206E+02  0.00000000000E+00 0.  1.
         12    1    5    5    0    0 -0.18749009921E+02 -0.67103112983E+01  0.20316910157E+03  0.20414268903E+03  0.00000000000E+00 0. -1.
         13    1    3    3    0    0 -0.11717717557E+02 -0.38666180216E+02 -0.22605598332E+03  0.22963816319E+03  0.00000000000E+00 0. -1.
        -14    1    3    3    0    0 -0.49237627884E+02 -0.79018235709E+01 -0.10607216834E+04  0.10618932490E+04  0.00000000000E+00 0.  1.
          5    1    4    4  501    0  0.33580115054E+02  0.11206771006E+03  0.25279583826E+02  0.11976362354E+03  0.41800000000E+01 0.  1.
         -5    1    4    4    0  501  0.27936970965E+02 -0.32699242878E+02  0.13467792844E+02  0.45261116597E+02  0.41800000000E+01 0.  1.
</event>
<event>
11    1  0.8039394E-009  0.1494127E+03  0.7561462E-02  0.1097480E+00
         22   -1    0    0    0    0  0.00000000000E+00  0.00000000000E+00  0.13581177993E+04  0.13581177993E+04  0.00000000000E+00 0. -1.
         22   -1    0    0    0    0 -0.00000000000E+00 -0.00000000000E+00 -0.68647511242E+03  0.68647511242E+03  0.00000000000E+00 0. -1.
         24    2    1    2    0    0  0.40557711049E+02 -0.70534456540E+02 -0.65937644575E+03  0.66884725289E+03  0.77196586688E+02 0.  0.
         25    2    1    2    0    0 -0.41298660429E+02  0.10053721586E+03  0.31465298267E+03  0.35561771402E+03  0.12507656814E+03 0.  0.
        -24    2    1    2    0    0  0.74094937931E+00 -0.30002759317E+02  0.10163661499E+04  0.10201279448E+04  0.82220182496E+02 0.  0.
        -13    1    3    3    0    0 -0.22867660266E+01 -0.68280040155E+02 -0.44575652232E+03  0.45096149544E+03  0.00000000000E+00 0.  1.
         14    1    3    3    0    0  0.42844477076E+02 -0.22544163850E+01 -0.21361992343E+03  0.21788575745E+03  0.00000000000E+00 0. -1.
         13    1    5    5    0    0  0.28130287524E+02 -0.16282352905E+02  0.86918988505E+03  0.86979738121E+03  0.00000000000E+00 0. -1.
        -14    1    5    5    0    0 -0.27389338145E+02 -0.13720406412E+02  0.14717626490E+03  0.15033056358E+03  0.00000000000E+00 0.  1.
          5    1    4    4  501    0  0.16141372631E+02  0.42794100538E+02  0.24223783375E+03  0.24655327913E+03  0.41800000000E+01 0. -1.
         -5    1    4    4    0  501 -0.57440033060E+02  0.57743115319E+02  0.72415148919E+02  0.10906443489E+03  0.41800000000E+01 0. -1.
</event>
<event>
11    1  0.8039394E-009  0.1370512E+03  0.7561462E-02  0.1110897E+00
         22   -1    0    0    0    0  0.00000000000E+00  0.00000000000E+00  0.17710903349E+03  0.17710903349E+03  0.00000000000E+00 0. -1.
         22   -1    0    0    0    0 -0.00000000000E+00 -0.00000000000E+00 -0.26690161482E+04  0.26690161482E+04  0.00000000000E+00 0.  1.
         24    2    1    2    0    0  0.11418332008E+02  0.45423693141E+02 -0.17662984127E+04  0.17687545699E+04  0.80554053532E+02 0.  0.
         25    2    1    2    0    0 -0.66638168889E+02 -0.36585250193E+02 -0.88068834286E+03  0.89277023082E+03  0.12509037412E+03 0.  0.
        -24    2    1    2    0    0  0.55219836881E+02 -0.88384429476E+01  0.15507964090E+03  0.18460038096E+03  0.83067786589E+02 0.  0.
        -11    1    3    3    0    0  0.29235014257E+02 -0.12382029048E+02 -0.73286435771E+03  0.73355174835E+03  0.00000000000E+00 0.  1.
         12    1    3    3    0    0 -0.17816682249E+02  0.57805722189E+02 -0.10334340550E+04  0.10352028215E+04  0.00000000000E+00 0. -1.
         13    1    5    5    0    0  0.33717248094E+02 -0.41249916882E+02  0.12349158626E+03  0.13449379293E+03  0.00000000000E+00 0. -1.
        -14    1    5    5    0    0  0.21502588787E+02  0.32411473934E+02  0.31588054646E+02  0.50106588024E+02  0.00000000000E+00 0.  1.
          5    1    4    4  501    0 -0.16998166183E+01  0.36397905058E+02 -0.11115552860E+03  0.11705007821E+03  0.41800000000E+01 0. -1.
         -5    1    4    4    0  501 -0.64938352271E+02 -0.72983155251E+02 -0.76953281426E+03  0.77572015261E+03  0.41800000000E+01 0. -1.
</event>
<event>
11    1  0.8039394E-009  0.1413608E+03  0.7561462E-02  0.1106048E+00
         22   -1    0    0    0    0  0.00000000000E+00  0.00000000000E+00  0.29114920946E+03  0.29114920946E+03  0.00000000000E+00 0.  1.
         22   -1    0    0    0    0 -0.00000000000E+00 -0.00000000000E+00 -0.71818771113E+03  0.71818771113E+03  0.00000000000E+00 0. -1.
        -24    2    1    2    0    0 -0.48004758523E+02 -0.45563771025E+02 -0.65455260467E+03  0.66041553455E+03  0.57697936923E+02 0.  0.
         25    2    1    2    0    0  0.42637101838E+02  0.35422342731E+02  0.36890050937E+02  0.14170928091E+03  0.12509188471E+03 0.  0.
         24    2    1    2    0    0  0.53676566855E+01  0.10141428294E+02  0.19062405207E+03  0.20721210512E+03  0.80421806596E+02 0.  0.
        -11    1    5    5    0    0  0.16125133017E+02  0.43304927855E+02  0.11507069869E+03  0.12400242896E+03  0.00000000000E+00 0.  1.
         12    1    5    5    0    0 -0.10757476331E+02 -0.33163499561E+02  0.75553353385E+02  0.83209676167E+02  0.00000000000E+00 0. -1.
         11    1    3    3    0    0 -0.33491825578E+02 -0.29074035545E+01 -0.43442746205E+03  0.43572626173E+03  0.00000000000E+00 0. -1.
        -12    1    3    3    0    0 -0.14512932946E+02 -0.42656367470E+02 -0.22012514262E+03  0.22468927282E+03  0.00000000000E+00 0.  1.
          5    1    4    4  501    0 -0.13734495284E+02  0.35365247340E+02  0.67413193252E+02  0.77468368413E+02  0.41800000000E+01 0. -1.
         -5    1    4    4    0  501  0.56371597122E+02  0.57095390423E-01 -0.30523142315E+02  0.64240912500E+02  0.41800000000E+01 0. -1.
</event>
<event>
11    1  0.8039394E-009  0.1565858E+03  0.7561462E-02  0.1090333E+00
         22   -1    0    0    0    0  0.00000000000E+00  0.00000000000E+00  0.67146863484E+03  0.67146863484E+03  0.00000000000E+00 0.  1.
         22   -1    0    0    0    0 -0.00000000000E+00 -0.00000000000E+00 -0.13036461666E+04  0.13036461666E+04  0.00000000000E+00 0. -1.
         24    2    1    2    0    0 -0.38795374958E+02 -0.47669686276E+01 -0.12063577200E+04  0.12093320472E+04  0.75214669487E+02 0.  0.
         25    2    1    2    0    0  0.81389785908E+02 -0.78186656289E+02 -0.10039429863E+02  0.16878173383E+03  0.12509609527E+03 0.  0.
        -24    2    1    2    0    0 -0.42594410949E+02  0.82953624916E+02  0.58421961817E+03  0.59700102042E+03  0.80012926470E+02 0.  0.
        -13    1    3    3    0    0 -0.29220035401E+02 -0.38656660375E+02 -0.60069574230E+03  0.60264709630E+03  0.00000000000E+00 0.  1.
         14    1    3    3    0    0 -0.95753395571E+01  0.33889691748E+02 -0.60566197773E+03  0.60668495086E+03  0.00000000000E+00 0. -1.
         13    1    5    5    0    0 -0.23840139558E+02  0.56995614789E+02  0.15905710595E+03  0.17063415634E+03  0.00000000000E+00 0. -1.
        -14    1    5    5    0    0 -0.18754271391E+02  0.25958010127E+02  0.42516251222E+03  0.42636686408E+03  0.00000000000E+00 0.  1.
          5    1    4    4  501    0  0.20980230556E+01 -0.43953825600E+02  0.47526954731E+02  0.64904732582E+02  0.41800000000E+01 0.  1.
         -5    1    4    4    0  501  0.79291762852E+02 -0.34232830689E+02 -0.57566384593E+02  0.10387700125E+03  0.41800000000E+01 0.  1.
</event>
<event>
11    1  0.8039394E-009  0.1533741E+03  0.7561462E-02  0.1093480E+00
         22   -1    0    0    0    0  0.00000000000E+00  0.00000000000E+00  0.86358306067E+03  0.86358306067E+03  0.00000000000E+00 0.  1.
         22   -1    0    0    0    0 -0.00000000000E+00 -0.00000000000E+00 -0.10709962871E+03  0.10709962871E+03  0.00000000000E+00 0.  1.
         24    2    1    2    0    0  0.33373426235E+02  0.70024032555E+01 -0.60595852294E+02  0.10662246664E+03  0.80831144044E+02 0.  0.
         25    2    1    2    0    0 -0.22780034734E+02  0.84117576952E+02  0.35974158944E+03  0.39071471909E+03  0.12509709750E+03 0.  0.
        -24    2    1    2    0    0 -0.10593391501E+02 -0.91119980207E+02  0.45733769481E+03  0.47334550365E+03  0.80517873766E+02 0.  0.
        -11    1    3    3    0    0  0.53576385837E+02  0.26027605211E+02 -0.36407746418E+02  0.69809665173E+02  0.00000000000E+00 0.  1.
         12    1    3    3    0    0 -0.20202959602E+02 -0.19025201955E+02 -0.24188105876E+02  0.36812801469E+02  0.00000000000E+00 0. -1.
         11    1    5    5    0    0 -0.10782524880E+02 -0.72866075881E+01  0.60752095765E+01  0.14361951968E+02  0.00000000000E+00 0. -1.
        -12    1    5    5    0    0  0.18913337904E+00 -0.83833372619E+02  0.45126248523E+03  0.45898355168E+03  0.00000000000E+00 0.  1.
          5    1    4    4  501    0 -0.58787867526E+02  0.80083933232E+02  0.16545654027E+03  0.19303571910E+03  0.41800000000E+01 0.  1.
         -5    1    4    4    0  501  0.36007832793E+02  0.40336437201E+01  0.19428504918E+03  0.19767899999E+03  0.41800000000E+01 0.  1.
</event>
<event>
11    1  0.8039394E-009  0.1936611E+03  0.7561462E-02  0.1059099E+00
         22   -1    0    0    0    0  0.00000000000E+00  0.00000000000E+00  0.24182938433E+04  0.24182938433E+04  0.00000000000E+00 0.  1.
         22   -1    0    0    0    0 -0.00000000000E+00 -0.00000000000E+00 -0.26947514857E+03  0.26947514857E+03  0.00000000000E+00 0. -1.
         24    2    1    2    0    0  0.14094233033E+03  0.35801151958E+02 -0.21217540890E+03  0.26943909136E+03  0.80203222202E+02 0.  0.
         25    2    1    2    0    0 -0.17192096634E+03 -0.91161072074E+02  0.46383906724E+03  0.51832452117E+03  0.12508584741E+03 0.  0.
        -24    2    1    2    0    0  0.30978636015E+02  0.55359920115E+02  0.18971550364E+04  0.19000053793E+04  0.82454913193E+02 0.  0.
        -13    1    3    3    0    0  0.50839595664E+02  0.53972150680E+02 -0.95910789367E+02  0.12122927474E+03  0.00000000000E+00 0.  1.
         14    1    3    3    0    0  0.90102734664E+02 -0.18170998722E+02 -0.11626461954E+03  0.14820981663E+03  0.00000000000E+00 0. -1.
         13    1    5    5    0    0  0.48712697143E+02  0.39238420698E+01  0.10126744900E+04  0.10138530199E+04  0.00000000000E+00 0. -1.
        -14    1    5    5    0    0 -0.17734061128E+02  0.51436078045E+02  0.88448054643E+03  0.88615235939E+03  0.00000000000E+00 0.  1.
          5    1    4    4  501    0 -0.37756652827E+02 -0.36957554150E+02  0.29845369549E+02  0.60824699958E+02  0.41800000000E+01 0. -1.
         -5    1    4    4    0  501 -0.13416431352E+03 -0.54203517924E+02  0.43399369769E+03  0.45749982121E+03  0.41800000000E+01 0. -1.
</event>
<event>
11    1  0.8039394E-009  0.1510871E+03  0.7561462E-02  0.1095773E+00
         22   -1    0    0    0    0  0.00000000000E+00  0.00000000000E+00  0.23318460378E+04  0.23318460378E+04  0.00000000000E+00 0.  1.
         22   -1    0    0    0    0 -0.00000000000E+00 -0.00000000000E+00 -0.38872527231E+02  0.38872527231E+02  0.00000000000E+00 0.  1.
         24    2    1    2    0    0 -0.74266706083E+02  0.21968929904E+02  0.98086113159E+02  0.15139729730E+03  0.85452200213E+02 0.  0.
         25    2    1    2    0    0 -0.66362820272E+01  0.32716266155E+02  0.40636637927E+03  0.42649211545E+03  0.12508995174E+03 0.  0.
        -24    2    1    2    0    0  0.80902988110E+02 -0.54685196059E+02  0.17885210182E+04  0.17928291523E+04  0.76767003380E+02 0.  0.
        -13    1    3    3    0    0 -0.33503125310E+02 -0.43590712059E+01 -0.80171192616E+01  0.34723696643E+02  0.00000000000E+00 0.  1.
         14    1    3    3    0    0 -0.40763580773E+02  0.26328001110E+02  0.10610323242E+03  0.11667360066E+03  0.00000000000E+00 0. -1.
         11    1    5    5    0    0  0.12471159901E+02  0.25649991953E+01  0.38816789501E+02  0.40851587451E+02  0.00000000000E+00 0. -1.
        -12    1    5    5    0    0  0.68431828209E+02 -0.57250195254E+02  0.17497042287E+04  0.17519775649E+04  0.00000000000E+00 0.  1.
          5    1    4    4  501    0  0.30679498989E+02 -0.36283382716E+02  0.20181818510E+03  0.20737832037E+03  0.41800000000E+01 0.  1.
         -5    1    4    4    0  501 -0.37315781016E+02  0.68999648871E+02  0.20454819417E+03  0.21911379508E+03  0.41800000000E+01 0.  1.
</event>
<event>
11    1  0.8039394E-009  0.1486914E+03  0.7561462E-02  0.1098223E+00
         22   -1    0    0    0    0  0.00000000000E+00  0.00000000000E+00  0.33575446363E+03  0.33575446363E+03  0.00000000000E+00 0.  1.
         22   -1    0    0    0    0 -0.00000000000E+00 -0.00000000000E+00 -0.65520328540E+03  0.65520328540E+03  0.00000000000E+00 0.  1.
         24    2    1    2    0    0  0.39540523179E+01 -0.38378226081E+02 -0.55631632070E+03  0.56333569686E+03  0.79816889936E+02 0.  0.
         25    2    1    2    0    0 -0.73166923841E+02 -0.65072784859E+01 -0.19773752775E+02  0.14642124006E+03  0.12510969117E+03 0.  0.
        -24    2    1    2    0    0  0.69212871523E+02  0.44885504567E+02  0.25664125170E+03  0.28120081210E+03  0.80025211932E+02 0.  0.
        -13    1    3    3    0    0 -0.10608818043E+02  0.17046864279E+02 -0.30091820116E+03  0.30158731139E+03  0.00000000000E+00 0.  1.
         14    1    3    3    0    0  0.14562870361E+02 -0.55425090360E+02 -0.25539811954E+03  0.26174838547E+03  0.00000000000E+00 0. -1.
         13    1    5    5    0    0  0.57131615693E+02 -0.87803932851E+01  0.10451072611E+03  0.11943035079E+03  0.00000000000E+00 0. -1.
        -14    1    5    5    0    0  0.12081255830E+02  0.53665897852E+02  0.15213052559E+03  0.16177046131E+03  0.00000000000E+00 0.  1.
          5    1    4    4  501    0 -0.98027720259E+02 -0.37115666615E+02 -0.87643341784E+01  0.10526771870E+03  0.41800000000E+01 0.  1.
         -5    1    4    4    0  501  0.24860796418E+02  0.30608388129E+02 -0.11009418596E+02  0.41153521359E+02  0.41800000000E+01 0.  1.
</event>
<event>
11    1  0.8039394E-009  0.1324309E+03  0.7561462E-02  0.1116318E+00
         22   -1    0    0    0    0  0.00000000000E+00  0.00000000000E+00  0.11371250575E+03  0.11371250575E+03  0.00000000000E+00 0. -1.
         22   -1    0    0    0    0 -0.00000000000E+00 -0.00000000000E+00 -0.27319291839E+04  0.27319291839E+04  0.00000000000E+00 0.  1.
        -24    2    1    2    0    0 -0.12395215592E+02 -0.51397165287E+02 -0.15062750394E+04  0.15094681259E+04  0.82669333400E+02 0.  0.
         25    2    1    2    0    0  0.30971678192E+02  0.13450429586E+02 -0.12025052980E+04  0.12094656350E+04  0.12509185205E+03 0.  0.
         24    2    1    2    0    0 -0.18576462600E+02  0.37946735700E+02  0.90563659308E+02  0.12670792880E+03  0.77897901906E+02 0.  0.
        -13    1    5    5    0    0  0.22625160869E+02 -0.69853893890E+00  0.34722871739E+01  0.22900712635E+02  0.00000000000E+00 0.  1.
         14    1    5    5    0    0 -0.41201623469E+02  0.38645274639E+02  0.87091372134E+02  0.10380721617E+03  0.00000000000E+00 0. -1.
         11    1    3    3    0    0 -0.35590873719E+01 -0.17150065087E+02 -0.54148268152E+02  0.56910691256E+02  0.00000000000E+00 0. -1.
        -12    1    3    3    0    0 -0.88361282196E+01 -0.34247100200E+02 -0.14521267713E+04  0.14525574346E+04  0.00000000000E+00 0.  1.
          5    1    4    4  501    0 -0.55969629490E+01  0.45228151775E+02 -0.17740873437E+03  0.18321638337E+03  0.41800000000E+01 0.  1.
         -5    1    4    4    0  501  0.36568641141E+02 -0.31777722188E+02 -0.10250965637E+04  0.10262492516E+04  0.41800000000E+01 0.  1.
</event>
<event>
11    1  0.8039394E-009  0.1426621E+03  0.7561462E-02  0.1104622E+00
         22   -1    0    0    0    0  0.00000000000E+00  0.00000000000E+00  0.28918358997E+04  0.28918358997E+04  0.00000000000E+00 0.  1.
         22   -1    0    0    0    0 -0.00000000000E+00 -0.00000000000E+00 -0.30843790530E+04  0.30843790530E+04  0.00000000000E+00 0. -1.
        -24    2    1    2    0    0  0.42645160758E+02  0.38758634329E+02 -0.24229770713E+04  0.24250334762E+04  0.81539141007E+02 0.  0.
         25    2    1    2    0    0  0.25142020926E+02 -0.49555848653E+02 -0.65234192587E+03  0.66654754406E+03  0.12509091448E+03 0.  0.
         24    2    1    2    0    0 -0.67787181684E+02  0.10797214323E+02  0.28827758438E+04  0.28846339324E+04  0.77489848557E+02 0.  0.
        -13    1    5    5    0    0 -0.68545773346E+02 -0.11806862033E+02  0.26085010822E+04  0.26094282555E+04  0.00000000000E+00 0.  1.
         14    1    5    5    0    0  0.75859166165E+00  0.22604076356E+02  0.27427476164E+03  0.27520567691E+03  0.00000000000E+00 0. -1.
         11    1    3    3    0    0  0.66244406320E+02  0.32472439122E+02 -0.19912387777E+04  0.19926049911E+04  0.00000000000E+00 0. -1.
        -12    1    3    3    0    0 -0.23599245562E+02  0.62861952067E+01 -0.43173829354E+03  0.43242848513E+03  0.00000000000E+00 0.  1.
          5    1    4    4  501    0 -0.37427357721E+02  0.20401551448E+02 -0.21614301483E+03  0.22034587735E+03  0.41800000000E+01 0. -1.
         -5    1    4    4    0  501  0.62569378646E+02 -0.69957400100E+02 -0.43619891104E+03  0.44620166670E+03  0.41800000000E+01 0. -1.
</event>
<event>
11    1  0.8039394E-009  0.1458566E+03  0.7561462E-02  0.1101189E+00
         22   -1    0    0    0    0  0.00000000000E+00  0.00000000000E+00  0.33272383715E+03  0.33272383715E+03  0.00000000000E+00 0. -1.
         22   -1    0    0    0    0 -0.00000000000E+00 -0.00000000000E+00 -0.76296598498E+03  0.76296598498E+03  0.00000000000E+00 0.  1.
        -24    2    1    2    0    0  0.72393563163E+02  0.22674649125E+02 -0.60424827499E+03  0.61432916707E+03  0.80804578975E+02 0.  0.
         25    2    1    2    0    0 -0.74310291810E+02  0.93993503800E+01 -0.11068846797E+03  0.18305726296E+03  0.12509059646E+03 0.  0.
         24    2    1    2    0    0  0.19167286463E+01 -0.32073999505E+02  0.28469459512E+03  0.29830339211E+03  0.83075182555E+02 0.  0.
        -11    1    5    5    0    0  0.20934864383E+02  0.15239779036E+02  0.35474376067E+02  0.43919822052E+02  0.00000000000E+00 0.  1.
         12    1    5    5    0    0 -0.19018135736E+02 -0.47313778540E+02  0.24922021906E+03  0.25438357006E+03  0.00000000000E+00 0. -1.
         11    1    3    3    0    0 -0.79487972481E+01 -0.18509560936E+02 -0.91258750120E+02  0.93455586763E+02  0.00000000000E+00 0. -1.
        -12    1    3    3    0    0  0.80342360411E+02  0.41184210061E+02 -0.51298952487E+03  0.52087358030E+03  0.00000000000E+00 0.  1.
          5    1    4    4  501    0 -0.54347740826E+02  0.13398896195E+00  0.14076908211E+02  0.56296772827E+02  0.41800000000E+01 0.  1.
         -5    1    4    4    0  501 -0.19962550984E+02  0.92653614181E+01 -0.12476537618E+03  0.12676049013E+03  0.41800000000E+01 0.  1.
</event>
<event>
11    1  0.8039394E-009  0.1399569E+03  0.7561462E-02  0.1107606E+00
         22   -1    0    0    0    0  0.00000000000E+00  0.00000000000E+00  0.14071568617E+04  0.14071568617E+04  0.00000000000E+00 0.  1.
         22   -1    0    0    0    0 -0.00000000000E+00 -0.00000000000E+00 -0.48915805581E+02  0.48915805581E+02  0.00000000000E+00 0.  1.
         24    2    1    2    0    0 -0.46035496229E+02 -0.43613805299E+02  0.40020190238E+02  0.10976450360E+03  0.80157343379E+02 0.  0.
         25    2    1    2    0    0  0.37492818992E+02  0.46735709762E+02  0.37495965589E+03  0.39979036001E+03  0.12509056869E+03 0.  0.
        -24    2    1    2    0    0  0.85426772369E+01 -0.31219044626E+01  0.94326120999E+03  0.94651780366E+03  0.77919950980E+02 0.  0.
        -13    1    3    3    0    0 -0.50147911565E+02 -0.42774023898E+02 -0.35354987756E+01  0.66007044369E+02  0.00000000000E+00 0.  1.
         14    1    3    3    0    0  0.41124153358E+01 -0.83978140139E+00  0.43555689014E+02  0.43757459229E+02  0.00000000000E+00 0. -1.
         11    1    5    5    0    0 -0.10186048468E+02 -0.89229278465E+01  0.28572818406E+02  0.31619300694E+02  0.00000000000E+00 0. -1.
        -12    1    5    5    0    0  0.18728725705E+02  0.58010233839E+01  0.91468839158E+03  0.91489850297E+03  0.00000000000E+00 0.  1.
          5    1    4    4  501    0 -0.36154405681E+02  0.28394954397E+02  0.24435221672E+03  0.24867427029E+03  0.41800000000E+01 0. -1.
         -5    1    4    4    0  501  0.73647224673E+02  0.18340755365E+02  0.13060743916E+03  0.15111608973E+03  0.41800000000E+01 0. -1.
</event>
<event>
11    1  0.8039394E-009  0.1344264E+03  0.7561462E-02  0.1113947E+00
         22   -1    0    0    0    0  0.00000000000E+00  0.00000000000E+00  0.44665329538E+03  0.44665329538E+03  0.00000000000E+00 0. -1.
         22   -1    0    0    0    0 -0.00000000000E+00 -0.00000000000E+00 -0.64065319123E+03  0.64065319123E+03  0.00000000000E+00 0. -1.
         24    2    1    2    0    0 -0.29182467833E+01  0.49978805811E+02 -0.51572807827E+03  0.52443355376E+03  0.80924065664E+02 0.  0.
         25    2    1    2    0    0 -0.29270614187E+02 -0.42390535232E+02 -0.76373664033E+02  0.15535093302E+03  0.12508896635E+03 0.  0.
        -24    2    1    2    0    0  0.32188860970E+02 -0.75882705785E+01  0.39810184645E+03  0.40752199982E+03  0.80594016979E+02 0.  0.
        -11    1    3    3    0    0 -0.15862346609E+02  0.46633438626E+02 -0.13902302677E+03  0.14749133401E+03  0.00000000000E+00 0.  1.
         12    1    3    3    0    0  0.12944099826E+02  0.33453671842E+01 -0.37670505150E+03  0.37694221975E+03  0.00000000000E+00 0. -1.
         13    1    5    5    0    0  0.21075171144E+02  0.29183276490E+02  0.30024581340E+03  0.30239605641E+03  0.00000000000E+00 0. -1.
        -14    1    5    5    0    0  0.11113689826E+02 -0.36771547068E+02  0.97856033046E+02  0.10512594342E+03  0.00000000000E+00 0.  1.
          5    1    4    4  501    0 -0.17782136308E+02 -0.41611322061E+02 -0.11029240176E+03  0.11928785681E+03  0.41800000000E+01 0.  1.
         -5    1    4    4    0  501 -0.11488477879E+02 -0.77921317082E+00  0.33918737729E+02  0.36063076217E+02  0.41800000000E+01 0.  1.
</event>
<event>
11    1  0.8039394E-009  0.2206101E+03  0.7561462E-02  0.1040836E+00
         22   -1    0    0    0    0  0.00000000000E+00  0.00000000000E+00  0.11975093210E+03  0.11975093210E+03  0.00000000000E+00 0. -1.
         22   -1    0    0    0    0 -0.00000000000E+00 -0.00000000000E+00 -0.55868501497E+03  0.55868501497E+03  0.00000000000E+00 0.  1.
        -24    2    1    2    0    0 -0.45352279356E+02 -0.12758758411E+02 -0.10505142405E+03  0.14004124947E+03  0.79725370482E+02 0.  0.
         25    2    1    2    0    0  0.12125308276E+03 -0.14674616486E+03 -0.17407924450E+03  0.28667857984E+03  0.12507708742E+03 0.  0.
         24    2    1    2    0    0 -0.75900803402E+02  0.15950492327E+03 -0.15980341432E+03  0.25171611776E+03  0.81370266119E+02 0.  0.
        -11    1    5    5    0    0 -0.31680436106E+02  0.44708111971E+02 -0.10201561197E+03  0.11580004488E+03  0.00000000000E+00 0.  1.
         12    1    5    5    0    0 -0.44220367296E+02  0.11479681130E+03 -0.57787802353E+02  0.13591607288E+03  0.00000000000E+00 0. -1.
         13    1    3    3    0    0 -0.49131292440E+02 -0.25863792193E+02 -0.11179688735E+03  0.12482533262E+03  0.00000000000E+00 0. -1.
        -14    1    3    3    0    0  0.37790130838E+01  0.13105033782E+02  0.67454632988E+01  0.15215916845E+02  0.00000000000E+00 0.  1.
          5    1    4    4  501    0  0.14594197590E+03 -0.10786648999E+03 -0.13927814867E+03  0.22880147527E+03  0.41800000000E+01 0. -1.
         -5    1    4    4    0  501 -0.24688893139E+02 -0.38879674868E+02 -0.34801095831E+02  0.57877104569E+02  0.41800000000E+01 0. -1.
</event>
<event>
11    1  0.8039394E-009  0.1588625E+03  0.7561462E-02  0.1088152E+00
         22   -1    0    0    0    0  0.00000000000E+00  0.00000000000E+00  0.49100784959E+03  0.49100784959E+03  0.00000000000E+00 0.  1.
         22   -1    0    0    0    0 -0.00000000000E+00 -0.00000000000E+00 -0.22690491861E+03  0.22690491861E+03  0.00000000000E+00 0.  1.
         24    2    1    2    0    0 -0.35506609261E+02 -0.13743734360E+02 -0.14030864866E+03  0.16691644312E+03  0.82005930026E+02 0.  0.
         25    2    1    2    0    0  0.10032267857E+03 -0.56766971367E+02  0.53050166786E+02  0.17817014873E+03  0.12507259023E+03 0.  0.
        -24    2    1    2    0    0 -0.64816069313E+02  0.70510705727E+02  0.35136141285E+03  0.37282617636E+03  0.79822508576E+02 0.  0.
        -13    1    3    3    0    0 -0.29083721562E+02 -0.41958237767E+02 -0.12305918446E+03  0.13322882367E+03  0.00000000000E+00 0.  1.
         14    1    3    3    0    0 -0.64228876993E+01  0.28214503407E+02 -0.17249464196E+02  0.33687619446E+02  0.00000000000E+00 0. -1.
         13    1    5    5    0    0 -0.35698779640E+01 -0.50637871942E+01  0.14018942640E+03  0.14032626712E+03  0.00000000000E+00 0. -1.
        -14    1    5    5    0    0 -0.61246191349E+02  0.75574492921E+02  0.21117198645E+03  0.23249990924E+03  0.00000000000E+00 0.  1.
          5    1    4    4  501    0  0.93362339984E+02 -0.38982942611E+02  0.90574865276E+02  0.13585829000E+03  0.41800000000E+01 0. -1.
         -5    1    4    4    0  501  0.69603385900E+01 -0.17784028755E+02 -0.37524698490E+02  0.42311858726E+02  0.41800000000E+01 0. -1.
</event>
<event>
11    1  0.8039394E-009  0.1359005E+03  0.7561462E-02  0.1112224E+00
         22   -1    0    0    0    0  0.00000000000E+00  0.00000000000E+00  0.11732887352E+04  0.11732887352E+04  0.00000000000E+00 0.  1.
         22   -1    0    0    0    0 -0.00000000000E+00 -0.00000000000E+00 -0.12567884378E+03  0.12567884378E+03  0.00000000000E+00 0. -1.
         24    2    1    2    0    0 -0.37388691551E+02  0.19148063452E+02 -0.72887414017E+02  0.11660071313E+03  0.80737776726E+02 0.  0.
         25    2    1    2    0    0 -0.13746780190E+02 -0.39827312452E+02  0.12383283752E+03  0.18098891048E+03  0.12508886956E+03 0.  0.
        -24    2    1    2    0    0  0.51135471741E+02  0.20679249000E+02  0.99666446796E+03  0.10013779554E+04  0.79845350939E+02 0.  0.
        -11    1    3    3    0    0 -0.53420601925E+02  0.28679880516E+02 -0.25687757624E+02  0.65849503781E+02  0.00000000000E+00 0.  1.
         12    1    3    3    0    0  0.16031910375E+02 -0.95318170639E+01 -0.47199656393E+02  0.50751209349E+02  0.00000000000E+00 0. -1.
         13    1    5    5    0    0  0.68869495180E+02 -0.11281996437E+01  0.72331787334E+03  0.72658999862E+03  0.00000000000E+00 0. -1.
        -14    1    5    5    0    0 -0.17734023439E+02  0.21807448644E+02  0.27334659462E+03  0.27478795679E+03  0.00000000000E+00 0.  1.
          5    1    4    4  501    0 -0.68731945317E+02 -0.13808090111E+02  0.56369428254E+02  0.90054031011E+02  0.41800000000E+01 0. -1.
         -5    1    4    4    0  501  0.54985165127E+02 -0.26019222341E+02  0.67463409262E+02  0.90934879472E+02  0.41800000000E+01 0. -1.
</event>
<event>
11    1  0.8039394E-009  0.1376438E+03  0.7561462E-02  0.1110218E+00
         22   -1    0    0    0    0  0.00000000000E+00  0.00000000000E+00  0.35367764225E+03  0.35367764225E+03  0.00000000000E+00 0.  1.
         22   -1    0    0    0    0 -0.00000000000E+00 -0.00000000000E+00 -0.36229272672E+03  0.36229272672E+03  0.00000000000E+00 0. -1.
        -24    2    1    2    0    0  0.17116192271E+02  0.17599726945E+02 -0.13206453763E+03  0.15625481287E+03  0.79823618182E+02 0.  0.
         25    2    1    2    0    0 -0.62014560241E+02 -0.51983021144E+02 -0.18381404257E+03  0.23660684686E+03  0.12508859885E+03 0.  0.
         24    2    1    2    0    0  0.44898367969E+02  0.34383294199E+02  0.30726349573E+03  0.32310870924E+03  0.82403324028E+02 0.  0.
        -13    1    5    5    0    0  0.60203593538E+02  0.38066235411E+02  0.29405637668E+03  0.30256018182E+03  0.00000000000E+00 0.  1.
         14    1    5    5    0    0 -0.15305225569E+02 -0.36829412120E+01  0.13207119050E+02  0.20548527424E+02  0.00000000000E+00 0. -1.
         11    1    3    3    0    0 -0.11522690132E+02  0.42139050135E+02 -0.88054389751E+02  0.98295714498E+02  0.00000000000E+00 0. -1.
        -12    1    3    3    0    0  0.28638882403E+02 -0.24539323191E+02 -0.44010147878E+02  0.57959098373E+02  0.00000000000E+00 0.  1.
          5    1    4    4  501    0  0.37883971504E+02 -0.49047445705E+01 -0.49767522216E+02  0.62877106197E+02  0.41800000000E+01 0. -1.
         -5    1    4    4    0  501 -0.99898531744E+02 -0.47078276573E+02 -0.13404652036E+03  0.17372974066E+03  0.41800000000E+01 0. -1.
</event>
<event>
11    1  0.8039394E-009  0.1395499E+03  0.7561462E-02  0.1108062E+00
         22   -1    0    0    0    0  0.00000000000E+00  0.00000000000E+00  0.74409351044E+03  0.74409351044E+03  0.00000000000E+00 0. -1.
         22   -1    0    0    0    0 -0.00000000000E+00 -0.00000000000E+00 -0.17993315576E+03  0.17993315576E+03  0.00000000000E+00 0. -1.
        -24    2    1    2    0    0 -0.20203425206E+02 -0.68749037719E+01 -0.66821118506E+02  0.10668600450E+03  0.80382827675E+02 0.  0.
         25    2    1    2    0    0  0.23871603291E+02 -0.55088630012E+02 -0.35787665546E+02  0.14329481679E+03  0.12509211371E+03 0.  0.
         24    2    1    2    0    0 -0.36681780850E+01  0.61963533784E+02  0.66676913873E+03  0.67404584491E+03  0.76836069800E+02 0.  0.
        -13    1    5    5    0    0 -0.25029201809E+02  0.52344855302E+02  0.25106492216E+03  0.25768205207E+03  0.00000000000E+00 0.  1.
         14    1    5    5    0    0  0.21361023724E+02  0.96186784819E+01  0.41570421658E+03  0.41636379284E+03  0.00000000000E+00 0. -1.
         13    1    3    3    0    0 -0.40509252613E+02 -0.29668286079E+02 -0.53522905327E+02  0.73388746690E+02  0.00000000000E+00 0. -1.
        -14    1    3    3    0    0  0.20305827407E+02  0.22793382307E+02 -0.13298213179E+02  0.33297257806E+02  0.00000000000E+00 0.  1.
          5    1    4    4  501    0 -0.49041105038E+02 -0.25742361050E+02  0.28444703611E+01  0.55617106608E+02  0.41800000000E+01 0. -1.
         -5    1    4    4    0  501  0.72912708329E+02 -0.29346268962E+02 -0.38632135907E+02  0.87677710181E+02  0.41800000000E+01 0. -1.
</event>
<event>
11    1  0.8039394E-009  0.1963517E+03  0.7561462E-02  0.1057134E+00
         22   -1    0    0    0    0  0.00000000000E+00  0.00000000000E+00  0.72836478371E+03  0.72836478371E+03  0.00000000000E+00 0. -1.
         22   -1    0    0    0    0 -0.00000000000E+00 -0.00000000000E+00 -0.70644379952E+03  0.70644379952E+03  0.00000000000E+00 0. -1.
        -24    2    1    2    0    0  0.13212348273E+03 -0.69997672173E+02 -0.61860270359E+03  0.64144073709E+03  0.80128805678E+02 0.  0.
         25    2    1    2    0    0 -0.14452381901E+03  0.10632084330E+03  0.91208008754E+02  0.23697595244E+03  0.12508974856E+03 0.  0.
         24    2    1    2    0    0  0.12400336271E+02 -0.36323171125E+02  0.54931567903E+03  0.55639189371E+03  0.79693682628E+02 0.  0.
        -13    1    5    5    0    0  0.21888653225E+02 -0.17121516521E+01  0.38525446456E+02  0.44342469799E+02  0.00000000000E+00 0.  1.
         14    1    5    5    0    0 -0.94883169540E+01 -0.34611019473E+02  0.51079023258E+03  0.51204942391E+03  0.00000000000E+00 0. -1.
         11    1    3    3    0    0  0.13876165757E+03 -0.61164819569E+02 -0.60597620779E+03  0.62466238655E+03  0.00000000000E+00 0. -1.
        -12    1    3    3    0    0 -0.66381748389E+01 -0.88328526045E+01 -0.12626495803E+02  0.16778350532E+02  0.00000000000E+00 0.  1.
          5    1    4    4  501    0 -0.92798911930E+02 -0.25893879311E+00  0.70551525859E+02  0.11664774025E+03  0.41800000000E+01 0.  1.
         -5    1    4    4    0  501 -0.51724907076E+02  0.10657978209E+03  0.20656482895E+02  0.12032821219E+03  0.41800000000E+01 0.  1.
</event>
<event>
11    1  0.8039394E-009  0.1407525E+03  0.7561462E-02  0.1106721E+00
         22   -1    0    0    0    0  0.00000000000E+00  0.00000000000E+00  0.13241986567E+04  0.13241986567E+04  0.00000000000E+00 0.  1.
         22   -1    0    0    0    0 -0.00000000000E+00 -0.00000000000E+00 -0.17670636383E+04  0.17670636383E+04  0.00000000000E+00 0. -1.
        -24    2    1    2    0    0 -0.61166327905E+02  0.25800199398E+02 -0.16599679140E+04  0.16638727170E+04  0.92584949906E+02 0.  0.
         25    2    1    2    0    0  0.20249910088E+02 -0.20136021598E+02 -0.63874607731E+02  0.14333240241E+03  0.12509473947E+03 0.  0.
         24    2    1    2    0    0  0.40916417816E+02 -0.56641777997E+01  0.12809775401E+04  0.12840571756E+04  0.78696478250E+02 0.  0.
        -13    1    5    5    0    0  0.15573320318E+02 -0.39359966557E+02  0.84084591452E+03  0.84191067652E+03  0.00000000000E+00 0.  1.
         14    1    5    5    0    0  0.25343097499E+02  0.33695788757E+02  0.44013162560E+03  0.44214649905E+03  0.00000000000E+00 0. -1.
         13    1    3    3    0    0 -0.31824583707E+02 -0.24214210890E+02 -0.11364342223E+04  0.11371375791E+04  0.00000000000E+00 0. -1.
        -14    1    3    3    0    0 -0.29341744198E+02  0.50014410288E+02 -0.52353369166E+03  0.52673513790E+03  0.00000000000E+00 0.  1.
          5    1    4    4  501    0 -0.13134075564E+02 -0.62040109746E+02 -0.51968762728E+01  0.63764873412E+02  0.41800000000E+01 0. -1.
         -5    1    4    4    0  501  0.33383985652E+02  0.41904088148E+02 -0.58677731458E+02  0.79567528997E+02  0.41800000000E+01 0. -1.
</event>
<event>
11    1  0.8039394E-009  0.1435103E+03  0.7561462E-02  0.1103701E+00
         22   -1    0    0    0    0  0.00000000000E+00  0.00000000000E+00  0.70969451469E+02  0.70969451469E+02  0.00000000000E+00 0. -1.
         22   -1    0    0    0    0 -0.00000000000E+00 -0.00000000000E+00 -0.78833280237E+03  0.78833280237E+03  0.00000000000E+00 0. -1.
         24    2    1    2    0    0  0.41776288370E+02  0.12114515401E+02 -0.37758085087E+03  0.38871405864E+03  0.81481904044E+02 0.  0.
         25    2    1    2    0    0 -0.90139483028E+02 -0.54075299046E+02 -0.32153282092E+03  0.36066724645E+03  0.12509293892E+03 0.  0.
        -24    2    1    2    0    0  0.48363194658E+02  0.41960783645E+02 -0.18249679107E+02  0.10992094874E+03  0.87463467936E+02 0.  0.
        -13    1    3    3    0    0 -0.24101513726E+02  0.97578594701E+01 -0.12474252332E+03  0.12742368661E+03  0.00000000000E+00 0.  1.
         14    1    3    3    0    0  0.65877802096E+02  0.23566559311E+01 -0.25283832755E+03  0.26129037203E+03  0.00000000000E+00 0. -1.
         11    1    5    5    0    0  0.31373235985E+02  0.64890880489E+02  0.61972593857E+01  0.72343018535E+02  0.00000000000E+00 0. -1.
        -12    1    5    5    0    0  0.16989958674E+02 -0.22930096844E+02 -0.24446938493E+02  0.37577930208E+02  0.00000000000E+00 0.  1.
          5    1    4    4  501    0  0.15491451911E+02 -0.10780051876E+02  0.12024626438E+00  0.19330842194E+02  0.41800000000E+01 0. -1.
         -5    1    4    4    0  501 -0.10563093494E+03 -0.43295247170E+02 -0.32165306718E+03  0.34133640426E+03  0.41800000000E+01 0. -1.
</event>
<event>
11    1  0.8039394E-009  0.1931640E+03  0.7561462E-02  0.1059466E+00
         22   -1    0    0    0    0  0.00000000000E+00  0.00000000000E+00  0.53172953590E+03  0.53172953590E+03  0.00000000000E+00 0. -1.
         22   -1    0    0    0    0 -0.00000000000E+00 -0.00000000000E+00 -0.57473658776E+03  0.57473658776E+03  0.00000000000E+00 0.  1.
        -24    2    1    2    0    0 -0.82521265955E+02  0.13444085750E+03 -0.45120279758E+03  0.48651947574E+03  0.90736609087E+02 0.  0.
         25    2    1    2    0    0  0.52403351972E+02 -0.93382967980E+02 -0.33715172109E+02  0.16808160639E+03  0.12509285979E+03 0.  0.
         24    2    1    2    0    0  0.30117913983E+02 -0.41057889525E+02  0.44191091783E+03  0.45186504154E+03  0.79397213012E+02 0.  0.
        -13    1    5    5    0    0  0.14948351664E+02  0.22358261158E+02  0.88774523098E+02  0.92759155941E+02  0.00000000000E+00 0.  1.
         14    1    5    5    0    0  0.15169562319E+02 -0.63416150683E+02  0.35313639473E+03  0.35910588560E+03  0.00000000000E+00 0. -1.
         11    1    3    3    0    0 -0.51546246778E+00  0.82555639150E+02 -0.16876871367E+03  0.18787915790E+03  0.00000000000E+00 0. -1.
        -12    1    3    3    0    0 -0.82005803487E+02  0.51885218355E+02 -0.28243408390E+03  0.29864031784E+03  0.00000000000E+00 0.  1.
          5    1    4    4  501    0  0.56246646287E+02 -0.80603461906E+02  0.30000059931E+02  0.10284978992E+03  0.41800000000E+01 0.  1.
         -5    1    4    4    0  501 -0.38432943156E+01 -0.12779506074E+02 -0.63715232040E+02  0.65231816474E+02  0.41800000000E+01 0.  1.
</event>
<event>
11    1  0.8039394E-009  0.3733223E+03  0.7561462E-02  0.9731926E-01
         22   -1    0    0    0    0  0.00000000000E+00  0.00000000000E+00  0.67660308905E+03  0.67660308905E+03  0.00000000000E+00 0. -1.
         22   -1    0    0    0    0 -0.00000000000E+00 -0.00000000000E+00 -0.11873086892E+04  0.11873086892E+04  0.00000000000E+00 0. -1.
        -24    2    1    2    0    0 -0.59421096811E+02  0.54021711482E+02 -0.47746706595E+03  0.49091335652E+03  0.81067333035E+02 0.  0.
         25    2    1    2    0    0  0.74848959870E+02 -0.40094900865E+03 -0.57793097380E+03  0.71834947569E+03  0.12513706254E+03 0.  0.
         24    2    1    2    0    0 -0.15427863059E+02  0.34692729717E+03  0.54469243962E+03  0.65464894602E+03  0.10620179032E+03 0.  0.
        -11    1    5    5    0    0 -0.47340882125E+02  0.15387524662E+03  0.18551749545E+03  0.24563283933E+03  0.00000000000E+00 0.  1.
         12    1    5    5    0    0  0.31913019066E+02  0.19305205055E+03  0.35917494417E+03  0.40901610669E+03  0.00000000000E+00 0. -1.
         11    1    3    3    0    0 -0.75288636858E+01  0.56549471926E+02 -0.32145915011E+03  0.32648202363E+03  0.00000000000E+00 0. -1.
        -12    1    3    3    0    0 -0.51892233126E+02 -0.25277604442E+01 -0.15600791584E+03  0.16443133289E+03  0.00000000000E+00 0.  1.
          5    1    4    4  501    0 -0.13485593250E+02 -0.17970112155E+03 -0.31950816757E+03  0.36684778295E+03  0.41800000000E+01 0. -1.
         -5    1    4    4    0  501  0.88334553121E+02 -0.22124788710E+03 -0.25842280622E+03  0.35150169274E+03  0.41800000000E+01 0. -1.
</event>
<event>
11    1  0.8039394E-009  0.1401657E+03  0.7561462E-02  0.1107374E+00
         22   -1    0    0    0    0  0.00000000000E+00  0.00000000000E+00  0.90606230917E+03  0.90606230917E+03  0.00000000000E+00 0. -1.
         22   -1    0    0    0    0 -0.00000000000E+00 -0.00000000000E+00 -0.59585295108E+03  0.59585295108E+03  0.00000000000E+00 0.  1.
        -24    2    1    2    0    0  0.14520321330E+02  0.27382351810E+02 -0.53889821003E+03  0.54618680660E+03  0.83355347799E+02 0.  0.
         25    2    1    2    0    0 -0.44533469479E+02  0.29438209402E+02  0.42209851276E+02  0.14240794382E+03  0.12509401601E+03 0.  0.
         24    2    1    2    0    0  0.30013148149E+02 -0.56820561211E+02  0.80689771685E+03  0.81332050984E+03  0.79227274540E+02 0.  0.
        -11    1    5    5    0    0  0.67405224393E+01 -0.19872060497E+02  0.39906655846E+02  0.45087410793E+02  0.00000000000E+00 0.  1.
         12    1    5    5    0    0  0.23272625710E+02 -0.36948500714E+02  0.76699106100E+03  0.76823309904E+03  0.00000000000E+00 0. -1.
         11    1    3    3    0    0  0.32743040135E+02 -0.11640478354E+02 -0.11578778307E+03  0.12089010762E+03  0.00000000000E+00 0. -1.
        -12    1    3    3    0    0 -0.18222718805E+02  0.39022830163E+02 -0.42311042696E+03  0.42529669897E+03  0.00000000000E+00 0.  1.
          5    1    4    4  501    0 -0.14513024698E+02 -0.49114253178E+02  0.21502801229E+02  0.55701711031E+02  0.41800000000E+01 0.  1.
         -5    1    4    4    0  501 -0.30020444781E+02  0.78552462579E+02  0.20707050047E+02  0.86706232785E+02  0.41800000000E+01 0.  1.
</event>
<event>
11    1  0.8039394E-009  0.2070495E+03  0.7561462E-02  0.1049648E+00
         22   -1    0    0    0    0  0.00000000000E+00  0.00000000000E+00  0.39796564051E+03  0.39796564051E+03  0.00000000000E+00 0. -1.
         22   -1    0    0    0    0 -0.00000000000E+00 -0.00000000000E+00 -0.83301053201E+03  0.83301053201E+03  0.00000000000E+00 0.  1.
         24    2    1    2    0    0 -0.85616536668E+02 -0.34801608785E+01 -0.31486363027E+03  0.33669608957E+03  0.82962932682E+02 0.  0.
         25    2    1    2    0    0 -0.17900194183E+02 -0.12828329552E+03 -0.46674191351E+03  0.50027297377E+03  0.12509202054E+03 0.  0.
        -24    2    1    2    0    0  0.10351673085E+03  0.13176345640E+03  0.34656065227E+03  0.39400710918E+03  0.84023772649E+02 0.  0.
        -13    1    3    3    0    0 -0.83189121676E+02 -0.28911144449E+02 -0.19243624249E+03  0.21163173595E+03  0.00000000000E+00 0.  1.
         14    1    3    3    0    0 -0.24274149914E+01  0.25430983571E+02 -0.12242738778E+03  0.12506435362E+03  0.00000000000E+00 0. -1.
         13    1    5    5    0    0  0.10711627101E+03  0.82960738562E+02  0.28328068627E+03  0.31401325907E+03  0.00000000000E+00 0. -1.
        -14    1    5    5    0    0 -0.35995401595E+01  0.48802717837E+02  0.63279965999E+02  0.79993850104E+02  0.00000000000E+00 0.  1.
          5    1    4    4  501    0 -0.45552819223E+02 -0.34265004088E+02 -0.64211759699E+02  0.85963784979E+02  0.41800000000E+01 0.  1.
         -5    1    4    4    0  501  0.27652625040E+02 -0.94018291433E+02 -0.40253015381E+03  0.41430918880E+03  0.41800000000E+01 0.  1.
</event>
<event>
11    1  0.8039394E-009  0.1262281E+03  0.7561462E-02  0.1123992E+00
         22   -1    0    0    0    0  0.00000000000E+00  0.00000000000E+00  0.73831223957E+03  0.73831223957E+03  0.00000000000E+00 0. -1.
         22   -1    0    0    0    0 -0.00000000000E+00 -0.00000000000E+00 -0.18772491177E+03  0.18772491177E+03  0.00000000000E+00 0. -1.
        -24    2    1    2    0    0 -0.59551245980E+01 -0.54465563891E+01 -0.98963238050E+02  0.12725585976E+03  0.79593987669E+02 0.  0.
         25    2    1    2    0    0  0.16925548492E+02  0.17940189712E+02 -0.15409982071E+02  0.12842572252E+03  0.12508946422E+03 0.  0.
         24    2    1    2    0    0 -0.10970423894E+02 -0.12493633323E+02  0.66496054792E+03  0.67035556905E+03  0.83232311010E+02 0.  0.
        -13    1    5    5    0    0 -0.22763192122E+02 -0.15931364346E+02  0.70634498130E+02  0.75902592917E+02  0.00000000000E+00 0.  1.
         14    1    5    5    0    0  0.11792768228E+02  0.34377310233E+01  0.59432604979E+03  0.59445297613E+03  0.00000000000E+00 0. -1.
         13    1    3    3    0    0 -0.40213053508E+02 -0.68003798536E+01 -0.75178956603E+02  0.85529003002E+02  0.00000000000E+00 0. -1.
        -14    1    3    3    0    0  0.34257928910E+02  0.13538234645E+01 -0.23784281447E+02  0.41726856760E+02  0.00000000000E+00 0.  1.
          5    1    4    4  501    0  0.31061783368E+02  0.61063435674E+02 -0.37024804078E+02  0.77986448049E+02  0.41800000000E+01 0.  1.
         -5    1    4    4    0  501 -0.14136234876E+02 -0.43123245962E+02  0.21614822008E+02  0.50439274471E+02  0.41800000000E+01 0.  1.
</event>
<event>
11    1  0.8039394E-009  0.1415446E+03  0.7561462E-02  0.1105846E+00
         22   -1    0    0    0    0  0.00000000000E+00  0.00000000000E+00  0.40889245163E+03  0.40889245163E+03  0.00000000000E+00 0. -1.
         22   -1    0    0    0    0 -0.00000000000E+00 -0.00000000000E+00 -0.99136702946E+03  0.99136702946E+03  0.00000000000E+00 0. -1.
         24    2    1    2    0    0  0.20602560273E+02  0.63951717350E+02 -0.93533237084E+03  0.94104430938E+03  0.78762050662E+02 0.  0.
         25    2    1    2    0    0 -0.13996234916E+01 -0.37036534736E+02  0.44211602563E+02  0.13775612286E+03  0.12509364386E+03 0.  0.
        -24    2    1    2    0    0 -0.19202936782E+02 -0.26915182614E+02  0.30864619046E+03  0.32145904885E+03  0.83548006373E+02 0.  0.
        -13    1    3    3    0    0 -0.15589922657E+02 -0.10385059434E+02 -0.25911284636E+03  0.25978907270E+03  0.00000000000E+00 0.  1.
         14    1    3    3    0    0  0.36192482930E+02  0.74336776785E+02 -0.67621952449E+03  0.68125523668E+03  0.00000000000E+00 0. -1.
         13    1    5    5    0    0 -0.12993973111E+01 -0.12029936289E+02  0.29335307667E+03  0.29360251258E+03  0.00000000000E+00 0. -1.
        -14    1    5    5    0    0 -0.17903539471E+02 -0.14885246326E+02  0.15293113783E+02  0.27856536269E+02  0.00000000000E+00 0.  1.
          5    1    4    4  501    0 -0.42324745244E+02 -0.15337171211E+02 -0.27030650590E+02  0.52675813729E+02  0.41800000000E+01 0.  1.
         -5    1    4    4    0  501  0.40925121753E+02 -0.21699363525E+02  0.71242253153E+02  0.85080309133E+02  0.41800000000E+01 0.  1.
</event>
<event>
11    1  0.8039394E-009  0.1591338E+03  0.7561462E-02  0.1087895E+00
         22   -1    0    0    0    0  0.00000000000E+00  0.00000000000E+00  0.33240333679E+03  0.33240333679E+03  0.00000000000E+00 0.  1.
         22   -1    0    0    0    0 -0.00000000000E+00 -0.00000000000E+00 -0.57593295977E+03  0.57593295977E+03  0.00000000000E+00 0.  1.
        -24    2    1    2    0    0  0.24744849321E+01  0.43346555124E+02 -0.44255010492E+03  0.45181566458E+03  0.80010952240E+02 0.  0.
         25    2    1    2    0    0  0.23725510275E+02  0.56667160764E+02 -0.70794605650E+02  0.15631004540E+03  0.12508751799E+03 0.  0.
         24    2    1    2    0    0 -0.26199995207E+02 -0.10001371589E+03  0.26981508760E+03  0.30021058658E+03  0.81467979528E+02 0.  0.
        -13    1    5    5    0    0 -0.43447015207E+02 -0.30243944050E+02  0.16371002179E+03  0.17205612607E+03  0.00000000000E+00 0.  1.
         14    1    5    5    0    0  0.17247020000E+02 -0.69769771838E+02  0.10610506580E+03  0.12815446052E+03  0.00000000000E+00 0. -1.
         11    1    3    3    0    0 -0.33736500206E+01 -0.52139347486E+01  0.35279783996E+00  0.62202167438E+01  0.00000000000E+00 0. -1.
        -12    1    3    3    0    0  0.58481349527E+01  0.48560489873E+02 -0.44290290276E+03  0.44559544784E+03  0.00000000000E+00 0.  1.
          5    1    4    4  501    0  0.32967978207E+02  0.64580617696E+02 -0.10046601575E+03  0.12396949822E+03  0.41800000000E+01 0. -1.
         -5    1    4    4    0  501 -0.92424679314E+01 -0.79134569322E+01  0.29671410102E+02  0.32340547174E+02  0.41800000000E+01 0. -1.
</event>
<event>
11    1  0.8039394E-009  0.1979325E+03  0.7561462E-02  0.1055995E+00
         22   -1    0    0    0    0  0.00000000000E+00  0.00000000000E+00  0.14133554411E+04  0.14133554411E+04  0.00000000000E+00 0. -1.
         22   -1    0    0    0    0 -0.00000000000E+00 -0.00000000000E+00 -0.10970154722E+04  0.10970154722E+04  0.00000000000E+00 0.  1.
        -24    2    1    2    0    0  0.10314181315E+03 -0.11014447956E+03 -0.87614908437E+03  0.89259261009E+03  0.79462629776E+02 0.  0.
         25    2    1    2    0    0 -0.10047895364E+03  0.13778695986E+03 -0.15851450398E+03  0.26430305508E+03  0.12509192829E+03 0.  0.
         24    2    1    2    0    0 -0.26628595123E+01 -0.27642480295E+02  0.13510035573E+04  0.13534752481E+04  0.76898880492E+02 0.  0.
        -13    1    5    5    0    0 -0.11060272662E+02  0.55362447284E+01  0.36738442490E+02  0.38764581690E+02  0.00000000000E+00 0.  1.
         14    1    5    5    0    0  0.83974131493E+01 -0.33178725023E+02  0.13142651148E+04  0.13147106664E+04  0.00000000000E+00 0. -1.
         11    1    3    3    0    0 -0.67018556243E+01 -0.31427986554E+02 -0.10924137277E+03  0.11386970945E+03  0.00000000000E+00 0. -1.
        -12    1    3    3    0    0  0.10984366877E+03 -0.78716493008E+02 -0.76690771161E+03  0.77872290063E+03  0.00000000000E+00 0.  1.
          5    1    4    4  501    0  0.11024869325E+02  0.80892558534E+02 -0.89824452087E+02  0.12145393515E+03  0.41800000000E+01 0. -1.
         -5    1    4    4    0  501 -0.11150382296E+03  0.56894401324E+02 -0.68690051888E+02  0.14284911993E+03  0.41800000000E+01 0. -1.
</event>
<event>
11    1  0.8039394E-009  0.1864187E+03  0.7561462E-02  0.1064566E+00
         22   -1    0    0    0    0  0.00000000000E+00  0.00000000000E+00  0.23155687261E+04  0.23155687261E+04  0.00000000000E+00 0.  1.
         22   -1    0    0    0    0 -0.00000000000E+00 -0.00000000000E+00 -0.82978796366E+02  0.82978796366E+02  0.00000000000E+00 0.  1.
        -24    2    1    2    0    0 -0.93195004334E+02  0.59637033894E+02 -0.57888861320E+01  0.13084890177E+03  0.69613499027E+02 0.  0.
         25    2    1    2    0    0  0.33931301112E+02 -0.16843299543E+03  0.14754088533E+04  0.14906374889E+04  0.12509129389E+03 0.  0.
         24    2    1    2    0    0  0.59263703223E+02  0.10879596154E+03  0.76296996260E+03  0.77706113182E+03  0.79700006213E+02 0.  0.
        -13    1    5    5    0    0  0.51418860100E+02  0.88139839213E+02  0.73165018279E+03  0.73873169717E+03  0.00000000000E+00 0.  1.
         14    1    5    5    0    0  0.78448431230E+01  0.20656122325E+02  0.31319779810E+02  0.38329434649E+02  0.00000000000E+00 0. -1.
         11    1    3    3    0    0  0.45842502077E+01 -0.16214079888E+01 -0.14346721933E+02  0.15148357801E+02  0.00000000000E+00 0. -1.
        -12    1    3    3    0    0 -0.97779254542E+02  0.61258441883E+02  0.85578358013E+01  0.11570054397E+03  0.00000000000E+00 0.  1.
          5    1    4    4  501    0  0.53622837553E+02 -0.26247745908E+02  0.65746833720E+03  0.66018667034E+03  0.41800000000E+01 0. -1.
         -5    1    4    4    0  501 -0.19691536441E+02 -0.14218524952E+03  0.81794051607E+03  0.83045081854E+03  0.41800000000E+01 0. -1.
</event>
<event>
11    1  0.8039394E-009  0.2074348E+03  0.7561462E-02  0.1049387E+00
         22   -1    0    0    0    0  0.00000000000E+00  0.00000000000E+00  0.24685043639E+04  0.24685043639E+04  0.00000000000E+00 0.  1.
         22   -1    0    0    0    0 -0.00000000000E+00 -0.00000000000E+00 -0.89911483944E+02  0.89911483944E+02  0.00000000000E+00 0. -1.
         24    2    1    2    0    0  0.16429632763E+03 -0.44414373036E+02  0.13874325334E+03  0.23241506903E+03  0.76165308111E+02 0.  0.
         25    2    1    2    0    0 -0.15985670742E+03  0.15143279096E+02  0.20344828685E+03  0.28778900850E+03  0.12509125541E+03 0.  0.
        -24    2    1    2    0    0 -0.44396202078E+01  0.29271093941E+02  0.20364013397E+04  0.20382117703E+04  0.80624418666E+02 0.  0.
        -11    1    3    3    0    0  0.14628193671E+02  0.15398130138E+02  0.34343394117E+02  0.40380133498E+02  0.00000000000E+00 0.  1.
         12    1    3    3    0    0  0.14966813396E+03 -0.59812503175E+02  0.10439985922E+03  0.19203493553E+03  0.00000000000E+00 0. -1.
         11    1    5    5    0    0  0.33742034710E+02  0.11740546702E+02  0.51863759396E+03  0.51986663598E+03  0.00000000000E+00 0. -1.
        -12    1    5    5    0    0 -0.38181654918E+02  0.17530547238E+02  0.15177637458E+04  0.15183451343E+04  0.00000000000E+00 0.  1.
          5    1    4    4  501    0 -0.99551751720E+02 -0.52284020678E+02  0.12234833853E+03  0.16622502347E+03  0.41800000000E+01 0. -1.
         -5    1    4    4    0  501 -0.60304955701E+02  0.67427299774E+02  0.81099948324E+02  0.12156398502E+03  0.41800000000E+01 0. -1.
</event>
<event>
11    1  0.8039394E-009  0.2512049E+03  0.7561462E-02  0.1023259E+00
         22   -1    0    0    0    0  0.00000000000E+00  0.00000000000E+00  0.18157547821E+04  0.18157547821E+04  0.00000000000E+00 0. -1.
         22   -1    0    0    0    0 -0.00000000000E+00 -0.00000000000E+00 -0.14454824144E+03  0.14454824144E+03  0.00000000000E+00 0.  1.
        -24    2    1    2    0    0  0.53780523900E+02  0.16570866248E+01 -0.37868334159E+02  0.10384835755E+03  0.80345379122E+02 0.  0.
         25    2    1    2    0    0  0.91219302428E+02  0.16659593296E+03  0.13421168717E+03  0.26407695459E+03  0.12509474392E+03 0.  0.
         24    2    1    2    0    0 -0.14499982633E+03 -0.16825301959E+03  0.15748631877E+04  0.15923777114E+04  0.78349777887E+02 0.  0.
        -13    1    5    5    0    0  0.96726183347E+01 -0.11350857991E+02  0.12090480619E+03  0.12182107241E+03  0.00000000000E+00 0.  1.
         14    1    5    5    0    0 -0.15467244466E+03 -0.15690216160E+03  0.14539583815E+04  0.14705566390E+04  0.00000000000E+00 0. -1.
         13    1    3    3    0    0  0.52372609730E+02  0.15882610303E+02  0.84480545350E+01  0.55376142745E+02  0.00000000000E+00 0. -1.
        -14    1    3    3    0    0  0.14079141707E+01 -0.14225523678E+02 -0.46316388694E+02  0.48472214803E+02  0.00000000000E+00 0.  1.
          5    1    4    4  501    0  0.11280197608E+03  0.80728139882E+02  0.83402967090E+02  0.16190999258E+03  0.41800000000E+01 0. -1.
         -5    1    4    4    0  501 -0.21582673653E+02  0.85867793083E+02  0.50808720076E+02  0.10216696201E+03  0.41800000000E+01 0. -1.
</event>
<event>
11    1  0.9661322E-009  0.2639215E+03  0.7561462E-02  0.1016734E+00
         22   -1    0    0    0    0  0.00000000000E+00  0.00000000000E+00  0.43736664472E+03  0.43736664472E+03  0.00000000000E+00 0.  1.
         22   -1    0    0    0    0 -0.00000000000E+00 -0.00000000000E+00 -0.29431949183E+04  0.29431949183E+04  0.00000000000E+00 0.  1.
         24    2    1    2    0    0 -0.86296490459E+02 -0.39604755481E+02 -0.22884137357E+04  0.22918374832E+04  0.81645590745E+02 0.  0.
         25    2    1    2    0    0 -0.12677338947E+03 -0.66170984251E+02 -0.60064467187E+03  0.62997763239E+03  0.12509078315E+03 0.  0.
        -24    2    1    2    0    0  0.21306987993E+03  0.10577573973E+03  0.38323013408E+03  0.45874644739E+03  0.83640220462E+02 0.  0.
        -11    1    3    3    0    0 -0.17486265296E+02 -0.50244154030E+02 -0.77571058541E+03  0.77753273680E+03  0.00000000000E+00 0.  1.
         12    1    3    3    0    0 -0.68810225163E+02  0.10639398548E+02 -0.15127031503E+04  0.15143047464E+04  0.00000000000E+00 0. -1.
         11    1    5    5    0    0  0.32697911192E+02 -0.13142089808E+02  0.41415144789E+02  0.54379059745E+02  0.00000000000E+00 0. -1.
        -12    1    5    5    0    0  0.18037196874E+03  0.11891782954E+03  0.34181498929E+03  0.40436738765E+03  0.00000000000E+00 0.  1.
          5    1    4    4  501    0 -0.13706573136E+03 -0.59259957213E+02 -0.37080151986E+03  0.39976242542E+03  0.41800000000E+01 0. -1.
         -5    1    4    4    0  501  0.10292341889E+02 -0.69110270377E+01 -0.22984315201E+03  0.23021520697E+03  0.41800000000E+01 0. -1.
</event>
<event>
11    1  0.8039394E-009  0.2618423E+03  0.7561462E-02  0.1017773E+00
         22   -1    0    0    0    0  0.00000000000E+00  0.00000000000E+00  0.13354804657E+04  0.13354804657E+04  0.00000000000E+00 0. -1.
         22   -1    0    0    0    0 -0.00000000000E+00 -0.00000000000E+00 -0.73294205409E+03  0.73294205409E+03  0.00000000000E+00 0.  1.
         24    2    1    2    0    0  0.20554535862E+03 -0.65144790249E+02 -0.34359228615E+03  0.41328169146E+03  0.79078184394E+02 0.  0.
         25    2    1    2    0    0 -0.20554190456E+03  0.17133223851E+03 -0.28852297089E+03  0.41291044883E+03  0.12508926229E+03 0.  0.
        -24    2    1    2    0    0 -0.34540652362E-02 -0.10618744826E+03  0.12346536686E+04  0.12422303795E+04  0.86549754760E+02 0.  0.
        -13    1    3    3    0    0  0.17951681812E+03 -0.76020494872E+02 -0.32657340676E+03  0.38033615872E+03  0.00000000000E+00 0.  1.
         14    1    3    3    0    0  0.26028540506E+02  0.10875704622E+02 -0.17018879391E+02  0.32945532741E+02  0.00000000000E+00 0. -1.
         13    1    5    5    0    0  0.13694931938E+02 -0.59436506646E+02  0.10320972240E+04  0.10338979298E+04  0.00000000000E+00 0. -1.
        -14    1    5    5    0    0 -0.13698386003E+02 -0.46750941615E+02  0.20255644463E+03  0.20833244966E+03  0.00000000000E+00 0.  1.
          5    1    4    4  501    0 -0.70404898558E+01 -0.15324823721E+02 -0.41951279034E+02  0.45407058175E+02  0.41800000000E+01 0. -1.
         -5    1    4    4    0  501 -0.19850141470E+03  0.18665706223E+03 -0.24657169185E+03  0.36750339066E+03  0.41800000000E+01 0. -1.
</event>
<event>
11    1  0.8039394E-009  0.1635742E+03  0.7561462E-02  0.1083763E+00
         22   -1    0    0    0    0  0.00000000000E+00  0.00000000000E+00  0.14519179642E+04  0.14519179642E+04  0.00000000000E+00 0. -1.
         22   -1    0    0    0    0 -0.00000000000E+00 -0.00000000000E+00 -0.39846719196E+03  0.39846719196E+03  0.00000000000E+00 0.  1.
         24    2    1    2    0    0 -0.27503362282E+02  0.18705326080E+02 -0.28868095520E+03  0.30162560606E+03  0.80839273691E+02 0.  0.
         25    2    1    2    0    0  0.12158241578E+03  0.27686055967E+02 -0.22312563428E+02  0.17802943035E+03  0.12509127093E+03 0.  0.
        -24    2    1    2    0    0 -0.94079053499E+02 -0.46391382046E+02  0.13644442909E+04  0.13707301198E+04  0.78675343434E+02 0.  0.
        -13    1    3    3    0    0 -0.22731113477E+01 -0.16743520290E+02 -0.21780593456E+03  0.21846038002E+03  0.00000000000E+00 0.  1.
         14    1    3    3    0    0 -0.25230250935E+02  0.35448846369E+02 -0.70875020642E+02  0.83165226039E+02  0.00000000000E+00 0. -1.
         11    1    5    5    0    0 -0.85419252170E+02 -0.51304565520E+02  0.13467167627E+04  0.13503979584E+04  0.00000000000E+00 0. -1.
        -12    1    5    5    0    0 -0.86598013297E+01  0.49131834737E+01  0.17727528242E+02  0.20332161432E+02  0.00000000000E+00 0.  1.
          5    1    4    4  501    0  0.36107550109E+02  0.22094161919E+01  0.50884394499E+02  0.62572603416E+02  0.41800000000E+01 0. -1.
         -5    1    4    4    0  501  0.85474865672E+02  0.25476639775E+02 -0.73196957926E+02  0.11545682693E+03  0.41800000000E+01 0. -1.
</event>
<event>
11    1  0.8039394E-009  0.1459621E+03  0.7561462E-02  0.1101078E+00
         22   -1    0    0    0    0  0.00000000000E+00  0.00000000000E+00  0.81504444473E+03  0.81504444473E+03  0.00000000000E+00 0. -1.
         22   -1    0    0    0    0 -0.00000000000E+00 -0.00000000000E+00 -0.53246049318E+03  0.53246049318E+03  0.00000000000E+00 0.  1.
         24    2    1    2    0    0 -0.41334046392E+02  0.48543337278E+02 -0.49562528274E+03  0.50568312705E+03  0.77498678084E+02 0.  0.
         25    2    1    2    0    0  0.81440082349E+01 -0.11078740917E+03  0.23887722169E+03  0.29163344863E+03  0.12509023308E+03 0.  0.
        -24    2    1    2    0    0  0.33190038157E+02  0.62244071896E+02  0.53933201259E+03  0.55018836224E+03  0.82778686999E+02 0.  0.
        -11    1    3    3    0    0 -0.51316947211E+02  0.14585955778E+02 -0.40317000366E+03  0.40668443667E+03  0.00000000000E+00 0.  1.
         12    1    3    3    0    0  0.99829008186E+01  0.33957381500E+02 -0.92455279074E+02  0.98998690374E+02  0.00000000000E+00 0. -1.
         11    1    5    5    0    0  0.27772039384E+02  0.82785738382E+02  0.44623932877E+03  0.45470243368E+03  0.00000000000E+00 0. -1.
        -12    1    5    5    0    0  0.54179987735E+01 -0.20541666486E+02  0.93092683822E+02  0.95485928565E+02  0.00000000000E+00 0.  1.
          5    1    4    4  501    0 -0.19403529928E+01 -0.51918382747E+02  0.22393980849E+03  0.22992562638E+03  0.41800000000E+01 0.  1.
         -5    1    4    4    0  501  0.10084361228E+02 -0.58869026427E+02  0.14937413203E+02  0.61707822252E+02  0.41800000000E+01 0.  1.
</event>
<event>
11    1  0.8039394E-009  0.1416377E+03  0.7561462E-02  0.1105743E+00
         22   -1    0    0    0    0  0.00000000000E+00  0.00000000000E+00  0.22538075368E+04  0.22538075368E+04  0.00000000000E+00 0.  1.
         22   -1    0    0    0    0 -0.00000000000E+00 -0.00000000000E+00 -0.10404660569E+04  0.10404660569E+04  0.00000000000E+00 0.  1.
         24    2    1    2    0    0  0.56028637494E+02  0.35944500098E+02 -0.10284779508E+04  0.10335997708E+04  0.78296715134E+02 0.  0.
         25    2    1    2    0    0 -0.43949703591E+02 -0.36463931896E+01  0.52177159832E+03  0.53836617884E+03  0.12509064344E+03 0.  0.
        -24    2    1    2    0    0 -0.12078933903E+02 -0.32298106908E+02  0.17200478324E+04  0.17223076442E+04  0.81178859139E+02 0.  0.
        -11    1    3    3    0    0  0.50691477466E+02  0.57547480620E+02 -0.65797899969E+03  0.66243316829E+03  0.00000000000E+00 0.  1.
         12    1    3    3    0    0  0.53371600280E+01 -0.21602980522E+02 -0.37049895109E+03  0.37116660249E+03  0.00000000000E+00 0. -1.
         13    1    5    5    0    0 -0.42462960637E+02 -0.31807053892E+02  0.13387334801E+04  0.13397843567E+04  0.00000000000E+00 0. -1.
        -14    1    5    5    0    0  0.30384026734E+02 -0.49105301591E+00  0.38131435225E+03  0.38252328746E+03  0.00000000000E+00 0.  1.
          5    1    4    4  501    0  0.10051250216E+02  0.26976943110E+02  0.40507702495E+03  0.40612024283E+03  0.41800000000E+01 0.  1.
         -5    1    4    4    0  501 -0.54000953807E+02 -0.30623336300E+02  0.11669457337E+03  0.13224593601E+03  0.41800000000E+01 0.  1.
</event>
<event>
11    1  0.8039394E-009  0.2090509E+03  0.7561462E-02  0.1048302E+00
         22   -1    0    0    0    0  0.00000000000E+00  0.00000000000E+00  0.83062534480E+02  0.83062534480E+02  0.00000000000E+00 0. -1.
         22   -1    0    0    0    0 -0.00000000000E+00 -0.00000000000E+00 -0.21834648859E+04  0.21834648859E+04  0.00000000000E+00 0.  1.
        -24    2    1    2    0    0 -0.34616076252E+00  0.15987609179E+03 -0.15477155835E+04  0.15590096229E+04  0.97606312133E+02 0.  0.
         25    2    1    2    0    0 -0.63174001916E+02 -0.20008165191E+03 -0.55571813661E+03  0.60703640623E+03  0.12508768600E+03 0.  0.
         24    2    1    2    0    0  0.63520162678E+02  0.40205560113E+02  0.30313687250E+01  0.10048139126E+03  0.66603473356E+02 0.  0.
        -11    1    5    5    0    0  0.32584784038E+02 -0.15044702042E+02  0.86293803793E+01  0.36913106291E+02  0.00000000000E+00 0.  1.
         12    1    5    5    0    0  0.30935378641E+02  0.55250262155E+02 -0.55980116543E+01  0.63568284972E+02  0.00000000000E+00 0. -1.
         13    1    3    3    0    0 -0.29135304627E+02  0.72692842696E+02 -0.39786523205E+03  0.40549951693E+03  0.00000000000E+00 0. -1.
        -14    1    3    3    0    0  0.28789143865E+02  0.87183249097E+02 -0.11498503515E+04  0.11535101060E+04  0.00000000000E+00 0.  1.
          5    1    4    4  501    0 -0.85727547675E+02 -0.16684872052E+03 -0.52109226244E+03  0.55384323264E+03  0.41800000000E+01 0. -1.
         -5    1    4    4    0  501  0.22553545759E+02 -0.33232931383E+02 -0.34625874168E+02  0.53193173589E+02  0.41800000000E+01 0. -1.
</event>
<event>
11    1  0.8039394E-009  0.1352225E+03  0.7561462E-02  0.1113014E+00
         22   -1    0    0    0    0  0.00000000000E+00  0.00000000000E+00  0.85517057786E+03  0.85517057786E+03  0.00000000000E+00 0. -1.
         22   -1    0    0    0    0 -0.00000000000E+00 -0.00000000000E+00 -0.16839876807E+04  0.16839876807E+04  0.00000000000E+00 0.  1.
         24    2    1    2    0    0  0.32700988226E+02  0.11150929467E+02 -0.83959858501E+03  0.84366560318E+03  0.75180903018E+02 0.  0.
         25    2    1    2    0    0 -0.22796406389E+02  0.39355605597E+02 -0.83423536030E+03  0.84478356776E+03  0.12506838183E+03 0.  0.
        -24    2    1    2    0    0 -0.99045818376E+01 -0.50506535063E+02  0.84501684244E+03  0.85070908766E+03  0.83686779062E+02 0.  0.
        -13    1    3    3    0    0  0.33236260094E+02  0.13057872750E+01 -0.82699491969E+03  0.82766354956E+03  0.00000000000E+00 0.  1.
         14    1    3    3    0    0 -0.53527186772E+00  0.98451421919E+01 -0.12603665317E+02  0.16002053623E+02  0.00000000000E+00 0. -1.
         11    1    5    5    0    0 -0.44539031765E+02 -0.12892679252E+02  0.45453707552E+03  0.45689593953E+03  0.00000000000E+00 0. -1.
        -12    1    5    5    0    0  0.34634449927E+02 -0.37613855811E+02  0.39047976692E+03  0.39381314813E+03  0.00000000000E+00 0.  1.
          5    1    4    4  501    0 -0.30238180660E+02  0.83071646708E+02 -0.56429130378E+03  0.57118945542E+03  0.41800000000E+01 0.  1.
         -5    1    4    4    0  501  0.74417742707E+01 -0.43716041111E+02 -0.26994405652E+03  0.27359411234E+03  0.41800000000E+01 0.  1.
</event>
<event>
11    1  0.8039394E-009  0.1282099E+03  0.7561462E-02  0.1121488E+00
         22   -1    0    0    0    0  0.00000000000E+00  0.00000000000E+00  0.89285170805E+03  0.89285170805E+03  0.00000000000E+00 0.  1.
         22   -1    0    0    0    0 -0.00000000000E+00 -0.00000000000E+00 -0.28318078930E+03  0.28318078930E+03  0.00000000000E+00 0. -1.
        -24    2    1    2    0    0  0.23182703098E+02  0.12589426971E+01 -0.25313099651E+03  0.26658547979E+03  0.80333641643E+02 0.  0.
         25    2    1    2    0    0 -0.21124163456E+02 -0.29210690210E+02  0.18467330648E+03  0.22594623442E+03  0.12509187030E+03 0.  0.
         24    2    1    2    0    0 -0.20585396423E+01  0.27951747513E+02  0.67812860877E+03  0.68350078315E+03  0.80804534219E+02 0.  0.
        -13    1    5    5    0    0 -0.83969359115E+01  0.56041121709E+02  0.43688685767E+03  0.44054652678E+03  0.00000000000E+00 0.  1.
         14    1    5    5    0    0  0.63383962692E+01 -0.28089374197E+02  0.24124175111E+03  0.24295425637E+03  0.00000000000E+00 0. -1.
         11    1    3    3    0    0  0.12121544013E+02 -0.82073402235E+00 -0.25490257031E+03  0.25519193910E+03  0.00000000000E+00 0. -1.
        -12    1    3    3    0    0  0.11061159086E+02  0.20796767195E+01  0.17715737990E+01  0.11393540683E+02  0.00000000000E+00 0.  1.
          5    1    4    4  501    0  0.44351340586E+02  0.10751080798E+02  0.34838016728E+02  0.57565501471E+02  0.41800000000E+01 0.  1.
         -5    1    4    4    0  501 -0.65475504042E+02 -0.39961771008E+02  0.14983528976E+03  0.16838073295E+03  0.41800000000E+01 0.  1.
</event>
<event>
11    1  0.8039394E-009  0.2369327E+03  0.7561462E-02  0.1031100E+00
         22   -1    0    0    0    0  0.00000000000E+00  0.00000000000E+00  0.37221546126E+02  0.37221546126E+02  0.00000000000E+00 0. -1.
         22   -1    0    0    0    0 -0.00000000000E+00 -0.00000000000E+00 -0.33836547976E+04  0.33836547976E+04  0.00000000000E+00 0. -1.
         24    2    1    2    0    0 -0.10275828276E+03 -0.16706677817E+03 -0.24561340004E+04  0.24652997200E+04  0.81473359008E+02 0.  0.
         25    2    1    2    0    0  0.11447643010E+03  0.19712480845E+03 -0.67836709513E+03  0.72649349326E+03  0.12509131401E+03 0.  0.
        -24    2    1    2    0    0 -0.11718147337E+02 -0.30058030279E+02 -0.21193215598E+03  0.22908313054E+03  0.80765350259E+02 0.  0.
        -11    1    3    3    0    0 -0.36704213133E+02 -0.85072663370E+02 -0.16059747841E+04  0.16086452575E+04  0.00000000000E+00 0.  1.
         12    1    3    3    0    0 -0.66054069631E+02 -0.81994114803E+02 -0.85015921626E+03  0.85665446241E+03  0.00000000000E+00 0. -1.
         11    1    5    5    0    0  0.13881374369E+02 -0.49468663808E+02 -0.97276787077E+02  0.11001188371E+03  0.00000000000E+00 0. -1.
        -12    1    5    5    0    0 -0.25599521706E+02  0.19410633529E+02 -0.11465536890E+03  0.11907124684E+03  0.00000000000E+00 0.  1.
          5    1    4    4  501    0  0.11175579628E+03  0.19976536643E+03 -0.68225391267E+03  0.71964118377E+03  0.41800000000E+01 0.  1.
         -5    1    4    4    0  501  0.27206338193E+01 -0.26405579734E+01  0.38868175388E+01  0.68523094916E+01  0.41800000000E+01 0.  1.
</event>
<event>
11    1  0.8039394E-009  0.1352606E+03  0.7561462E-02  0.1112969E+00
         22   -1    0    0    0    0  0.00000000000E+00  0.00000000000E+00  0.76867210820E+03  0.76867210820E+03  0.00000000000E+00 0. -1.
         22   -1    0    0    0    0 -0.00000000000E+00 -0.00000000000E+00 -0.14796466798E+03  0.14796466798E+03  0.00000000000E+00 0.  1.
        -24    2    1    2    0    0 -0.77575353344E+01  0.13056789281E+02 -0.68821717668E+02  0.10864118929E+03  0.82679018414E+02 0.  0.
         25    2    1    2    0    0 -0.26612849679E+02  0.26421712275E+02  0.20768862476E+02  0.13223056804E+03  0.12508887571E+03 0.  0.
         24    2    1    2    0    0  0.34370385013E+02 -0.39478501556E+02  0.66876029541E+03  0.67576501886E+03  0.81719964237E+02 0.  0.
        -11    1    5    5    0    0 -0.17484675112E+02  0.50068813670E+01  0.49289492901E+02  0.52537956138E+02  0.00000000000E+00 0.  1.
         12    1    5    5    0    0  0.51855060125E+02 -0.44485382923E+02  0.61947080251E+03  0.62322706273E+03  0.00000000000E+00 0. -1.
         11    1    3    3    0    0  0.74954366884E+01  0.31868835001E+01  0.18096296050E+02  0.19844740571E+02  0.00000000000E+00 0. -1.
        -12    1    3    3    0    0 -0.15252972023E+02  0.98699057809E+01 -0.86918013718E+02  0.88796448715E+02  0.00000000000E+00 0.  1.
          5    1    4    4  501    0 -0.34261363339E+02  0.73968397566E+02  0.19267800617E+02  0.83868262155E+02  0.41800000000E+01 0.  1.
         -5    1    4    4    0  501  0.76485136604E+01 -0.47546685291E+02  0.15010618596E+01  0.48362305880E+02  0.41800000000E+01 0.  1.
</event>
<event>
11    1  0.8039394E-009  0.1370317E+03  0.7561462E-02  0.1110919E+00
         22   -1    0    0    0    0  0.00000000000E+00  0.00000000000E+00  0.11219818853E+04  0.11219818853E+04  0.00000000000E+00 0. -1.
         22   -1    0    0    0    0 -0.00000000000E+00 -0.00000000000E+00 -0.71750234283E+03  0.71750234283E+03  0.00000000000E+00 0. -1.
         24    2    1    2    0    0  0.20678740042E+02 -0.51994771799E+02 -0.69767288214E+03  0.70455287139E+03  0.80723178420E+02 0.  0.
         25    2    1    2    0    0  0.31570415761E+01  0.60348576929E+02  0.32717241193E+03  0.35544540196E+03  0.12509088295E+03 0.  0.
        -24    2    1    2    0    0 -0.23835781618E+02 -0.83538051299E+01  0.77498001267E+03  0.77948595478E+03  0.79789743150E+02 0.  0.
        -11    1    3    3    0    0  0.44156090881E+02 -0.38509491094E+01 -0.28724435904E+03  0.29064396084E+03  0.00000000000E+00 0.  1.
         12    1    3    3    0    0 -0.23477350839E+02 -0.48143822689E+02 -0.41042852309E+03  0.41390891055E+03  0.00000000000E+00 0. -1.
         13    1    5    5    0    0 -0.15089886014E+02  0.10019198529E+02  0.72875908945E+03  0.72898415583E+03  0.00000000000E+00 0. -1.
        -14    1    5    5    0    0 -0.87458956038E+01 -0.18373003658E+02  0.46220923218E+02  0.50501798943E+02  0.00000000000E+00 0.  1.
          5    1    4    4  501    0 -0.54538302476E+02  0.19967242579E+02  0.83727316367E+02  0.10198457295E+03  0.41800000000E+01 0.  1.
         -5    1    4    4    0  501  0.57695344052E+02  0.40381334349E+02  0.24344509557E+03  0.25346082901E+03  0.41800000000E+01 0.  1.
</event>
<event>
11    1  0.8039394E-009  0.1597005E+03  0.7561462E-02  0.1087359E+00
         22   -1    0    0    0    0  0.00000000000E+00  0.00000000000E+00  0.28974082333E+04  0.28974082333E+04  0.00000000000E+00 0.  1.
         22   -1    0    0    0    0 -0.00000000000E+00 -0.00000000000E+00 -0.48965647115E+02  0.48965647115E+02  0.00000000000E+00 0. -1.
         24    2    1    2    0    0  0.96077618414E+02 -0.21982627797E+02  0.82336328676E+02  0.15150079240E+03  0.80368366870E+02 0.  0.
         25    2    1    2    0    0 -0.90995250445E+02  0.56213838643E+02  0.48640061152E+03  0.51349063463E+03  0.12508775203E+03 0.  0.
        -24    2    1    2    0    0 -0.50823679687E+01 -0.34231210846E+02  0.22797056460E+04  0.22813824534E+04  0.80314755786E+02 0.  0.
        -11    1    3    3    0    0  0.24111038988E+02  0.19697493188E+02 -0.42747713156E+01  0.31426216902E+02  0.00000000000E+00 0.  1.
         12    1    3    3    0    0  0.71966579426E+02 -0.41680120985E+02  0.86611099992E+02  0.12007457550E+03  0.00000000000E+00 0. -1.
         11    1    5    5    0    0 -0.50691943616E+01 -0.21619640727E+02  0.14956556320E+03  0.15120503726E+03  0.00000000000E+00 0. -1.
        -12    1    5    5    0    0 -0.13173607096E-01 -0.12611570119E+02  0.21301400828E+04  0.21301774162E+04  0.00000000000E+00 0.  1.
          5    1    4    4  501    0 -0.89590211394E+02  0.46243020513E+02  0.17582161313E+03  0.20272033683E+03  0.41800000000E+01 0. -1.
         -5    1    4    4    0  501 -0.14050390515E+01  0.99708181303E+01  0.31057899839E+03  0.31077029780E+03  0.41800000000E+01 0. -1.
</event>
<event>
11    1  0.8039394E-009  0.1481705E+03  0.7561462E-02  0.1098763E+00
         22   -1    0    0    0    0  0.00000000000E+00  0.00000000000E+00  0.50704545012E+03  0.50704545012E+03  0.00000000000E+00 0.  1.
         22   -1    0    0    0    0 -0.00000000000E+00 -0.00000000000E+00 -0.88091142612E+03  0.88091142612E+03  0.00000000000E+00 0.  1.
         24    2    1    2    0    0 -0.82006779113E+01 -0.28984060644E+02 -0.48913784909E+03  0.49632373480E+03  0.78575361486E+02 0.  0.
         25    2    1    2    0    0  0.81225749251E+02 -0.23731929831E+01 -0.36706608282E+03  0.39621901319E+03  0.12509493543E+03 0.  0.
        -24    2    1    2    0    0 -0.73025071340E+02  0.31357253627E+02  0.48233795591E+03  0.49541412824E+03  0.80432060454E+02 0.  0.
        -13    1    3    3    0    0 -0.16260678138E+02 -0.61217035114E+01 -0.44967090090E+03  0.45000644887E+03  0.00000000000E+00 0.  1.
         14    1    3    3    0    0  0.80600002265E+01 -0.22862357132E+02 -0.39466948181E+02  0.46317285931E+02  0.00000000000E+00 0. -1.
         11    1    5    5    0    0  0.86626175803E+01 -0.12312344161E+02  0.13857792144E+03  0.13939323898E+03  0.00000000000E+00 0. -1.
        -12    1    5    5    0    0 -0.81687688920E+02  0.43669597788E+02  0.34376003448E+03  0.35602088927E+03  0.00000000000E+00 0.  1.
          5    1    4    4  501    0 -0.21130474404E+02 -0.29785027731E+02 -0.15263607847E+03  0.15699964865E+03  0.41800000000E+01 0.  1.
         -5    1    4    4    0  501  0.10235622366E+03  0.27411834748E+02 -0.21443000435E+03  0.23921936454E+03  0.41800000000E+01 0.  1.
</event>
<event>
11    1  0.8039394E-009  0.1651219E+03  0.7561462E-02  0.1082357E+00
         22   -1    0    0    0    0  0.00000000000E+00  0.00000000000E+00  0.30097937787E+03  0.30097937787E+03  0.00000000000E+00 0. -1.
         22   -1    0    0    0    0 -0.00000000000E+00 -0.00000000000E+00 -0.88062311046E+03  0.88062311046E+03  0.00000000000E+00 0.  1.
         24    2    1    2    0    0 -0.99548229096E+02 -0.40116900789E+02 -0.81470879147E+03  0.82580335690E+03  0.81740771483E+02 0.  0.
         25    2    1    2    0    0  0.10906166879E+03  0.50403462204E+02  0.10176530847E+03  0.20109900153E+03  0.12509865630E+03 0.  0.
        -24    2    1    2    0    0 -0.95134396924E+01 -0.10286561415E+02  0.13329975042E+03  0.15470012990E+03  0.77246280483E+02 0.  0.
        -11    1    3    3    0    0 -0.79232978278E+02  0.40962733102E+01 -0.36817755343E+03  0.37662893563E+03  0.00000000000E+00 0.  1.
         12    1    3    3    0    0 -0.20315250818E+02 -0.44213174099E+02 -0.44653123804E+03  0.44917442127E+03  0.00000000000E+00 0. -1.
         13    1    5    5    0    0 -0.11869438051E+02  0.48990850680E+01  0.13802633667E+03  0.13862234383E+03  0.00000000000E+00 0. -1.
        -14    1    5    5    0    0  0.23559983581E+01 -0.15185646483E+02 -0.47265862497E+01  0.16077786071E+02  0.00000000000E+00 0.  1.
          5    1    4    4  501    0  0.26709732129E+02  0.22010052148E+02 -0.28025894732E+02  0.44730027515E+02  0.41800000000E+01 0.  1.
         -5    1    4    4    0  501  0.82351936659E+02  0.28393410055E+02  0.12979120320E+03  0.15636897401E+03  0.41800000000E+01 0.  1.
</event>
<event>
11    1  0.8039394E-009  0.1416069E+03  0.7561462E-02  0.1105777E+00
         22   -1    0    0    0    0  0.00000000000E+00  0.00000000000E+00  0.99955596241E+03  0.99955596241E+03  0.00000000000E+00 0. -1.
         22   -1    0    0    0    0 -0.00000000000E+00 -0.00000000000E+00 -0.14762436536E+04  0.14762436536E+04  0.00000000000E+00 0. -1.
        -24    2    1    2    0    0  0.54645960406E+01  0.28750603876E+02 -0.14197573793E+04  0.14223436715E+04  0.80585636756E+02 0.  0.
         25    2    1    2    0    0 -0.30190753804E+02 -0.88629279358E+02  0.64944378726E+02  0.16920845899E+03  0.12508836673E+03 0.  0.
         24    2    1    2    0    0  0.24726157763E+02  0.59878675482E+02  0.87812530937E+03  0.88424748550E+03  0.81195554084E+02 0.  0.
        -11    1    5    5    0    0  0.54324118401E+02  0.33656508464E+02  0.50279259884E+03  0.50683751622E+03  0.00000000000E+00 0.  1.
         12    1    5    5    0    0 -0.29597960637E+02  0.26222167017E+02  0.37533271053E+03  0.37740996927E+03  0.00000000000E+00 0. -1.
         13    1    3    3    0    0 -0.12169755987E+02  0.11771573397E+02 -0.12999838960E+04  0.13000941515E+04  0.00000000000E+00 0. -1.
        -14    1    3    3    0    0  0.17634352028E+02  0.16979030479E+02 -0.11977348322E+03  0.12224951996E+03  0.00000000000E+00 0.  1.
          5    1    4    4  501    0 -0.40037696698E+02 -0.88170026686E+02  0.95962853015E+02  0.13639395999E+03  0.41800000000E+01 0.  1.
         -5    1    4    4    0  501  0.98469428936E+01 -0.45925267204E+00 -0.31018474289E+02  0.32814498999E+02  0.41800000000E+01 0.  1.
</event>
<event>
11    1  0.8039394E-009  0.1407584E+03  0.7561462E-02  0.1106714E+00
         22   -1    0    0    0    0  0.00000000000E+00  0.00000000000E+00  0.92619534903E+03  0.92619534903E+03  0.00000000000E+00 0. -1.
         22   -1    0    0    0    0 -0.00000000000E+00 -0.00000000000E+00 -0.98012172943E+03  0.98012172943E+03  0.00000000000E+00 0.  1.
         24    2    1    2    0    0 -0.28516041315E+02 -0.58036026738E+02 -0.96024082612E+03  0.96599342615E+03  0.83063290343E+02 0.  0.
         25    2    1    2    0    0  0.68775590142E+01  0.52511624070E+02  0.31003462607E+03  0.33848822704E+03  0.12509212205E+03 0.  0.
        -24    2    1    2    0    0  0.21638482301E+02  0.55244026680E+01  0.59627981965E+03  0.60183542528E+03  0.78469821302E+02 0.  0.
        -11    1    3    3    0    0  0.16197432418E+02 -0.13979559269E+02 -0.59595493315E+03  0.59633888624E+03  0.00000000000E+00 0.  1.
         12    1    3    3    0    0 -0.44713473733E+02 -0.44056467469E+02 -0.36428589297E+03  0.36965453991E+03  0.00000000000E+00 0. -1.
         11    1    5    5    0    0  0.26256664887E+02 -0.14433837295E+01  0.59173793960E+03  0.59232194368E+03  0.00000000000E+00 0. -1.
        -12    1    5    5    0    0 -0.46181825861E+01  0.69677863975E+01  0.45418800553E+01  0.95134815981E+01  0.00000000000E+00 0.  1.
          5    1    4    4  501    0 -0.42640364041E+02  0.54083477295E+02  0.92817915925E+02  0.11565405777E+03  0.41800000000E+01 0.  1.
         -5    1    4    4    0  501  0.49517923056E+02 -0.15718532253E+01  0.21721671015E+03  0.22283416927E+03  0.41800000000E+01 0.  1.
</event>
<event>
11    1  0.8039394E-009  0.1965203E+03  0.7561462E-02  0.1057012E+00
         22   -1    0    0    0    0  0.00000000000E+00  0.00000000000E+00  0.17368188497E+03  0.17368188497E+03  0.00000000000E+00 0. -1.
         22   -1    0    0    0    0 -0.00000000000E+00 -0.00000000000E+00 -0.10076475050E+04  0.10076475050E+04  0.00000000000E+00 0. -1.
        -24    2    1    2    0    0  0.80943277230E+02 -0.12713667095E+03 -0.81416436558E+03  0.83186550493E+03  0.80131497396E+02 0.  0.
         25    2    1    2    0    0 -0.11579263309E+03  0.11245581510E+03 -0.10247559913E+03  0.22848056507E+03  0.12509147040E+03 0.  0.
         24    2    1    2    0    0  0.34849355856E+02  0.14680855853E+02  0.82674344723E+02  0.12098331994E+03  0.79824252558E+02 0.  0.
        -13    1    5    5    0    0 -0.23507898345E+00 -0.23575801984E+02  0.25321938194E+00  0.23578333728E+02  0.00000000000E+00 0.  1.
         14    1    5    5    0    0  0.35084434840E+02  0.38256657837E+02  0.82421125341E+02  0.97404986214E+02  0.00000000000E+00 0. -1.
         11    1    3    3    0    0  0.69144159503E+02 -0.13756254549E+03 -0.76101069763E+03  0.77642878013E+03  0.00000000000E+00 0. -1.
        -12    1    3    3    0    0  0.11799117727E+02  0.10425874536E+02 -0.53153667956E+02  0.55436724796E+02  0.00000000000E+00 0.  1.
          5    1    4    4  501    0 -0.22051279955E+02  0.66855156396E+02 -0.10217831652E+03  0.12415213108E+03  0.41800000000E+01 0.  1.
         -5    1    4    4    0  501 -0.93741353131E+02  0.45600658705E+02 -0.29728261371E+00  0.10432843399E+03  0.41800000000E+01 0.  1.
</event>
<event>
11    1  0.8039394E-009  0.2168817E+03  0.7561462E-02  0.1043189E+00
         22   -1    0    0    0    0  0.00000000000E+00  0.00000000000E+00  0.58867979604E+03  0.58867979604E+03  0.00000000000E+00 0. -1.
         22   -1    0    0    0    0 -0.00000000000E+00 -0.00000000000E+00 -0.10194282203E+04  0.10194282203E+04  0.00000000000E+00 0.  1.
         24    2    1    2    0    0 -0.23550939981E+02 -0.26524506799E+01 -0.88727837428E+03  0.89118840272E+03  0.79951068912E+02 0.  0.
         25    2    1    2    0    0 -0.90647762533E+01  0.17702715245E+03 -0.37087513682E+01  0.21698386927E+03  0.12508981499E+03 0.  0.
        -24    2    1    2    0    0  0.32615716234E+02 -0.17437470177E+03  0.46023870142E+03  0.49993574431E+03  0.81521559052E+02 0.  0.
        -13    1    3    3    0    0 -0.23354446166E+02  0.31286301959E+02 -0.68256927315E+03  0.68368492414E+03  0.00000000000E+00 0.  1.
         14    1    3    3    0    0 -0.19649381460E+00 -0.33938752639E+02 -0.20470910113E+03  0.20750347859E+03  0.00000000000E+00 0. -1.
         13    1    5    5    0    0  0.21789488334E+02 -0.17625206182E+03  0.45353042033E+03  0.48706202198E+03  0.00000000000E+00 0. -1.
        -14    1    5    5    0    0  0.10826227900E+02  0.18773600467E+01  0.67082810916E+01  0.12873722324E+02  0.00000000000E+00 0.  1.
          5    1    4    4  501    0 -0.59002074745E+02  0.14184006437E+03 -0.16068583927E+02  0.15451705561E+03  0.41800000000E+01 0.  1.
         -5    1    4    4    0  501  0.49937298492E+02  0.35187088087E+02  0.12359832559E+02  0.62466813666E+02  0.41800000000E+01 0.  1.
</event>
<event>
11    1  0.8039394E-009  0.1640630E+03  0.7561462E-02  0.1083317E+00
         22   -1    0    0    0    0  0.00000000000E+00  0.00000000000E+00  0.12021771862E+04  0.12021771862E+04  0.00000000000E+00 0. -1.
         22   -1    0    0    0    0 -0.00000000000E+00 -0.00000000000E+00 -0.33999252132E+03  0.33999252132E+03  0.00000000000E+00 0.  1.
         24    2    1    2    0    0  0.98815415341E+02  0.38421863796E+02 -0.30492947896E+03  0.33277772032E+03  0.80735977588E+02 0.  0.
         25    2    1    2    0    0 -0.11366914103E+03 -0.10322986806E+02  0.36174689509E+03  0.39941873628E+03  0.12508906069E+03 0.  0.
        -24    2    1    2    0    0  0.14853725689E+02 -0.28098876989E+02  0.80536724874E+03  0.80997325091E+03  0.80187790742E+02 0.  0.
        -13    1    3    3    0    0  0.89778785797E+02  0.60101902882E+02 -0.22724852380E+03  0.25162345018E+03  0.00000000000E+00 0.  1.
         14    1    3    3    0    0  0.90366295437E+01 -0.21680039087E+02 -0.77680955158E+02  0.81154270144E+02  0.00000000000E+00 0. -1.
         13    1    5    5    0    0  0.13858382303E+02  0.25669036776E+02  0.39869474481E+03  0.39976049548E+03  0.00000000000E+00 0. -1.
        -14    1    5    5    0    0  0.99534338601E+00 -0.53767913765E+02  0.40667250393E+03  0.41021275543E+03  0.00000000000E+00 0.  1.
          5    1    4    4  501    0 -0.86589986135E+02 -0.37977888742E+02  0.34372947516E+03  0.35652148634E+03  0.41800000000E+01 0.  1.
         -5    1    4    4    0  501 -0.27079154894E+02  0.27654901936E+02  0.18017419928E+02  0.42897249932E+02  0.41800000000E+01 0.  1.
</event>
<event>
11    1  0.8039394E-009  0.1392164E+03  0.7561462E-02  0.1108437E+00
         22   -1    0    0    0    0  0.00000000000E+00  0.00000000000E+00  0.10887869761E+04  0.10887869761E+04  0.00000000000E+00 0. -1.
         22   -1    0    0    0    0 -0.00000000000E+00 -0.00000000000E+00 -0.14573296990E+03  0.14573296990E+03  0.00000000000E+00 0.  1.
        -24    2    1    2    0    0 -0.33341778356E+02 -0.69724883740E+01 -0.86475313111E+02  0.12577073371E+03  0.84734927284E+02 0.  0.
         25    2    1    2    0    0 -0.22329168552E+02  0.36214371436E+02  0.81316876730E+02  0.15514198211E+03  0.12508608118E+03 0.  0.
         24    2    1    2    0    0  0.55670946908E+02 -0.29241883062E+02  0.94821244257E+03  0.95360723017E+03  0.79407626378E+02 0.  0.
        -13    1    5    5    0    0  0.75279728491E+01  0.34456648232E+01  0.77316719902E+01  0.11327918302E+02  0.00000000000E+00 0.  1.
         14    1    5    5    0    0  0.48142974059E+02 -0.32687547885E+02  0.94048077058E+03  0.94227931186E+03  0.00000000000E+00 0. -1.
         11    1    3    3    0    0 -0.33990608194E+02 -0.33574522165E+02 -0.15912006291E+02  0.50356746601E+02  0.00000000000E+00 0. -1.
        -12    1    3    3    0    0  0.64882983850E+00  0.26602033791E+02 -0.70563306820E+02  0.75413987107E+02  0.00000000000E+00 0.  1.
          5    1    4    4  501    0 -0.18412526611E+02  0.82679917095E+02  0.58748275313E+02  0.10316890074E+03  0.41800000000E+01 0.  1.
         -5    1    4    4    0  501 -0.39166419408E+01 -0.46465545659E+02  0.22568601417E+02  0.51973081373E+02  0.41800000000E+01 0.  1.
</event>
<event>
11    1  0.8039394E-009  0.1458545E+03  0.7561462E-02  0.1101192E+00
         22   -1    0    0    0    0  0.00000000000E+00  0.00000000000E+00  0.99937879863E+02  0.99937879863E+02  0.00000000000E+00 0. -1.
         22   -1    0    0    0    0 -0.00000000000E+00 -0.00000000000E+00 -0.23135131795E+04  0.23135131795E+04  0.00000000000E+00 0. -1.
         24    2    1    2    0    0  0.21317741864E+02 -0.46199000395E+01 -0.19077527165E+04  0.19095640812E+04  0.80241906352E+02 0.  0.
         25    2    1    2    0    0 -0.92963349324E+02 -0.10420323537E+02 -0.35208478132E+03  0.38518050377E+03  0.12509820057E+03 0.  0.
        -24    2    1    2    0    0  0.71645607460E+02  0.15040223576E+02  0.46262198149E+02  0.11870647437E+03  0.81189498618E+02 0.  0.
        -13    1    3    3    0    0 -0.22550046239E+02  0.77456262754E+01 -0.23841283198E+03  0.23960212387E+03  0.00000000000E+00 0.  1.
         14    1    3    3    0    0  0.43867788102E+02 -0.12365526315E+02 -0.16693398845E+04  0.16699619573E+04  0.00000000000E+00 0. -1.
         11    1    5    5    0    0  0.26926800124E+02 -0.32518188254E+02  0.77886973228E+01  0.42931910489E+02  0.00000000000E+00 0. -1.
        -12    1    5    5    0    0  0.44718807336E+02  0.47558411830E+02  0.38473500826E+02  0.75774563880E+02  0.00000000000E+00 0.  1.
          5    1    4    4  501    0 -0.12317309240E+03 -0.17208225163E+02 -0.29335427738E+03  0.31865645790E+03  0.41800000000E+01 0. -1.
         -5    1    4    4    0  501  0.30209743078E+02  0.67879016264E+01 -0.58730503937E+02  0.66524045864E+02  0.41800000000E+01 0. -1.
</event>
<event>
11    1  0.8039394E-009  0.1563417E+03  0.7561462E-02  0.1090569E+00
         22   -1    0    0    0    0  0.00000000000E+00  0.00000000000E+00  0.73152664729E+03  0.73152664729E+03  0.00000000000E+00 0.  1.
         22   -1    0    0    0    0 -0.00000000000E+00 -0.00000000000E+00 -0.15720204360E+04  0.15720204360E+04  0.00000000000E+00 0. -1.
         24    2    1    2    0    0  0.93271125510E+02  0.92854947772E+01 -0.15083488289E+04  0.15133125617E+04  0.78822562021E+02 0.  0.
         25    2    1    2    0    0 -0.99050212947E+02  0.23686335970E+02  0.53413703996E+02  0.16991575646E+03  0.12508538412E+03 0.  0.
        -24    2    1    2    0    0  0.57790874373E+01 -0.32971830747E+02  0.61444133622E+03  0.62031876518E+03  0.78336934487E+02 0.  0.
        -11    1    3    3    0    0  0.25729292930E+02  0.22842560525E+02 -0.18502077962E+03  0.18819263529E+03  0.00000000000E+00 0.  1.
         12    1    3    3    0    0  0.67541832580E+02 -0.13557065748E+02 -0.13233280493E+04  0.13251199264E+04  0.00000000000E+00 0. -1.
         11    1    5    5    0    0 -0.34002436649E+02 -0.29678257011E+02  0.34366938776E+03  0.34662027165E+03  0.00000000000E+00 0. -1.
        -12    1    5    5    0    0  0.39781524086E+02 -0.32935737355E+01  0.27077194846E+03  0.27369849353E+03  0.00000000000E+00 0.  1.
          5    1    4    4  501    0  0.25819597897E+02  0.54220423081E+01  0.32268035976E+02  0.41889720984E+02  0.41800000000E+01 0.  1.
         -5    1    4    4    0  501 -0.12486981084E+03  0.18264293662E+02  0.21145668019E+02  0.12802603547E+03  0.41800000000E+01 0.  1.
</event>
<event>
11    1  0.8039394E-009  0.1498970E+03  0.7561462E-02  0.1096984E+00
         22   -1    0    0    0    0  0.00000000000E+00  0.00000000000E+00  0.34592725651E+03  0.34592725651E+03  0.00000000000E+00 0.  1.
         22   -1    0    0    0    0 -0.00000000000E+00 -0.00000000000E+00 -0.17422935605E+03  0.17422935605E+03  0.00000000000E+00 0. -1.
         24    2    1    2    0    0  0.22507408495E+02 -0.39509575388E+02 -0.25698046594E+02  0.98937282739E+02  0.84027414172E+02 0.  0.
         25    2    1    2    0    0 -0.10051283018E+03  0.16955045793E+02 -0.32505775980E+02  0.16457946297E+03  0.12505787281E+03 0.  0.
        -24    2    1    2    0    0  0.78005421681E+02  0.22554529595E+02  0.22990172303E+03  0.25663986686E+03  0.80097855102E+02 0.  0.
        -13    1    3    3    0    0  0.33202737516E+01  0.15833595775E+01  0.28233304638E+02  0.28471928915E+02  0.00000000000E+00 0.  1.
         14    1    3    3    0    0  0.19187134744E+02 -0.41092934965E+02 -0.53931351233E+02  0.70465353824E+02  0.00000000000E+00 0. -1.
         11    1    5    5    0    0 -0.12010848434E+02  0.20631788358E+02  0.53677546566E+02  0.58747001424E+02  0.00000000000E+00 0. -1.
        -12    1    5    5    0    0  0.90016270115E+02  0.19227412368E+01  0.17622417647E+03  0.19789286544E+03  0.00000000000E+00 0.  1.
          5    1    4    4  501    0 -0.31319135763E+01  0.52848523811E+02  0.67630026365E+01  0.53534904093E+02  0.41800000000E+01 0.  1.
         -5    1    4    4    0  501 -0.97380916599E+02 -0.35893478018E+02 -0.39268778616E+02  0.11104455888E+03  0.41800000000E+01 0.  1.
</event>
<event>
11    1  0.8039394E-009  0.1442850E+03  0.7561462E-02  0.1102866E+00
         22   -1    0    0    0    0  0.00000000000E+00  0.00000000000E+00  0.29935993773E+03  0.29935993773E+03  0.00000000000E+00 0. -1.
         22   -1    0    0    0    0 -0.00000000000E+00 -0.00000000000E+00 -0.36263236908E+03  0.36263236908E+03  0.00000000000E+00 0.  1.
        -24    2    1    2    0    0  0.57000740554E+02 -0.23238722050E+02 -0.17023925448E+03  0.19903585779E+03  0.82732981919E+02 0.  0.
         25    2    1    2    0    0 -0.82196143076E+02  0.58727529114E+02 -0.13135469998E+03  0.20762122944E+03  0.12508952431E+03 0.  0.
         24    2    1    2    0    0  0.25195402522E+02 -0.35488807064E+02  0.23832152310E+03  0.25533521958E+03  0.80651486328E+02 0.  0.
        -11    1    5    5    0    0 -0.13055609917E+02  0.19309938502E+02  0.83804394397E+02  0.86985626373E+02  0.00000000000E+00 0.  1.
         12    1    5    5    0    0  0.38251012439E+02 -0.54798745566E+02  0.15451712871E+03  0.16834959320E+03  0.00000000000E+00 0. -1.
         11    1    3    3    0    0  0.51932438068E+01  0.29326515137E+01  0.89081350210E+01  0.10720312294E+02  0.00000000000E+00 0. -1.
        -12    1    3    3    0    0  0.51807496748E+02 -0.26171373564E+02 -0.17914738950E+03  0.18831554550E+03  0.00000000000E+00 0.  1.
          5    1    4    4  501    0  0.29299110153E+02 -0.81496530737E+01 -0.24257439798E+02  0.39124806537E+02  0.41800000000E+01 0. -1.
         -5    1    4    4    0  501 -0.11149525323E+03  0.66877182188E+02 -0.10709726019E+03  0.16849642290E+03  0.41800000000E+01 0. -1.
</event>
<event>
11    1  0.8039394E-009  0.1560835E+03  0.7561462E-02  0.1090820E+00
         22   -1    0    0    0    0  0.00000000000E+00  0.00000000000E+00  0.87174019086E+02  0.87174019086E+02  0.00000000000E+00 0. -1.
         22   -1    0    0    0    0 -0.00000000000E+00 -0.00000000000E+00 -0.72365880676E+03  0.72365880676E+03  0.00000000000E+00 0. -1.
         24    2    1    2    0    0 -0.15279215992E+01 -0.41760852919E+02 -0.28302387148E+03  0.29618783505E+03  0.76670844691E+02 0.  0.
         25    2    1    2    0    0  0.59619571065E+02  0.10897579742E+03 -0.35417251361E+03  0.39562131251E+03  0.12509131001E+03 0.  0.
        -24    2    1    2    0    0 -0.58091649466E+02 -0.67214944498E+02  0.71159741577E+00  0.11902367828E+03  0.79206319941E+02 0.  0.
        -11    1    3    3    0    0 -0.15908393908E+01  0.22035220227E+02 -0.51575084443E+02  0.56107673591E+02  0.00000000000E+00 0.  1.
         12    1    3    3    0    0  0.62917791572E-01 -0.63796073146E+02 -0.23144878703E+03  0.24008016146E+03  0.00000000000E+00 0. -1.
         11    1    5    5    0    0 -0.54724373733E+02 -0.74084337574E+02 -0.22306775419E+02  0.94767285410E+02  0.00000000000E+00 0. -1.
        -12    1    5    5    0    0 -0.33672757329E+01  0.68693930762E+01  0.23018372835E+02  0.24256392870E+02  0.00000000000E+00 0.  1.
          5    1    4    4  501    0 -0.23909673590E+02  0.13064619395E+02 -0.16717266078E+03  0.16943000821E+03  0.41800000000E+01 0. -1.
         -5    1    4    4    0  501  0.83529244655E+02  0.95911178023E+02 -0.18699985283E+03  0.22619130430E+03  0.41800000000E+01 0. -1.
</event>
<event>
11    1  0.8039394E-009  0.1532747E+03  0.7561462E-02  0.1093579E+00
         22   -1    0    0    0    0  0.00000000000E+00  0.00000000000E+00  0.28649578344E+03  0.28649578344E+03  0.00000000000E+00 0. -1.
         22   -1    0    0    0    0 -0.00000000000E+00 -0.00000000000E+00 -0.13808951625E+04  0.13808951625E+04  0.00000000000E+00 0. -1.
         24    2    1    2    0    0 -0.51464472665E+01  0.41596250165E+02 -0.11294687930E+04  0.11333654713E+04  0.84028586351E+02 0.  0.
         25    2    1    2    0    0 -0.57281438332E+01  0.48701258054E+02 -0.21616921316E+03  0.25452160798E+03  0.12508995179E+03 0.  0.
        -24    2    1    2    0    0  0.10874591100E+02 -0.90297508218E+02  0.25123862710E+03  0.27950386664E+03  0.82034547583E+02 0.  0.
        -11    1    3    3    0    0 -0.18615021584E+02  0.15415315115E+02 -0.82117584393E+02  0.85600517728E+02  0.00000000000E+00 0.  1.
         12    1    3    3    0    0  0.13468574317E+02  0.26180935049E+02 -0.10473512086E+04  0.10477649536E+04  0.00000000000E+00 0. -1.
         11    1    5    5    0    0 -0.14332219513E+02 -0.87728189409E+02  0.22951905300E+03  0.24613135401E+03  0.00000000000E+00 0. -1.
        -12    1    5    5    0    0  0.25206810613E+02 -0.25693188093E+01  0.21719574091E+02  0.33372512628E+02  0.00000000000E+00 0.  1.
          5    1    4    4  501    0 -0.40848743178E+02  0.78185107320E+02 -0.14183079885E+03  0.16707776252E+03  0.41800000000E+01 0.  1.
         -5    1    4    4    0  501  0.35120599345E+02 -0.29483849266E+02 -0.74338414312E+02  0.87443845457E+02  0.41800000000E+01 0.  1.
</event>
<event>
11    1  0.8039394E-009  0.1335467E+03  0.7561462E-02  0.1114986E+00
         22   -1    0    0    0    0  0.00000000000E+00  0.00000000000E+00  0.45162019903E+03  0.45162019903E+03  0.00000000000E+00 0.  1.
         22   -1    0    0    0    0 -0.00000000000E+00 -0.00000000000E+00 -0.10168289611E+04  0.10168289611E+04  0.00000000000E+00 0. -1.
        -24    2    1    2    0    0  0.48750433347E+02 -0.12590067177E+02 -0.65364573928E+03  0.66040544161E+03  0.79671075634E+02 0.  0.
         25    2    1    2    0    0 -0.18923427197E+02  0.45337682066E+02 -0.34243699656E+03  0.36786859002E+03  0.12510236368E+03 0.  0.
         24    2    1    2    0    0 -0.29827006150E+02 -0.32747614889E+02  0.43087397379E+03  0.44017512848E+03  0.78356275248E+02 0.  0.
        -11    1    5    5    0    0  0.11005331568E+02 -0.11402205837E+02  0.31611790741E+03  0.31651486380E+03  0.00000000000E+00 0.  1.
         12    1    5    5    0    0 -0.40832337718E+02 -0.21345409051E+02  0.11475606638E+03  0.12366026468E+03  0.00000000000E+00 0. -1.
         13    1    3    3    0    0  0.55251582166E+02 -0.14608944139E+02 -0.65032486262E+03  0.65283120753E+03  0.00000000000E+00 0. -1.
        -14    1    3    3    0    0 -0.65011488193E+01  0.20188769622E+01 -0.33208766534E+01  0.75742340805E+01  0.00000000000E+00 0.  1.
          5    1    4    4  501    0  0.40343997578E+01  0.27101544669E+02 -0.33653004555E+03  0.33766953381E+03  0.41800000000E+01 0. -1.
         -5    1    4    4    0  501 -0.22957826955E+02  0.18236137397E+02 -0.59069510067E+01  0.30199056208E+02  0.41800000000E+01 0. -1.
</event>
<event>
11    1  0.8039394E-009  0.1336758E+03  0.7561462E-02  0.1114833E+00
         22   -1    0    0    0    0  0.00000000000E+00  0.00000000000E+00  0.21527981357E+04  0.21527981357E+04  0.00000000000E+00 0.  1.
         22   -1    0    0    0    0 -0.00000000000E+00 -0.00000000000E+00 -0.21100578362E+03  0.21100578362E+03  0.00000000000E+00 0.  1.
         24    2    1    2    0    0  0.20614326628E+02  0.14557103868E+02 -0.17647948398E+03  0.19554283531E+03  0.80343838832E+02 0.  0.
         25    2    1    2    0    0 -0.14821583851E+02  0.32948487106E+02  0.15355477614E+03  0.20133013058E+03  0.12509784192E+03 0.  0.
        -24    2    1    2    0    0 -0.57927427772E+01 -0.47505590975E+02  0.19647170599E+04  0.19669309534E+04  0.80086909174E+02 0.  0.
        -13    1    3    3    0    0 -0.13076246679E+01  0.45915709969E+02 -0.98304551338E+02  0.10850689894E+03  0.00000000000E+00 0.  1.
         14    1    3    3    0    0  0.21921951296E+02 -0.31358606101E+02 -0.78174932641E+02  0.87035936364E+02  0.00000000000E+00 0. -1.
         11    1    5    5    0    0 -0.21446563116E+01 -0.42421787072E+02  0.40870208942E+03  0.41090340163E+03  0.00000000000E+00 0. -1.
        -12    1    5    5    0    0 -0.36480864656E+01 -0.50838039027E+01  0.15560149705E+04  0.15560275518E+04  0.00000000000E+00 0.  1.
          5    1    4    4  501    0 -0.37243817980E+02 -0.38115698839E+02  0.82347111823E+02  0.98175494403E+02  0.41800000000E+01 0. -1.
         -5    1    4    4    0  501  0.22422234129E+02  0.71064185945E+02  0.71207664318E+02  0.10315463618E+03  0.41800000000E+01 0. -1.
</event>
<event>
11    1  0.8039394E-009  0.1835964E+03  0.7561462E-02  0.1066770E+00
         22   -1    0    0    0    0  0.00000000000E+00  0.00000000000E+00  0.12907739246E+04  0.12907739246E+04  0.00000000000E+00 0.  1.
         22   -1    0    0    0    0 -0.00000000000E+00 -0.00000000000E+00 -0.51640562965E+03  0.51640562965E+03  0.00000000000E+00 0.  1.
         24    2    1    2    0    0  0.74526595498E+02  0.11740883406E+03 -0.35270089666E+03  0.38748983427E+03  0.80071227116E+02 0.  0.
         25    2    1    2    0    0 -0.75441660191E+02 -0.94465992163E+02 -0.92638661653E+02  0.19709083372E+03  0.12509039666E+03 0.  0.
        -24    2    1    2    0    0  0.91506469329E+00 -0.22942841899E+02  0.12197078533E+04  0.12225988863E+04  0.80830551250E+02 0.  0.
        -11    1    3    3    0    0  0.88081697621E+02  0.10953174216E+03 -0.28218569484E+03  0.31525284197E+03  0.00000000000E+00 0.  1.
         12    1    3    3    0    0 -0.13555102123E+02  0.78770919017E+01 -0.70515201812E+02  0.72236992303E+02  0.00000000000E+00 0. -1.
         13    1    5    5    0    0 -0.25887533100E+02  0.12384216468E+02  0.21421185112E+03  0.21612554303E+03  0.00000000000E+00 0. -1.
        -14    1    5    5    0    0  0.26802597793E+02 -0.35327058367E+02  0.10054960022E+04  0.10064733432E+04  0.00000000000E+00 0.  1.
          5    1    4    4  501    0  0.85045518977E+01 -0.83947885548E+02 -0.69192486701E+02  0.10920003437E+03  0.41800000000E+01 0. -1.
         -5    1    4    4    0  501 -0.83946212089E+02 -0.10518106615E+02 -0.23446174952E+02  0.87890799352E+02  0.41800000000E+01 0. -1.
</event>
<event>
11    1  0.8039394E-009  0.1476952E+03  0.7561462E-02  0.1099257E+00
         22   -1    0    0    0    0  0.00000000000E+00  0.00000000000E+00  0.13460690072E+04  0.13460690072E+04  0.00000000000E+00 0.  1.
         22   -1    0    0    0    0 -0.00000000000E+00 -0.00000000000E+00 -0.17689933434E+03  0.17689933434E+03  0.00000000000E+00 0.  1.
        -24    2    1    2    0    0  0.39259805759E+02 -0.32249228633E+02 -0.62603389297E+02  0.11473469857E+03  0.81630396356E+02 0.  0.
         25    2    1    2    0    0 -0.86169553223E+02  0.93362174994E+02  0.72854346001E+01  0.17844282981E+03  0.12508828215E+03 0.  0.
         24    2    1    2    0    0  0.46909747464E+02 -0.61112946361E+02  0.12244876276E+04  0.12297908132E+04  0.84143790404E+02 0.  0.
        -13    1    5    5    0    0  0.56996545879E+02 -0.75756540138E+02  0.10934819070E+04  0.10975838649E+04  0.00000000000E+00 0.  1.
         14    1    5    5    0    0 -0.10086798415E+02  0.14643593777E+02  0.13100572055E+03  0.13220694822E+03  0.00000000000E+00 0. -1.
         13    1    3    3    0    0 -0.12920848834E+02 -0.84182806208E+01  0.12764748060E+02  0.20018855517E+02  0.00000000000E+00 0. -1.
        -14    1    3    3    0    0  0.52180654593E+02 -0.23830948012E+02 -0.75368137357E+02  0.94715843055E+02  0.00000000000E+00 0.  1.
          5    1    4    4  501    0  0.30049256363E+01 -0.14363612209E+02  0.32847369471E+02  0.36218296687E+02  0.41800000000E+01 0.  1.
         -5    1    4    4    0  501 -0.89174478860E+02  0.10772578720E+03 -0.25561934870E+02  0.14222453313E+03  0.41800000000E+01 0.  1.
</event>
<event>
11    1  0.8039394E-009  0.1824812E+03  0.7561462E-02  0.1067653E+00
         22   -1    0    0    0    0  0.00000000000E+00  0.00000000000E+00  0.17041530127E+04  0.17041530127E+04  0.00000000000E+00 0. -1.
         22   -1    0    0    0    0 -0.00000000000E+00 -0.00000000000E+00 -0.89509807396E+03  0.89509807396E+03  0.00000000000E+00 0.  1.
        -24    2    1    2    0    0  0.99078606377E+02  0.90903753038E+02 -0.79673947070E+03  0.81200021377E+03  0.80439420874E+02 0.  0.
         25    2    1    2    0    0 -0.43613245584E+02 -0.11978860390E+03  0.31694302629E+00  0.17859943967E+03  0.12508490949E+03 0.  0.
         24    2    1    2    0    0 -0.55465360793E+02  0.28884850863E+02  0.16054774664E+04  0.16086514332E+04  0.79314548498E+02 0.  0.
        -11    1    5    5    0    0 -0.13486972623E+02  0.10559786746E+02  0.57516688627E+02  0.60013140204E+02  0.00000000000E+00 0.  1.
         12    1    5    5    0    0 -0.41978388170E+02  0.18325064118E+02  0.15479607777E+04  0.15486382930E+04  0.00000000000E+00 0. -1.
         13    1    3    3    0    0  0.60954842533E+02  0.45640106247E+01 -0.36302479430E+03  0.36813492676E+03  0.00000000000E+00 0. -1.
        -14    1    3    3    0    0  0.38123763844E+02  0.86339742413E+02 -0.43371467640E+03  0.44386528701E+03  0.00000000000E+00 0.  1.
          5    1    4    4  501    0  0.76330785862E+01 -0.12053629984E+03  0.21923536760E+02  0.12282254407E+03  0.41800000000E+01 0. -1.
         -5    1    4    4    0  501 -0.51246324170E+02  0.74769593514E+00 -0.21606593734E+02  0.55776895602E+02  0.41800000000E+01 0. -1.
</event>
<event>
11    1  0.8039394E-009  0.1647476E+03  0.7561462E-02  0.1082695E+00
         22   -1    0    0    0    0  0.00000000000E+00  0.00000000000E+00  0.40792341009E+03  0.40792341009E+03  0.00000000000E+00 0. -1.
         22   -1    0    0    0    0 -0.00000000000E+00 -0.00000000000E+00 -0.10143796056E+04  0.10143796056E+04  0.00000000000E+00 0.  1.
         24    2    1    2    0    0 -0.10294083487E+03 -0.27964676703E+02 -0.89772716339E+03  0.90762578755E+03  0.80570911077E+02 0.  0.
         25    2    1    2    0    0  0.10801484142E+03  0.39532681923E+02 -0.38847924164E+02  0.17431634146E+03  0.12508791621E+03 0.  0.
        -24    2    1    2    0    0 -0.50740065503E+01 -0.11568005220E+02  0.33011889207E+03  0.34036088665E+03  0.81899242784E+02 0.  0.
        -11    1    3    3    0    0 -0.82076570509E+02 -0.11396931456E+02 -0.83965350116E+03  0.84373245492E+03  0.00000000000E+00 0.  1.
         12    1    3    3    0    0 -0.20864264364E+02 -0.16567745247E+02 -0.58073662227E+02  0.63893332629E+02  0.00000000000E+00 0. -1.
         13    1    5    5    0    0  0.18513992360E+02 -0.31469450720E+02  0.27306178320E+03  0.27549198116E+03  0.00000000000E+00 0. -1.
        -14    1    5    5    0    0 -0.23587998911E+02  0.19901445500E+02  0.57057108876E+02  0.64868905485E+02  0.00000000000E+00 0.  1.
          5    1    4    4  501    0  0.73333244654E+02 -0.86461977172E+01 -0.74472511755E+02  0.10495784351E+03  0.41800000000E+01 0.  1.
         -5    1    4    4    0  501  0.34681596769E+02  0.48178879640E+02  0.35624587592E+02  0.69358497958E+02  0.41800000000E+01 0.  1.
</event>
<event>
11    1  0.8039394E-009  0.1276175E+03  0.7561462E-02  0.1122231E+00
         22   -1    0    0    0    0  0.00000000000E+00  0.00000000000E+00  0.44081675701E+03  0.44081675701E+03  0.00000000000E+00 0. -1.
         22   -1    0    0    0    0 -0.00000000000E+00 -0.00000000000E+00 -0.39326358729E+03  0.39326358729E+03  0.00000000000E+00 0. -1.
         24    2    1    2    0    0  0.52327418919E+01 -0.24983424154E+02 -0.36203570507E+03  0.37195849602E+03  0.81435360551E+02 0.  0.
         25    2    1    2    0    0  0.87624758585E+01  0.15470687129E+02  0.20179617260E+03  0.23808837639E+03  0.12509299162E+03 0.  0.
        -24    2    1    2    0    0 -0.13995217750E+02  0.95127370244E+01  0.20779270218E+03  0.22403347189E+03  0.82017261351E+02 0.  0.
        -13    1    3    3    0    0 -0.11841991103E+02 -0.23782441374E+02 -0.32494122695E+02  0.41972673024E+02  0.00000000000E+00 0.  1.
         14    1    3    3    0    0  0.17074732995E+02 -0.12009827794E+01 -0.32954158237E+03  0.32998582300E+03  0.00000000000E+00 0. -1.
         13    1    5    5    0    0  0.10628405295E+01 -0.26962611790E+02  0.15903445863E+03  0.16130738079E+03  0.00000000000E+00 0. -1.
        -14    1    5    5    0    0 -0.15058058280E+02  0.36475348814E+02  0.48758243552E+02  0.62726091099E+02  0.00000000000E+00 0.  1.
          5    1    4    4  501    0  0.19470258741E+02 -0.36360196464E+02  0.15311065972E+02  0.44193393211E+02  0.41800000000E+01 0. -1.
         -5    1    4    4    0  501 -0.10707782883E+02  0.51830883593E+02  0.18648510663E+03  0.19389498318E+03  0.41800000000E+01 0. -1.
</event>
<event>
11    1  0.8039394E-009  0.1299881E+03  0.7561462E-02  0.1119284E+00
         22   -1    0    0    0    0  0.00000000000E+00  0.00000000000E+00  0.62470445155E+03  0.62470445155E+03  0.00000000000E+00 0. -1.
         22   -1    0    0    0    0 -0.00000000000E+00 -0.00000000000E+00 -0.11311353936E+04  0.11311353936E+04  0.00000000000E+00 0. -1.
         24    2    1    2    0    0  0.30357394097E+02 -0.17438231683E+02 -0.10862084541E+04  0.10897989313E+04  0.81161823645E+02 0.  0.
         25    2    1    2    0    0 -0.38088642752E+02  0.36767242840E+02  0.76347558486E+02  0.15583728869E+03  0.12511489123E+03 0.  0.
        -24    2    1    2    0    0  0.77312486553E+01 -0.19329011157E+02  0.50342995355E+03  0.51020362517E+03  0.80203728868E+02 0.  0.
        -11    1    3    3    0    0 -0.11990743896E+02  0.19616549712E+02 -0.13631793950E+03  0.13824314663E+03  0.00000000000E+00 0.  1.
         12    1    3    3    0    0  0.42348137993E+02 -0.37054781395E+02 -0.94989051458E+03  0.95155578465E+03  0.00000000000E+00 0. -1.
         13    1    5    5    0    0 -0.77338843962E+01  0.53911266404E+01  0.44306166868E+03  0.44316195625E+03  0.00000000000E+00 0. -1.
        -14    1    5    5    0    0  0.15465133051E+02 -0.24720137797E+02  0.60368284873E+02  0.67041668920E+02  0.00000000000E+00 0.  1.
          5    1    4    4  501    0 -0.34209777543E+02  0.47537427334E+02 -0.17447691615E+02  0.61253654746E+02  0.41800000000E+01 0.  1.
         -5    1    4    4    0  501 -0.38788652090E+01 -0.10770184494E+02  0.93795250101E+02  0.94583633948E+02  0.41800000000E+01 0.  1.
</event>
<event>
11    1  0.8039394E-009  0.1327168E+03  0.7561462E-02  0.1115975E+00
         22   -1    0    0    0    0  0.00000000000E+00  0.00000000000E+00  0.13182881414E+03  0.13182881414E+03  0.00000000000E+00 0.  1.
         22   -1    0    0    0    0 -0.00000000000E+00 -0.00000000000E+00 -0.77750469993E+03  0.77750469993E+03  0.00000000000E+00 0. -1.
        -24    2    1    2    0    0  0.30763626654E+02  0.19210340713E+02 -0.60177458159E+03  0.60816915826E+03  0.80135136517E+02 0.  0.
         25    2    1    2    0    0 -0.39254215637E+02  0.25810021123E+02 -0.12109702480E+03  0.18032750728E+03  0.12508584985E+03 0.  0.
         24    2    1    2    0    0  0.84905889832E+01 -0.45020361836E+02  0.77195720593E+02  0.12083684853E+03  0.80891542222E+02 0.  0.
        -13    1    5    5    0    0  0.40513109040E+02 -0.45422241766E+02  0.48259390690E+02  0.77675355429E+02  0.00000000000E+00 0.  1.
         14    1    5    5    0    0 -0.32022520057E+02  0.40187993005E+00  0.28936329903E+02  0.43161493099E+02  0.00000000000E+00 0. -1.
         11    1    3    3    0    0  0.57589310908E+02  0.91403845552E+01 -0.35820274028E+03  0.36291772967E+03  0.00000000000E+00 0. -1.
        -12    1    3    3    0    0 -0.26825684253E+02  0.10069956158E+02 -0.24357184130E+03  0.24525142860E+03  0.00000000000E+00 0.  1.
          5    1    4    4  501    0  0.24430128069E+02 -0.16522038905E+01  0.13925694244E+02  0.28477329498E+02  0.41800000000E+01 0. -1.
         -5    1    4    4    0  501 -0.63684343706E+02  0.27462225014E+02 -0.13502271904E+03  0.15185017778E+03  0.41800000000E+01 0. -1.
</event>
<event>
11    1  0.8039394E-009  0.2900863E+03  0.7561462E-02  0.1004476E+00
         22   -1    0    0    0    0  0.00000000000E+00  0.00000000000E+00  0.91172241166E+03  0.91172241166E+03  0.00000000000E+00 0. -1.
         22   -1    0    0    0    0 -0.00000000000E+00 -0.00000000000E+00 -0.63609448365E+03  0.63609448365E+03  0.00000000000E+00 0. -1.
         24    2    1    2    0    0 -0.15394116473E+03  0.46886540256E+02 -0.40667396068E+03  0.44461751502E+03  0.80029960098E+02 0.  0.
         25    2    1    2    0    0 -0.12605687650E+03 -0.46145746903E+02 -0.14005981453E+03  0.23081418866E+03  0.12505467593E+03 0.  0.
        -24    2    1    2    0    0  0.27999804122E+03 -0.74079335306E+00  0.82236170323E+03  0.87238519162E+03  0.79860501858E+02 0.  0.
        -11    1    3    3    0    0 -0.17805307581E+02  0.33105039429E+02 -0.49676044530E+02  0.62295120305E+02  0.00000000000E+00 0.  1.
         12    1    3    3    0    0 -0.13613585714E+03  0.13781500827E+02 -0.35699791615E+03  0.38232239472E+03  0.00000000000E+00 0. -1.
         11    1    5    5    0    0  0.23756042832E+03 -0.14355056199E+02  0.75493428834E+03  0.79155972892E+03  0.00000000000E+00 0. -1.
        -12    1    5    5    0    0  0.42437612900E+02  0.13614262846E+02  0.67427414895E+02  0.80825462701E+02  0.00000000000E+00 0.  1.
          5    1    4    4  501    0 -0.36301887435E+02  0.40342309437E+02 -0.20844834320E+02  0.58286434784E+02  0.41800000000E+01 0.  1.
         -5    1    4    4    0  501 -0.89754989064E+02 -0.86488056339E+02 -0.11921498021E+03  0.17252775388E+03  0.41800000000E+01 0.  1.
</event>
<event>
11    1  0.8039394E-009  0.1350779E+03  0.7561462E-02  0.1113183E+00
         22   -1    0    0    0    0  0.00000000000E+00  0.00000000000E+00  0.10419533622E+04  0.10419533622E+04  0.00000000000E+00 0.  1.
         22   -1    0    0    0    0 -0.00000000000E+00 -0.00000000000E+00 -0.17096722603E+04  0.17096722603E+04  0.00000000000E+00 0.  1.
         24    2    1    2    0    0  0.22305293618E+02  0.45591256245E+02 -0.16470843842E+04  0.16497765410E+04  0.79369880652E+02 0.  0.
         25    2    1    2    0    0  0.28600276737E+01 -0.74084817164E+02  0.30381722729E+02  0.14855154254E+03  0.12509105413E+03 0.  0.
        -24    2    1    2    0    0 -0.25165321292E+02  0.28493560918E+02  0.94898376334E+03  0.95329753895E+03  0.82224316820E+02 0.  0.
        -13    1    3    3    0    0  0.39795400079E+02  0.14854713147E+02 -0.13382512963E+04  0.13389252662E+04  0.00000000000E+00 0.  1.
         14    1    3    3    0    0 -0.17490106462E+02  0.30736543099E+02 -0.30883308788E+03  0.31085127485E+03  0.00000000000E+00 0. -1.
         13    1    5    5    0    0  0.25320634929E+02 -0.27679590536E+01  0.15335740959E+03  0.15545832634E+03  0.00000000000E+00 0. -1.
        -14    1    5    5    0    0 -0.50485956220E+02  0.31261519972E+02  0.79562635375E+03  0.79783921262E+03  0.00000000000E+00 0.  1.
          5    1    4    4  501    0  0.48618300705E+02  0.97949580436E+01  0.10381726619E+02  0.50842236518E+02  0.41800000000E+01 0.  1.
         -5    1    4    4    0  501 -0.45758273032E+02 -0.83879775207E+02  0.19999996110E+02  0.97709306026E+02  0.41800000000E+01 0.  1.
</event>
<event>
11    1  0.8039394E-009  0.3555567E+03  0.7561462E-02  0.9790834E-01
         22   -1    0    0    0    0  0.00000000000E+00  0.00000000000E+00  0.10271016064E+04  0.10271016064E+04  0.00000000000E+00 0. -1.
         22   -1    0    0    0    0 -0.00000000000E+00 -0.00000000000E+00 -0.24251098087E+03  0.24251098087E+03  0.00000000000E+00 0. -1.
        -24    2    1    2    0    0  0.70767708198E+02 -0.15792173768E+03 -0.10648566181E+02  0.19136745428E+03  0.80998560741E+02 0.  0.
         25    2    1    2    0    0 -0.24487481798E+03 -0.17011388790E+03  0.22720663675E+03  0.39518721186E+03  0.12509062834E+03 0.  0.
         24    2    1    2    0    0  0.17410710978E+03  0.32803562558E+03  0.56803255495E+03  0.68305792112E+03  0.77372364519E+02 0.  0.
        -13    1    5    5    0    0  0.62302214175E+02  0.51495061991E+02  0.13116290054E+03  0.15406821145E+03  0.00000000000E+00 0.  1.
         14    1    5    5    0    0  0.11180489560E+03  0.27654056359E+03  0.43686965441E+03  0.52898970967E+03  0.00000000000E+00 0. -1.
         13    1    3    3    0    0  0.78566782772E+02 -0.13063735066E+03  0.14918758835E+02  0.15317123133E+03  0.00000000000E+00 0. -1.
        -14    1    3    3    0    0 -0.77990745743E+01 -0.27284387012E+02 -0.25567325016E+02  0.38196222946E+02  0.00000000000E+00 0.  1.
          5    1    4    4  501    0 -0.98511353205E+02 -0.55092960850E+02  0.16744608232E+02  0.11418220242E+03  0.41800000000E+01 0. -1.
         -5    1    4    4    0  501 -0.14636346477E+03 -0.11502092705E+03  0.21046202852E+03  0.28100500944E+03  0.41800000000E+01 0. -1.
</event>
<event>
11    1  0.8039394E-009  0.1472616E+03  0.7561462E-02  0.1099710E+00
         22   -1    0    0    0    0  0.00000000000E+00  0.00000000000E+00  0.43836721798E+03  0.43836721798E+03  0.00000000000E+00 0. -1.
         22   -1    0    0    0    0 -0.00000000000E+00 -0.00000000000E+00 -0.13776043965E+03  0.13776043965E+03  0.00000000000E+00 0.  1.
         24    2    1    2    0    0 -0.11925500265E+02  0.21604325543E+02 -0.35121646857E+02  0.91666138611E+02  0.80994977937E+02 0.  0.
         25    2    1    2    0    0 -0.62459723839E+02  0.88845016057E+01  0.13017840080E+02  0.14070575773E+03  0.12509394320E+03 0.  0.
        -24    2    1    2    0    0  0.74385224105E+02 -0.30488827149E+02  0.32271058510E+03  0.34375576129E+03  0.86966496619E+02 0.  0.
        -11    1    3    3    0    0 -0.45821518851E+01 -0.34902048628E+01 -0.57172750827E+02  0.57462170887E+02  0.00000000000E+00 0.  1.
         12    1    3    3    0    0 -0.73433483802E+01  0.25094530406E+02  0.22051103970E+02  0.34203967723E+02  0.00000000000E+00 0. -1.
         11    1    5    5    0    0  0.41737826598E+02 -0.87896916122E+01  0.28877087814E+03  0.29190396522E+03  0.00000000000E+00 0. -1.
        -12    1    5    5    0    0  0.32647397507E+02 -0.21699135537E+02  0.33939706967E+02  0.51851796073E+02  0.00000000000E+00 0.  1.
          5    1    4    4  501    0  0.21404274692E+02 -0.21511383678E+02 -0.28848566783E+02  0.42078436381E+02  0.41800000000E+01 0. -1.
         -5    1    4    4    0  501 -0.83863998531E+02  0.30395885284E+02  0.41866406863E+02  0.98627321344E+02  0.41800000000E+01 0. -1.
</event>
<event>
11    1  0.8039394E-009  0.1329548E+03  0.7561462E-02  0.1115691E+00
         22   -1    0    0    0    0  0.00000000000E+00  0.00000000000E+00  0.12581285345E+03  0.12581285345E+03  0.00000000000E+00 0. -1.
         22   -1    0    0    0    0 -0.00000000000E+00 -0.00000000000E+00 -0.63957549608E+03  0.63957549608E+03  0.00000000000E+00 0. -1.
        -24    2    1    2    0    0  0.54832662523E+01  0.28143861946E+02 -0.47830848197E+03  0.48635862519E+03  0.83328057680E+02 0.  0.
         25    2    1    2    0    0  0.30953442626E+02 -0.51224220712E+02 -0.94721856641E+02  0.16792950557E+03  0.12508418093E+03 0.  0.
         24    2    1    2    0    0 -0.36436708879E+02  0.23080358765E+02  0.59267695986E+02  0.11110021877E+03  0.83488095612E+02 0.  0.
        -11    1    5    5    0    0 -0.31381123266E+02  0.56326994544E+01 -0.14574898908E+02  0.35056096171E+02  0.00000000000E+00 0.  1.
         12    1    5    5    0    0 -0.50555856124E+01  0.17447659311E+02  0.73842594894E+02  0.76044122600E+02  0.00000000000E+00 0. -1.
         11    1    3    3    0    0 -0.25409845426E+02  0.55296519677E+01 -0.37953360808E+03  0.38042344428E+03  0.00000000000E+00 0. -1.
        -12    1    3    3    0    0  0.30893111679E+02  0.22614209979E+02 -0.98774873891E+02  0.10593518091E+03  0.00000000000E+00 0.  1.
          5    1    4    4  501    0  0.70808419508E+01 -0.18354295353E+02  0.30322038085E+02  0.36385668529E+02  0.41800000000E+01 0. -1.
         -5    1    4    4    0  501  0.23872600676E+02 -0.32869925359E+02 -0.12504389473E+03  0.13154383705E+03  0.41800000000E+01 0. -1.
</event>
<event>
11    1  0.8039394E-009  0.1701023E+03  0.7561462E-02  0.1077943E+00
         22   -1    0    0    0    0  0.00000000000E+00  0.00000000000E+00  0.24361436316E+04  0.24361436316E+04  0.00000000000E+00 0.  1.
         22   -1    0    0    0    0 -0.00000000000E+00 -0.00000000000E+00 -0.12838611515E+03  0.12838611515E+03  0.00000000000E+00 0. -1.
         24    2    1    2    0    0  0.68126378299E+02  0.88818475810E+02 -0.64946687451E+02  0.15578366626E+03  0.86721124289E+02 0.  0.
         25    2    1    2    0    0 -0.16097019785E+03 -0.95365678375E+02  0.79697221571E+03  0.82814254909E+03  0.12509736925E+03 0.  0.
        -24    2    1    2    0    0  0.92843819556E+02  0.65472025641E+01  0.15757319882E+04  0.15806035314E+04  0.81935243735E+02 0.  0.
        -13    1    3    3    0    0 -0.11405031034E+02  0.10247196672E+02  0.12499257553E+02  0.19781587699E+02  0.00000000000E+00 0.  1.
         14    1    3    3    0    0  0.79531409333E+02  0.78571279139E+02 -0.77445945004E+02  0.13600207856E+03  0.00000000000E+00 0. -1.
         11    1    5    5    0    0  0.16069845761E+01  0.26811198020E+02  0.21603380727E+03  0.21769710293E+03  0.00000000000E+00 0. -1.
        -12    1    5    5    0    0  0.91236834980E+02 -0.20263995456E+02  0.13596981809E+04  0.13629064284E+04  0.00000000000E+00 0.  1.
          5    1    4    4  501    0 -0.16501634261E+03 -0.11384796972E+03  0.65947996429E+03  0.68929170112E+03  0.41800000000E+01 0.  1.
         -5    1    4    4    0  501  0.40461447561E+01  0.18482291349E+02  0.13749225142E+03  0.13885084797E+03  0.41800000000E+01 0.  1.
</event>
<event>
11    1  0.8039394E-009  0.1377949E+03  0.7561462E-02  0.1110046E+00
         22   -1    0    0    0    0  0.00000000000E+00  0.00000000000E+00  0.42865566568E+03  0.42865566568E+03  0.00000000000E+00 0.  1.
         22   -1    0    0    0    0 -0.00000000000E+00 -0.00000000000E+00 -0.76681958349E+03  0.76681958349E+03  0.00000000000E+00 0.  1.
        -24    2    1    2    0    0  0.56863518637E+02  0.15668342331E+02 -0.71546877513E+03  0.72233297160E+03  0.79939958509E+02 0.  0.
         25    2    1    2    0    0 -0.15447663000E+02 -0.28450945348E+02  0.59138492165E+02  0.14210564935E+03  0.12509423544E+03 0.  0.
         24    2    1    2    0    0 -0.41415855637E+02  0.12782603017E+02  0.31816636516E+03  0.33103662822E+03  0.80478228521E+02 0.  0.
        -13    1    5    5    0    0 -0.34303870614E+02 -0.74225787551E+01  0.30242372573E+03  0.30445354341E+03  0.00000000000E+00 0.  1.
         14    1    5    5    0    0 -0.71119850229E+01  0.20205181772E+02  0.15742639428E+02  0.26583084801E+02  0.00000000000E+00 0. -1.
         11    1    3    3    0    0 -0.14537123623E+02  0.16764867907E+02 -0.85603632186E+02  0.88432859292E+02  0.00000000000E+00 0. -1.
        -12    1    3    3    0    0  0.71400642260E+02 -0.10965255757E+01 -0.62986514295E+03  0.63390011231E+03  0.00000000000E+00 0.  1.
          5    1    4    4  501    0  0.42831916782E+02  0.20592842007E+02  0.37929402427E+01  0.47859137401E+02  0.41800000000E+01 0.  1.
         -5    1    4    4    0  501 -0.58279579782E+02 -0.49043787355E+02  0.55345551923E+02  0.94246511953E+02  0.41800000000E+01 0.  1.
</event>
<event>
11    1  0.8039394E-009  0.1632871E+03  0.7561462E-02  0.1084026E+00
         22   -1    0    0    0    0  0.00000000000E+00  0.00000000000E+00  0.38608284634E+03  0.38608284634E+03  0.00000000000E+00 0.  1.
         22   -1    0    0    0    0 -0.00000000000E+00 -0.00000000000E+00 -0.48282189295E+03  0.48282189295E+03  0.00000000000E+00 0.  1.
         24    2    1    2    0    0 -0.24204529908E+02 -0.34724815228E+02 -0.20439146412E+03  0.22247648738E+03  0.76995095770E+02 0.  0.
         25    2    1    2    0    0  0.71867467035E+02 -0.59824788842E+02 -0.23300063720E+03  0.28050025871E+03  0.12508860869E+03 0.  0.
        -24    2    1    2    0    0 -0.47662937127E+02  0.94549604070E+02  0.34065305470E+03  0.36592799319E+03  0.81531646121E+02 0.  0.
        -13    1    3    3    0    0 -0.43377058610E+02  0.64957770466E+00 -0.71541151368E+02  0.83666764632E+02  0.00000000000E+00 0.  1.
         14    1    3    3    0    0  0.19172528702E+02 -0.35374392933E+02 -0.13285031275E+03  0.13880972275E+03  0.00000000000E+00 0. -1.
         11    1    5    5    0    0 -0.12064134536E+01 -0.14180128107E+02  0.23773069985E+02  0.27707225106E+02  0.00000000000E+00 0. -1.
        -12    1    5    5    0    0 -0.46456523674E+02  0.10872973218E+03  0.31687998472E+03  0.33822076809E+03  0.00000000000E+00 0.  1.
          5    1    4    4  501    0 -0.31644105411E+02 -0.36513480308E+02 -0.55905459080E+02  0.74009975047E+02  0.41800000000E+01 0.  1.
         -5    1    4    4    0  501  0.10351157245E+03 -0.23311308535E+02 -0.17709517812E+03  0.20649028366E+03  0.41800000000E+01 0.  1.
</event>
<event>
11    1  0.8039394E-009  0.2961384E+03  0.7561462E-02  0.1001839E+00
         22   -1    0    0    0    0  0.00000000000E+00  0.00000000000E+00  0.10848096532E+04  0.10848096532E+04  0.00000000000E+00 0.  1.
         22   -1    0    0    0    0 -0.00000000000E+00 -0.00000000000E+00 -0.15798813350E+03  0.15798813350E+03  0.00000000000E+00 0.  1.
        -24    2    1    2    0    0  0.57577000348E+02 -0.18707939605E+03  0.31213477491E+03  0.37836515679E+03  0.86129337450E+02 0.  0.
         25    2    1    2    0    0 -0.28902801002E+03  0.15807531049E+03  0.28309613857E+03  0.45201072284E+03  0.12508107581E+03 0.  0.
         24    2    1    2    0    0  0.23145100967E+03  0.29004085559E+02  0.33159060625E+03  0.41242190711E+03  0.75688126214E+02 0.  0.
        -11    1    5    5    0    0  0.23687106008E+03  0.26972625634E+02  0.31637190304E+03  0.39613962522E+03  0.00000000000E+00 0.  1.
         12    1    5    5    0    0 -0.54200504117E+01  0.20314599244E+01  0.15218703211E+02  0.16282281883E+02  0.00000000000E+00 0. -1.
         13    1    3    3    0    0 -0.17605268197E+02 -0.94485262040E+01  0.19795602564E+02  0.28126251023E+02  0.00000000000E+00 0. -1.
        -14    1    3    3    0    0  0.75182268544E+02 -0.17763086985E+03  0.29233917234E+03  0.35023890577E+03  0.00000000000E+00 0.  1.
          5    1    4    4  501    0 -0.23180688126E+02 -0.12789913372E+02  0.58311562337E+02  0.64176607017E+02  0.41800000000E+01 0. -1.
         -5    1    4    4    0  501 -0.26584732189E+03  0.17086522387E+03  0.22478457624E+03  0.38783411582E+03  0.41800000000E+01 0. -1.
</event>
<event>
11    1  0.8039394E-009  0.2120554E+03  0.7561462E-02  0.1046312E+00
         22   -1    0    0    0    0  0.00000000000E+00  0.00000000000E+00  0.88102780438E+03  0.88102780438E+03  0.00000000000E+00 0.  1.
         22   -1    0    0    0    0 -0.00000000000E+00 -0.00000000000E+00 -0.24183315029E+03  0.24183315029E+03  0.00000000000E+00 0. -1.
         24    2    1    2    0    0 -0.34906147416E+02  0.16810235185E+03 -0.17418759420E+03  0.25728180690E+03  0.79848421191E+02 0.  0.
         25    2    1    2    0    0  0.28607681396E+01 -0.16748830411E+03  0.56482705265E+03  0.60227787304E+03  0.12509404838E+03 0.  0.
        -24    2    1    2    0    0  0.32045379277E+02 -0.61404773725E+00  0.24855519564E+03  0.26330127472E+03  0.80750186408E+02 0.  0.
        -13    1    3    3    0    0 -0.23224266232E+02  0.34044917106E+02 -0.56249796821E+01  0.41594029850E+02  0.00000000000E+00 0.  1.
         14    1    3    3    0    0 -0.11681881184E+02  0.13405743474E+03 -0.16856261451E+03  0.21568777705E+03  0.00000000000E+00 0. -1.
         13    1    5    5    0    0  0.26012613132E+01 -0.70059872576E+01  0.22482323448E+03  0.22494740981E+03  0.00000000000E+00 0. -1.
        -14    1    5    5    0    0  0.29444117964E+02  0.63919395204E+01  0.23731961158E+02  0.38353864915E+02  0.00000000000E+00 0.  1.
          5    1    4    4  501    0  0.47286562810E+02 -0.26097149540E+02  0.92153198125E+02  0.10689604558E+03  0.41800000000E+01 0.  1.
         -5    1    4    4    0  501 -0.44425794671E+02 -0.14139115457E+03  0.47267385453E+03  0.49538182746E+03  0.41800000000E+01 0.  1.
</event>
<event>
11    1  0.8039394E-009  0.1574559E+03  0.7561462E-02  0.1089495E+00
         22   -1    0    0    0    0  0.00000000000E+00  0.00000000000E+00  0.15537596330E+04  0.15537596330E+04  0.00000000000E+00 0. -1.
         22   -1    0    0    0    0 -0.00000000000E+00 -0.00000000000E+00 -0.31772638752E+03  0.31772638752E+03  0.00000000000E+00 0. -1.
         24    2    1    2    0    0  0.19516752023E+02 -0.12398942949E+02 -0.25139419383E+03  0.26420290021E+03  0.77906959852E+02 0.  0.
         25    2    1    2    0    0 -0.10499131909E+03  0.53052230145E+02  0.71121464695E+02  0.18585803508E+03  0.12508888942E+03 0.  0.
        -24    2    1    2    0    0  0.85474567070E+02 -0.40653287197E+02  0.14163059746E+04  0.14214250852E+04  0.74619486479E+02 0.  0.
        -11    1    3    3    0    0  0.22613657264E+02 -0.86272769803E+01 -0.16579436494E+02  0.29337435427E+02  0.00000000000E+00 0.  1.
         12    1    3    3    0    0 -0.30969052406E+01 -0.37716659682E+01 -0.23481475734E+03  0.23486546479E+03  0.00000000000E+00 0. -1.
         13    1    5    5    0    0  0.67860256327E+01 -0.29404133363E+02  0.71356897497E+03  0.71420678746E+03  0.00000000000E+00 0. -1.
        -14    1    5    5    0    0  0.78688541437E+02 -0.11249153834E+02  0.70273699960E+03  0.70721829771E+03  0.00000000000E+00 0.  1.
          5    1    4    4  501    0 -0.51103601813E+01 -0.36676144635E+02  0.12667089395E+02  0.39359661079E+02  0.41800000000E+01 0.  1.
         -5    1    4    4    0  501 -0.99880958912E+02  0.89728374781E+02  0.58454375300E+02  0.14649837400E+03  0.41800000000E+01 0.  1.
</event>
<event>
11    1  0.8039394E-009  0.1513900E+03  0.7561462E-02  0.1095467E+00
         22   -1    0    0    0    0  0.00000000000E+00  0.00000000000E+00  0.29838440835E+03  0.29838440835E+03  0.00000000000E+00 0. -1.
         22   -1    0    0    0    0 -0.00000000000E+00 -0.00000000000E+00 -0.21232159307E+04  0.21232159307E+04  0.00000000000E+00 0. -1.
         24    2    1    2    0    0 -0.23906728079E+02 -0.26909765390E+02 -0.20601732385E+04  0.20621717317E+04  0.83323532475E+02 0.  0.
         25    2    1    2    0    0  0.92473286590E+01  0.10125447015E+03  0.13745033463E+03  0.21184435317E+03  0.12508978641E+03 0.  0.
        -24    2    1    2    0    0  0.14659399420E+02 -0.74344704762E+02  0.97891381522E+02  0.14758425423E+03  0.80351455506E+02 0.  0.
        -13    1    3    3    0    0  0.10810323606E+02  0.33686713004E+01 -0.42795384475E+02  0.44268001707E+02  0.00000000000E+00 0.  1.
         14    1    3    3    0    0 -0.34717051684E+02 -0.30278436691E+02 -0.20173778541E+04  0.20179037300E+04  0.00000000000E+00 0. -1.
         11    1    5    5    0    0  0.32992253226E+02 -0.75614488065E+02  0.99364496181E+02  0.12914852953E+03  0.00000000000E+00 0. -1.
        -12    1    5    5    0    0 -0.18332853807E+02  0.12697833027E+01 -0.14731146588E+01  0.18435724698E+02  0.00000000000E+00 0.  1.
          5    1    4    4  501    0 -0.14009878713E+02  0.12607905644E+03  0.10877116513E+03  0.16715514930E+03  0.41800000000E+01 0. -1.
         -5    1    4    4    0  501  0.23257207372E+02 -0.24824586285E+02  0.28679169500E+02  0.44689203866E+02  0.41800000000E+01 0. -1.
</event>
<event>
11    1  0.8039394E-009  0.1545027E+03  0.7561462E-02  0.1092365E+00
         22   -1    0    0    0    0  0.00000000000E+00  0.00000000000E+00  0.97862725086E+03  0.97862725086E+03  0.00000000000E+00 0. -1.
         22   -1    0    0    0    0 -0.00000000000E+00 -0.00000000000E+00 -0.13803630114E+04  0.13803630114E+04  0.00000000000E+00 0. -1.
         24    2    1    2    0    0 -0.80437858243E+02 -0.41795847100E+02 -0.13606744529E+04  0.13660429065E+04  0.80131852044E+02 0.  0.
         25    2    1    2    0    0  0.77225989182E+02  0.60676824506E+02  0.45214912723E+03  0.47930389472E+03  0.12509140578E+03 0.  0.
        -24    2    1    2    0    0  0.32118690606E+01 -0.18880977406E+02  0.50678956515E+03  0.51364346103E+03  0.81407212888E+02 0.  0.
        -13    1    3    3    0    0 -0.29564261873E+01 -0.39677584468E+02 -0.31561742571E+03  0.31811540450E+03  0.00000000000E+00 0.  1.
         14    1    3    3    0    0 -0.77481432055E+02 -0.21182626314E+01 -0.10450570272E+04  0.10479275020E+04  0.00000000000E+00 0. -1.
         13    1    5    5    0    0  0.17775561150E+02 -0.20020550669E+02  0.49243713131E+03  0.49316439583E+03  0.00000000000E+00 0. -1.
        -14    1    5    5    0    0 -0.14563692090E+02  0.11395732636E+01  0.14352433837E+02  0.20479065202E+02  0.00000000000E+00 0.  1.
          5    1    4    4  501    0 -0.17720998183E+02  0.45051652800E+02  0.25847337732E+03  0.26300122505E+03  0.41800000000E+01 0. -1.
         -5    1    4    4    0  501  0.94946987365E+02  0.15625171706E+02  0.19367574991E+03  0.21630266967E+03  0.41800000000E+01 0. -1.
</event>
<event>
11    1  0.8039394E-009  0.1335037E+03  0.7561462E-02  0.1115037E+00
         22   -1    0    0    0    0  0.00000000000E+00  0.00000000000E+00  0.76453217090E+03  0.76453217090E+03  0.00000000000E+00 0. -1.
         22   -1    0    0    0    0 -0.00000000000E+00 -0.00000000000E+00 -0.25758655666E+03  0.25758655666E+03  0.00000000000E+00 0.  1.
        -24    2    1    2    0    0 -0.33259421175E+02 -0.74929655307E+01 -0.22302227966E+03  0.23820719732E+03  0.76429038996E+02 0.  0.
         25    2    1    2    0    0  0.19773683174E+02  0.52221812965E+02  0.18233770275E+03  0.22806452277E+03  0.12509305500E+03 0.  0.
         24    2    1    2    0    0  0.13485738001E+02 -0.44728847434E+02  0.54763019115E+03  0.55584700747E+03  0.82973095233E+02 0.  0.
        -11    1    5    5    0    0  0.21422341522E+02  0.10772177080E+02  0.54522119283E+02  0.59561883839E+02  0.00000000000E+00 0.  1.
         12    1    5    5    0    0 -0.79366035215E+01 -0.55501024514E+02  0.49310807187E+03  0.49628512363E+03  0.00000000000E+00 0. -1.
         11    1    3    3    0    0 -0.11813062504E+02  0.30033132287E+01  0.16230980700E+01  0.12296454099E+02  0.00000000000E+00 0. -1.
        -12    1    3    3    0    0 -0.21446358671E+02 -0.10496278759E+02 -0.22464537773E+03  0.22591074322E+03  0.00000000000E+00 0.  1.
          5    1    4    4  501    0 -0.79936407659E+01  0.26405044799E+02 -0.11740968621E+02  0.30272882712E+02  0.41800000000E+01 0. -1.
         -5    1    4    4    0  501  0.27767323940E+02  0.25816768166E+02  0.19407867137E+03  0.19779164006E+03  0.41800000000E+01 0. -1.
</event>
<event>
11    1  0.8039394E-009  0.1403788E+03  0.7561462E-02  0.1107136E+00
         22   -1    0    0    0    0  0.00000000000E+00  0.00000000000E+00  0.58281508299E+03  0.58281508299E+03  0.00000000000E+00 0. -1.
         22   -1    0    0    0    0 -0.00000000000E+00 -0.00000000000E+00 -0.27448938965E+04  0.27448938965E+04  0.00000000000E+00 0.  1.
        -24    2    1    2    0    0 -0.49408211779E+02  0.40840073569E+02 -0.25966412306E+04  0.25986930751E+04  0.80937844649E+02 0.  0.
         25    2    1    2    0    0  0.31207963042E+02 -0.42794012375E+02 -0.11195026768E+03  0.17602774135E+03  0.12509052257E+03 0.  0.
         24    2    1    2    0    0  0.18200248737E+02  0.19539388060E+01  0.54651268478E+03  0.55298816312E+03  0.82369454229E+02 0.  0.
        -13    1    5    5    0    0 -0.73138903308E+01  0.34322269995E+02  0.13763152353E+03  0.14203502202E+03  0.00000000000E+00 0.  1.
         14    1    5    5    0    0  0.25514139068E+02 -0.32368331189E+02  0.40888116125E+03  0.41095314110E+03  0.00000000000E+00 0. -1.
         11    1    3    3    0    0 -0.16511159062E+02 -0.20502473012E+02 -0.35646117062E+03  0.35743186195E+03  0.00000000000E+00 0. -1.
        -12    1    3    3    0    0 -0.32897052717E+02  0.61342546581E+02 -0.22401800600E+04  0.22412612131E+04  0.00000000000E+00 0.  1.
          5    1    4    4  501    0  0.59718333370E+02 -0.70842817955E+02 -0.93787774970E+02  0.13190376541E+03  0.41800000000E+01 0. -1.
         -5    1    4    4    0  501 -0.28510370328E+02  0.28048805580E+02 -0.18162492711E+02  0.44123975933E+02  0.41800000000E+01 0. -1.
</event>
<event>
11    1  0.8039394E-009  0.1484874E+03  0.7561462E-02  0.1098434E+00
         22   -1    0    0    0    0  0.00000000000E+00  0.00000000000E+00  0.92806471200E+03  0.92806471200E+03  0.00000000000E+00 0. -1.
         22   -1    0    0    0    0 -0.00000000000E+00 -0.00000000000E+00 -0.54350808228E+03  0.54350808228E+03  0.00000000000E+00 0.  1.
        -24    2    1    2    0    0 -0.26001119328E+02 -0.81986369689E+01 -0.17548202598E+03  0.19486247396E+03  0.80213256162E+02 0.  0.
         25    2    1    2    0    0 -0.51557627202E+02  0.28741998229E+02 -0.34127814624E+03  0.36824310308E+03  0.12509164033E+03 0.  0.
         24    2    1    2    0    0  0.77558746530E+02 -0.20543361260E+02  0.90131680195E+03  0.90846721723E+03  0.80643155051E+02 0.  0.
        -11    1    5    5    0    0  0.56400442620E+02 -0.27606558867E+02  0.28895935528E+03  0.29570363715E+03  0.00000000000E+00 0.  1.
         12    1    5    5    0    0  0.21158303909E+02  0.70631976067E+01  0.61235744666E+03  0.61276358008E+03  0.00000000000E+00 0. -1.
         13    1    3    3    0    0 -0.13115704695E+02  0.67595875225E+01  0.31957743797E+01  0.15097241701E+02  0.00000000000E+00 0. -1.
        -14    1    3    3    0    0 -0.12885414633E+02 -0.14958224491E+02 -0.17867780036E+03  0.17976523226E+03  0.00000000000E+00 0.  1.
          5    1    4    4  501    0 -0.22179557521E+02  0.84090975955E+01  0.97443150801E+00  0.24105344033E+02  0.41800000000E+01 0.  1.
         -5    1    4    4    0  501 -0.29378069681E+02  0.20332900633E+02 -0.34225257775E+03  0.34413775905E+03  0.41800000000E+01 0.  1.
</event>
<event>
11    1  0.8039394E-009  0.1346375E+03  0.7561462E-02  0.1113699E+00
         22   -1    0    0    0    0  0.00000000000E+00  0.00000000000E+00  0.29514353692E+02  0.29514353692E+02  0.00000000000E+00 0.  1.
         22   -1    0    0    0    0 -0.00000000000E+00 -0.00000000000E+00 -0.33571685004E+04  0.33571685004E+04  0.00000000000E+00 0.  1.
        -24    2    1    2    0    0  0.47193297841E+02 -0.15275497116E+02 -0.26097245277E+04  0.26114582573E+04  0.81188488374E+02 0.  0.
         25    2    1    2    0    0 -0.60080835399E+02 -0.24099040893E+02 -0.64064275525E+03  0.65594296486E+03  0.12509021842E+03 0.  0.
         24    2    1    2    0    0  0.12887537557E+02  0.39374538008E+02 -0.77286863710E+02  0.11928163194E+03  0.80860407799E+02 0.  0.
        -11    1    5    5    0    0  0.25166474723E+02  0.56486815732E+02 -0.32659694052E+02  0.69934021885E+02  0.00000000000E+00 0.  1.
         12    1    5    5    0    0 -0.12278937166E+02 -0.17112277723E+02 -0.44627169658E+02  0.49347610059E+02  0.00000000000E+00 0. -1.
         11    1    3    3    0    0  0.27699434672E+02  0.19329195311E+02 -0.41433245288E+03  0.41570693761E+03  0.00000000000E+00 0. -1.
        -12    1    3    3    0    0  0.19493863169E+02 -0.34604692427E+02 -0.21953920748E+04  0.21957513196E+04  0.00000000000E+00 0.  1.
          5    1    4    4  501    0 -0.96024714417E+02 -0.20480600219E+02 -0.54140095966E+03  0.55024782806E+03  0.41800000000E+01 0.  1.
         -5    1    4    4    0  501  0.35943879019E+02 -0.36184406736E+01 -0.99241795589E+02  0.10569513680E+03  0.41800000000E+01 0.  1.
</event>
<event>
11    1  0.8039394E-009  0.1257182E+03  0.7561462E-02  0.1124645E+00
         22   -1    0    0    0    0  0.00000000000E+00  0.00000000000E+00  0.77068553109E+02  0.77068553109E+02  0.00000000000E+00 0. -1.
         22   -1    0    0    0    0 -0.00000000000E+00 -0.00000000000E+00 -0.13421303704E+04  0.13421303704E+04  0.00000000000E+00 0.  1.
        -24    2    1    2    0    0  0.30133131209E+02 -0.20181758092E-01 -0.10440124582E+04  0.10477406181E+04  0.83008336734E+02 0.  0.
         25    2    1    2    0    0 -0.23565212729E+02  0.12078472092E+02 -0.24750845772E+03  0.27858766365E+03  0.12509772564E+03 0.  0.
         24    2    1    2    0    0 -0.65679184799E+01 -0.12058290334E+02  0.26459098621E+02  0.92870641746E+02  0.87956422617E+02 0.  0.
        -11    1    5    5    0    0 -0.84847755539E+01 -0.27379917683E+02 -0.25684860780E+02  0.38488483756E+02  0.00000000000E+00 0.  1.
         12    1    5    5    0    0  0.19168570741E+01  0.15321627349E+02  0.52143959401E+02  0.54382157990E+02  0.00000000000E+00 0. -1.
         11    1    3    3    0    0  0.16080800181E+02  0.41945398152E+01 -0.36322152252E+02  0.39943523166E+02  0.00000000000E+00 0. -1.
        -12    1    3    3    0    0  0.14052331028E+02 -0.42147215733E+01 -0.10076903060E+04  0.10077970950E+04  0.00000000000E+00 0.  1.
          5    1    4    4  501    0 -0.62736769037E+02  0.39183349956E+02 -0.18914453971E+03  0.20313632468E+03  0.41800000000E+01 0.  1.
         -5    1    4    4    0  501  0.39171556308E+02 -0.27104877864E+02 -0.58363918009E+02  0.75451338974E+02  0.41800000000E+01 0.  1.
</event>
<event>
11    1  0.8039394E-009  0.1471097E+03  0.7561462E-02  0.1099869E+00
         22   -1    0    0    0    0  0.00000000000E+00  0.00000000000E+00  0.20491245224E+03  0.20491245224E+03  0.00000000000E+00 0.  1.
         22   -1    0    0    0    0 -0.00000000000E+00 -0.00000000000E+00 -0.26112703067E+04  0.26112703067E+04  0.00000000000E+00 0.  1.
         24    2    1    2    0    0  0.50151502765E+02  0.53008172973E+02 -0.24570004220E+04  0.24593452228E+04  0.78757929914E+02 0.  0.
         25    2    1    2    0    0  0.77905922235E+01  0.11464462848E+02 -0.10403330120E+03  0.16328563259E+03  0.12508853990E+03 0.  0.
        -24    2    1    2    0    0 -0.57942094988E+02 -0.64472635821E+02  0.15467586881E+03  0.19355190350E+03  0.77612549343E+02 0.  0.
        -11    1    3    3    0    0  0.55875122581E+02  0.23305476061E+02 -0.21513412486E+04  0.21521929148E+04  0.00000000000E+00 0.  1.
         12    1    3    3    0    0 -0.57236198169E+01  0.29702696912E+02 -0.30565917342E+03  0.30715230802E+03  0.00000000000E+00 0. -1.
         13    1    5    5    0    0 -0.61094469751E+02 -0.38303535568E+02  0.55671609475E+02  0.91098974597E+02  0.00000000000E+00 0. -1.
        -14    1    5    5    0    0  0.31523747627E+01 -0.26169100254E+02  0.99004259331E+02  0.10245292890E+03  0.00000000000E+00 0.  1.
          5    1    4    4  501    0 -0.45641839220E+02 -0.13629003821E+01 -0.33628988578E+00  0.45854339770E+02  0.41800000000E+01 0.  1.
         -5    1    4    4    0  501  0.53432431444E+02  0.12827363230E+02 -0.10369701131E+03  0.11743129282E+03  0.41800000000E+01 0.  1.
</event>
<event>
11    1  0.8039394E-009  0.3476661E+03  0.7561462E-02  0.9818193E-01
         22   -1    0    0    0    0  0.00000000000E+00  0.00000000000E+00  0.95358875435E+03  0.95358875435E+03  0.00000000000E+00 0.  1.
         22   -1    0    0    0    0 -0.00000000000E+00 -0.00000000000E+00 -0.41673681242E+03  0.41673681242E+03  0.00000000000E+00 0. -1.
        -24    2    1    2    0    0  0.80849160417E+02 -0.53626096414E+02 -0.25630376446E+03  0.28641056854E+03  0.83228896066E+02 0.  0.
         25    2    1    2    0    0  0.26856365793E+03  0.38524256410E+02  0.12197167165E+03  0.32270040191E+03  0.12509158252E+03 0.  0.
         24    2    1    2    0    0 -0.34941281834E+03  0.15101840004E+02  0.67118403473E+03  0.76121459632E+03  0.81500122508E+02 0.  0.
        -13    1    5    5    0    0 -0.34394585030E+03  0.21629746997E+02  0.62013542920E+03  0.70946074200E+03  0.00000000000E+00 0.  1.
         14    1    5    5    0    0 -0.54669680435E+01 -0.65279069935E+01  0.51048605538E+02  0.51753854317E+02  0.00000000000E+00 0. -1.
         13    1    3    3    0    0  0.63245043814E+02 -0.75599198064E+02 -0.21381158801E+03  0.23543697561E+03  0.00000000000E+00 0. -1.
        -14    1    3    3    0    0  0.17604116602E+02  0.21973101651E+02 -0.42492176447E+02  0.50973592935E+02  0.00000000000E+00 0.  1.
          5    1    4    4  501    0  0.25545244602E+03  0.66186266393E+02  0.12427997961E+03  0.29171828837E+03  0.41800000000E+01 0. -1.
         -5    1    4    4    0  501  0.13111211901E+02 -0.27662009983E+02 -0.23083079560E+01  0.30982113541E+02  0.41800000000E+01 0. -1.
</event>
<event>
11    1  0.8039394E-009  0.1298536E+03  0.7561462E-02  0.1119449E+00
         22   -1    0    0    0    0  0.00000000000E+00  0.00000000000E+00  0.13514690530E+03  0.13514690530E+03  0.00000000000E+00 0.  1.
         22   -1    0    0    0    0 -0.00000000000E+00 -0.00000000000E+00 -0.11351991473E+04  0.11351991473E+04  0.00000000000E+00 0. -1.
        -24    2    1    2    0    0  0.50482965406E+01  0.39442192801E+02 -0.92559328291E+03  0.92995326328E+03  0.80678216741E+02 0.  0.
         25    2    1    2    0    0 -0.28474147636E+02 -0.10383431797E+02 -0.16632591530E+03  0.21030374031E+03  0.12507901641E+03 0.  0.
         24    2    1    2    0    0  0.23425851096E+02 -0.29058761004E+02  0.91866956239E+02  0.13008904898E+03  0.84204755959E+02 0.  0.
        -11    1    5    5    0    0  0.51130350796E+02 -0.55130512557E+01  0.72519774873E+02  0.88903454682E+02  0.00000000000E+00 0.  1.
         12    1    5    5    0    0 -0.27704499700E+02 -0.23545709748E+02  0.19347181366E+02  0.41185594302E+02  0.00000000000E+00 0. -1.
         13    1    3    3    0    0  0.69237207429E+01  0.45639810385E+02 -0.92065076476E+03  0.92180733392E+03  0.00000000000E+00 0. -1.
        -14    1    3    3    0    0 -0.18754242023E+01 -0.61976175843E+01 -0.49425181445E+01  0.81459293680E+01  0.00000000000E+00 0.  1.
          5    1    4    4  501    0 -0.32065441213E+02  0.47731771410E+02 -0.37249322257E+02  0.68640359343E+02  0.41800000000E+01 0.  1.
         -5    1    4    4    0  501  0.35912935767E+01 -0.58115203207E+02 -0.12907659305E+03  0.14166338096E+03  0.41800000000E+01 0.  1.
</event>
<event>
11    1  0.8039394E-009  0.1499270E+03  0.7561462E-02  0.1096953E+00
         22   -1    0    0    0    0  0.00000000000E+00  0.00000000000E+00  0.24913031623E+04  0.24913031623E+04  0.00000000000E+00 0.  1.
         22   -1    0    0    0    0 -0.00000000000E+00 -0.00000000000E+00 -0.81426161848E+02  0.81426161848E+02  0.00000000000E+00 0.  1.
         24    2    1    2    0    0  0.29078626893E+02 -0.77911464229E+02 -0.24046535162E+02  0.11823818069E+03  0.80537374670E+02 0.  0.
         25    2    1    2    0    0  0.85476607866E+01  0.83595970331E+02  0.61003710365E+03  0.62837393195E+03  0.12508869560E+03 0.  0.
        -24    2    1    2    0    0 -0.37626287680E+02 -0.56845061014E+01  0.18238864319E+04  0.18261172115E+04  0.81818716237E+02 0.  0.
        -11    1    3    3    0    0  0.26432776016E+02 -0.45173636407E+02 -0.52975660875E+02  0.74469924932E+02  0.00000000000E+00 0.  1.
         12    1    3    3    0    0  0.26458508768E+01 -0.32737827823E+02  0.28929125713E+02  0.43768255756E+02  0.00000000000E+00 0. -1.
         11    1    5    5    0    0  0.49166049496E+01 -0.30321525895E+01  0.87765243362E+01  0.10506870751E+02  0.00000000000E+00 0. -1.
        -12    1    5    5    0    0 -0.42542892629E+02 -0.26523535119E+01  0.18151099076E+04  0.18156103407E+04  0.00000000000E+00 0.  1.
          5    1    4    4  501    0 -0.25650129140E+01 -0.31086681837E+02  0.80555921298E+02  0.86485200671E+02  0.41800000000E+01 0. -1.
         -5    1    4    4    0  501  0.11112673701E+02  0.11468265217E+03  0.52948118235E+03  0.54188873128E+03  0.41800000000E+01 0. -1.
</event>
<event>
11    1  0.8039394E-009  0.2084469E+03  0.7561462E-02  0.1048706E+00
         22   -1    0    0    0    0  0.00000000000E+00  0.00000000000E+00  0.12053774836E+04  0.12053774836E+04  0.00000000000E+00 0. -1.
         22   -1    0    0    0    0 -0.00000000000E+00 -0.00000000000E+00 -0.13186487792E+04  0.13186487792E+04  0.00000000000E+00 0.  1.
         24    2    1    2    0    0  0.13476607286E+03  0.94039493354E+02 -0.12201437493E+04  0.12337965789E+04  0.80609605481E+02 0.  0.
         25    2    1    2    0    0 -0.19932030556E+03 -0.13239263206E+03  0.11672371728E+03  0.29415682405E+03  0.12508963876E+03 0.  0.
        -24    2    1    2    0    0  0.64554232703E+02  0.38353138705E+02  0.99014873644E+03  0.99607285990E+03  0.78284160299E+02 0.  0.
        -13    1    3    3    0    0  0.12468008268E+03  0.10146608968E+03 -0.96112100479E+03  0.97447117772E+03  0.00000000000E+00 0.  1.
         14    1    3    3    0    0  0.10085990181E+02 -0.74265963277E+01 -0.25902274447E+03  0.25932540115E+03  0.00000000000E+00 0. -1.
         11    1    5    5    0    0  0.28104010814E+02 -0.18712288238E+02  0.51725969318E+03  0.51836046854E+03  0.00000000000E+00 0. -1.
        -12    1    5    5    0    0  0.36450221889E+02  0.57065426943E+02  0.47288904326E+03  0.47771239137E+03  0.00000000000E+00 0.  1.
          5    1    4    4  501    0 -0.21146721899E+02 -0.62990455284E+02 -0.61008572096E+01  0.66855621773E+02  0.41800000000E+01 0. -1.
         -5    1    4    4    0  501 -0.17817358366E+03 -0.69402176775E+02  0.12282457449E+03  0.22730120227E+03  0.41800000000E+01 0. -1.
</event>
<event>
11    1  0.8039394E-009  0.1733515E+04  0.7561462E-02  0.8185959E-01
         22   -1    0    0    0    0  0.00000000000E+00  0.00000000000E+00  0.25074111580E+04  0.25074111580E+04  0.00000000000E+00 0. -1.
         22   -1    0    0    0    0 -0.00000000000E+00 -0.00000000000E+00 -0.25291654831E+04  0.25291654831E+04  0.00000000000E+00 0. -1.
        -24    2    1    2    0    0 -0.15158629541E+04 -0.83121372125E+03 -0.82218030545E+03  0.19160964485E+04  0.81782635114E+02 0.  0.
         25    2    1    2    0    0  0.14865413308E+04  0.88454944977E+03 -0.50878711528E+03  0.18074138383E+04  0.12509035491E+03 0.  0.
         24    2    1    2    0    0  0.29321623243E+02 -0.53335728522E+02  0.13092130956E+04  0.13130663542E+04  0.79999146029E+02 0.  0.
        -13    1    5    5    0    0  0.34419552124E+02  0.53891904882E+01  0.27874995977E+03  0.28091865195E+03  0.00000000000E+00 0.  1.
         14    1    5    5    0    0 -0.50979288805E+01 -0.58724919011E+02  0.10304631359E+04  0.10321477023E+04  0.00000000000E+00 0. -1.
         11    1    3    3    0    0 -0.13081919657E+04 -0.68436708552E+03 -0.70233840815E+03  0.16349323431E+04  0.00000000000E+00 0. -1.
        -12    1    3    3    0    0 -0.20767098834E+03 -0.14684663574E+03 -0.11984189730E+03  0.28116410541E+03  0.00000000000E+00 0.  1.
          5    1    4    4  501    0  0.48892121760E+03  0.34670280777E+03 -0.21261013663E+03  0.63597746542E+03  0.41800000000E+01 0.  1.
         -5    1    4    4    0  501  0.99762011324E+03  0.53784664201E+03 -0.29617697865E+03  0.11714363729E+04  0.41800000000E+01 0.  1.
</event>
<event>
11    1  0.1160611E-008  0.2256637E+03  0.7561462E-02  0.1037726E+00
         22   -1    0    0    0    0  0.00000000000E+00  0.00000000000E+00  0.51906970415E+03  0.51906970415E+03  0.00000000000E+00 0. -1.
         22   -1    0    0    0    0 -0.00000000000E+00 -0.00000000000E+00 -0.14886928008E+04  0.14886928008E+04  0.00000000000E+00 0. -1.
        -24    2    1    2    0    0 -0.65888552367E+02 -0.74881025305E+02 -0.10663297156E+04  0.10740574663E+04  0.81190574353E+02 0.  0.
         25    2    1    2    0    0  0.76741004647E+01  0.25062268058E+03 -0.34725776943E+03  0.44621979027E+03  0.12511403980E+03 0.  0.
         24    2    1    2    0    0  0.58214451902E+02 -0.17574165528E+03  0.44396438833E+03  0.48748524839E+03  0.79141881947E+02 0.  0.
        -13    1    5    5    0    0 -0.26072777446E+01 -0.42932207118E+02  0.43335255456E+02  0.61056667700E+02  0.00000000000E+00 0.  1.
         14    1    5    5    0    0  0.60821729647E+02 -0.13280944816E+03  0.40062913287E+03  0.42642858068E+03  0.00000000000E+00 0. -1.
         13    1    3    3    0    0 -0.38083507273E+02 -0.83296057674E+02 -0.93898173191E+03  0.94343801048E+03  0.00000000000E+00 0. -1.
        -14    1    3    3    0    0 -0.27805045094E+02  0.84150323690E+01 -0.12734798368E+03  0.13061945586E+03  0.00000000000E+00 0.  1.
          5    1    4    4  501    0  0.41797190889E+01  0.19451138028E+03 -0.33666056435E+03  0.38885724257E+03  0.41800000000E+01 0.  1.
         -5    1    4    4    0  501  0.34943813758E+01  0.56111300300E+02 -0.10597205079E+02  0.57362547695E+02  0.41800000000E+01 0.  1.
</event>
<event>
11    1  0.8039394E-009  0.1640897E+03  0.7561462E-02  0.1083293E+00
         22   -1    0    0    0    0  0.00000000000E+00  0.00000000000E+00  0.14015301106E+03  0.14015301106E+03  0.00000000000E+00 0. -1.
         22   -1    0    0    0    0 -0.00000000000E+00 -0.00000000000E+00 -0.10916268462E+04  0.10916268462E+04  0.00000000000E+00 0. -1.
        -24    2    1    2    0    0 -0.30359337845E+02  0.85349434428E+02 -0.59980370335E+03  0.61201682085E+03  0.81202777650E+02 0.  0.
         25    2    1    2    0    0  0.71925721468E+02 -0.15202011798E+03 -0.43327852720E+03  0.48131124692E+03  0.12508720400E+03 0.  0.
         24    2    1    2    0    0 -0.41566383624E+02  0.66670683552E+02  0.81608395375E+02  0.13845178951E+03  0.79600399065E+02 0.  0.
        -13    1    5    5    0    0  0.28940823364E+01  0.19707461248E+02 -0.13048562386E+02  0.23812280902E+02  0.00000000000E+00 0.  1.
         14    1    5    5    0    0 -0.44460465960E+02  0.46963222304E+02  0.94656957761E+02  0.11463950861E+03  0.00000000000E+00 0. -1.
         13    1    3    3    0    0  0.29260453046E+01  0.69990900339E+02 -0.51341771959E+03  0.51817472213E+03  0.00000000000E+00 0. -1.
        -14    1    3    3    0    0 -0.33285383149E+02  0.15358534089E+02 -0.86385983764E+02  0.93842098717E+02  0.00000000000E+00 0.  1.
          5    1    4    4  501    0  0.44141542556E+02 -0.13276916330E+02 -0.22347151254E+03  0.22821424497E+03  0.41800000000E+01 0. -1.
         -5    1    4    4    0  501  0.27784178913E+02 -0.13874320165E+03 -0.20980701465E+03  0.25309700196E+03  0.41800000000E+01 0. -1.
</event>
<event>
11    1  0.8039394E-009  0.1479998E+03  0.7561462E-02  0.1098940E+00
         22   -1    0    0    0    0  0.00000000000E+00  0.00000000000E+00  0.65526043174E+02  0.65526043174E+02  0.00000000000E+00 0. -1.
         22   -1    0    0    0    0 -0.00000000000E+00 -0.00000000000E+00 -0.19786525354E+04  0.19786525354E+04  0.00000000000E+00 0.  1.
        -24    2    1    2    0    0 -0.24497963963E+02 -0.10470676636E+02 -0.15815238647E+04  0.15837474848E+04  0.79552346348E+02 0.  0.
         25    2    1    2    0    0 -0.32834336892E+01 -0.66795874041E+02 -0.31347163204E+03  0.34407032201E+03  0.12508977844E+03 0.  0.
         24    2    1    2    0    0  0.27781397652E+02  0.77266550676E+02 -0.18130995544E+02  0.11636077178E+03  0.80431152553E+02 0.  0.
        -11    1    5    5    0    0  0.11446757541E+01 -0.57774565652E+01  0.20241379507E+02  0.21080861730E+02  0.00000000000E+00 0.  1.
         12    1    5    5    0    0  0.26636721898E+02  0.83044007241E+02 -0.38372375050E+02  0.95279910050E+02  0.00000000000E+00 0. -1.
         13    1    3    3    0    0  0.26741420814E+02  0.44081652692E+01 -0.34038281137E+03  0.34146009105E+03  0.00000000000E+00 0. -1.
        -14    1    3    3    0    0 -0.51239384777E+02 -0.14878841905E+02 -0.12411410533E+04  0.12422873937E+04  0.00000000000E+00 0.  1.
          5    1    4    4  501    0  0.49930622927E+02 -0.67267090117E+02 -0.14696207274E+03  0.16921362753E+03  0.41800000000E+01 0.  1.
         -5    1    4    4    0  501 -0.53214056616E+02  0.47121607662E+00 -0.16650955931E+03  0.17485669448E+03  0.41800000000E+01 0.  1.
</event>
<event>
11    1  0.8039394E-009  0.1327283E+03  0.7561462E-02  0.1115961E+00
         22   -1    0    0    0    0  0.00000000000E+00  0.00000000000E+00  0.33907761715E+03  0.33907761715E+03  0.00000000000E+00 0.  1.
         22   -1    0    0    0    0 -0.00000000000E+00 -0.00000000000E+00 -0.54428243429E+03  0.54428243429E+03  0.00000000000E+00 0. -1.
        -24    2    1    2    0    0  0.32542670421E+02 -0.31911704030E+02 -0.35994128280E+03  0.37157421582E+03  0.80201549494E+02 0.  0.
         25    2    1    2    0    0 -0.36816071699E+02  0.74680629178E+02 -0.13845961478E+03  0.20432716601E+03  0.12508359739E+03 0.  0.
         24    2    1    2    0    0  0.42734012782E+01 -0.42768925148E+02  0.29319608045E+03  0.30745866961E+03  0.81972245346E+02 0.  0.
        -13    1    5    5    0    0  0.18784715231E+02 -0.16712561754E+02  0.26571994796E+03  0.26690684890E+03  0.00000000000E+00 0.  1.
         14    1    5    5    0    0 -0.14511313952E+02 -0.26056363395E+02  0.27476132499E+02  0.40551820712E+02  0.00000000000E+00 0. -1.
         13    1    3    3    0    0 -0.24101111228E+02 -0.10113664215E+02 -0.17467563276E+03  0.17662028889E+03  0.00000000000E+00 0. -1.
        -14    1    3    3    0    0  0.56643781649E+02 -0.21798039815E+02 -0.18526565004E+03  0.19495392693E+03  0.00000000000E+00 0.  1.
          5    1    4    4  501    0 -0.11213065742E+01  0.80504118870E+02 -0.23850506052E+02  0.84074309527E+02  0.41800000000E+01 0.  1.
         -5    1    4    4    0  501 -0.35694765125E+02 -0.58234896919E+01 -0.11460910873E+03  0.12025285649E+03  0.41800000000E+01 0.  1.
</event>
<event>
11    1  0.1244220E-008  0.1463036E+03  0.7561462E-02  0.1100717E+00
         22   -1    0    0    0    0  0.00000000000E+00  0.00000000000E+00  0.10662612846E+04  0.10662612846E+04  0.00000000000E+00 0. -1.
         22   -1    0    0    0    0 -0.00000000000E+00 -0.00000000000E+00 -0.15076815226E+04  0.15076815226E+04  0.00000000000E+00 0.  1.
        -24    2    1    2    0    0  0.72324609648E+02  0.39347761302E+02 -0.10954994151E+04  0.11015335376E+04  0.80486461186E+02 0.  0.
         25    2    1    2    0    0 -0.25059978294E+02 -0.55617296524E+02 -0.39511086682E+03  0.41890489668E+03  0.12508968465E+03 0.  0.
         24    2    1    2    0    0 -0.47264631354E+02  0.16269535221E+02  0.10491900439E+04  0.10535043730E+04  0.81074488355E+02 0.  0.
        -13    1    5    5    0    0 -0.63197888708E+02  0.16051452024E+02  0.51968321041E+03  0.52375782708E+03  0.00000000000E+00 0.  1.
         14    1    5    5    0    0  0.15933257354E+02  0.21808319729E+00  0.52950683348E+03  0.52974654596E+03  0.00000000000E+00 0. -1.
         13    1    3    3    0    0  0.25293155283E+02  0.15949561320E+02 -0.93651316722E+02  0.98309212866E+02  0.00000000000E+00 0. -1.
        -14    1    3    3    0    0  0.47031454365E+02  0.23398199982E+02 -0.10018480984E+04  0.10032243247E+04  0.00000000000E+00 0.  1.
          5    1    4    4  501    0  0.10800302874E+02 -0.29583110932E+02 -0.13189095446E+02  0.34398134154E+02  0.41800000000E+01 0.  1.
         -5    1    4    4    0  501 -0.35860281168E+02 -0.26034185592E+02 -0.38192177137E+03  0.38450676253E+03  0.41800000000E+01 0.  1.
</event>
<event>
11    1  0.8039394E-009  0.1419199E+03  0.7561462E-02  0.1105433E+00
         22   -1    0    0    0    0  0.00000000000E+00  0.00000000000E+00  0.16300571151E+04  0.16300571151E+04  0.00000000000E+00 0. -1.
         22   -1    0    0    0    0 -0.00000000000E+00 -0.00000000000E+00 -0.55810737734E+03  0.55810737734E+03  0.00000000000E+00 0. -1.
         24    2    1    2    0    0  0.37424552380E+02 -0.22829766604E+02 -0.52903587091E+03  0.53690199900E+03  0.80392838332E+02 0.  0.
         25    2    1    2    0    0  0.90013486516E+01  0.72053099726E+02  0.20268178401E+03  0.24899860200E+03  0.12509086604E+03 0.  0.
        -24    2    1    2    0    0 -0.46425901031E+02 -0.49223333121E+02  0.13983038247E+04  0.14022638915E+04  0.80697796541E+02 0.  0.
        -13    1    3    3    0    0  0.29536424486E+02  0.27181903598E+02 -0.26961591967E+03  0.27258760132E+03  0.00000000000E+00 0.  1.
         14    1    3    3    0    0  0.78881278940E+01 -0.50011670202E+02 -0.25941995125E+03  0.26431439768E+03  0.00000000000E+00 0. -1.
         11    1    5    5    0    0  0.14847487181E+02 -0.38641985544E+02  0.68767685440E+03  0.68892169875E+03  0.00000000000E+00 0. -1.
        -12    1    5    5    0    0 -0.61273388212E+02 -0.10581347578E+02  0.71062697028E+03  0.71334219271E+03  0.00000000000E+00 0.  1.
          5    1    4    4  501    0  0.63077441978E+02  0.57302588734E+02  0.96150021229E+02  0.12854823742E+03  0.41800000000E+01 0. -1.
         -5    1    4    4    0  501 -0.54076093326E+02  0.14750510992E+02  0.10653176278E+03  0.12045036457E+03  0.41800000000E+01 0. -1.
</event>
<event>
11    1  0.8039394E-009  0.1274059E+03  0.7561462E-02  0.1122498E+00
         22   -1    0    0    0    0  0.00000000000E+00  0.00000000000E+00  0.92492964272E+03  0.92492964272E+03  0.00000000000E+00 0. -1.
         22   -1    0    0    0    0 -0.00000000000E+00 -0.00000000000E+00 -0.87170768946E+02  0.87170768946E+02  0.00000000000E+00 0.  1.
         24    2    1    2    0    0 -0.11128280913E+02 -0.16462427229E+02 -0.13761764871E+02  0.83968149539E+02  0.80414015061E+02 0.  0.
         25    2    1    2    0    0  0.25293036759E+02  0.34585637740E+02  0.85286028754E+02  0.15734419817E+03  0.12509031118E+03 0.  0.
        -24    2    1    2    0    0 -0.14164755846E+02 -0.18123210511E+02  0.76623460989E+03  0.77078806395E+03  0.80434265515E+02 0.  0.
        -13    1    3    3    0    0 -0.27487372229E+02 -0.58987692274E+01 -0.41470229290E+02  0.50101207848E+02  0.00000000000E+00 0.  1.
         14    1    3    3    0    0  0.16359091316E+02 -0.10563658002E+02  0.27708464419E+02  0.33866941691E+02  0.00000000000E+00 0. -1.
         11    1    5    5    0    0 -0.46026308906E+02 -0.51541742618E-01  0.48473957591E+03  0.48691978828E+03  0.00000000000E+00 0. -1.
        -12    1    5    5    0    0  0.31861553060E+02 -0.18071668768E+02  0.28149503398E+03  0.28386827567E+03  0.00000000000E+00 0.  1.
          5    1    4    4  501    0  0.10784146715E+02  0.40262707259E+02  0.11562706702E+03  0.12298160206E+03  0.41800000000E+01 0. -1.
         -5    1    4    4    0  501  0.14508890044E+02 -0.56770695189E+01 -0.30341038269E+02  0.34362596117E+02  0.41800000000E+01 0. -1.
</event>
<event>
11    1  0.8039394E-009  0.2167486E+03  0.7561462E-02  0.1043274E+00
         22   -1    0    0    0    0  0.00000000000E+00  0.00000000000E+00  0.66208070353E+03  0.66208070353E+03  0.00000000000E+00 0.  1.
         22   -1    0    0    0    0 -0.00000000000E+00 -0.00000000000E+00 -0.64786306805E+03  0.64786306805E+03  0.00000000000E+00 0. -1.
        -24    2    1    2    0    0 -0.50451141116E+02  0.15541636729E+03 -0.33812990814E+03  0.38386360687E+03  0.79497603941E+02 0.  0.
         25    2    1    2    0    0  0.89903697170E+02 -0.18915602713E+03 -0.23042353366E+03  0.33556648580E+03  0.12508870517E+03 0.  0.
         24    2    1    2    0    0 -0.39452556054E+02  0.33739659836E+02  0.58277107728E+03  0.59051367891E+03  0.79933770338E+02 0.  0.
        -11    1    5    5    0    0 -0.39332987022E+02  0.47462393884E+02  0.56346713076E+03  0.56682887201E+03  0.00000000000E+00 0.  1.
         12    1    5    5    0    0 -0.11956903192E+00 -0.13722734048E+02  0.19303946526E+02  0.23684806902E+02  0.00000000000E+00 0. -1.
         11    1    3    3    0    0 -0.89412376899E+01  0.91349284767E+02 -0.25492084297E+03  0.27094145814E+03  0.00000000000E+00 0. -1.
        -12    1    3    3    0    0 -0.41509903426E+02  0.64067082528E+02 -0.83209065180E+02  0.11292214873E+03  0.00000000000E+00 0.  1.
          5    1    4    4  501    0  0.57882737067E+02 -0.14922097905E+03 -0.23461222654E+03  0.28403816835E+03  0.41800000000E+01 0.  1.
         -5    1    4    4    0  501  0.32020960103E+02 -0.39935048081E+02  0.41886928740E+01  0.51528317449E+02  0.41800000000E+01 0.  1.
</event>
<event>
11    1  0.8039394E-009  0.1373889E+03  0.7561462E-02  0.1110510E+00
         22   -1    0    0    0    0  0.00000000000E+00  0.00000000000E+00  0.21531546057E+04  0.21531546057E+04  0.00000000000E+00 0.  1.
         22   -1    0    0    0    0 -0.00000000000E+00 -0.00000000000E+00 -0.51413625801E+02  0.51413625801E+02  0.00000000000E+00 0.  1.
        -24    2    1    2    0    0  0.45338208738E+02  0.19688060089E+02  0.29530756200E+02  0.98519179217E+02  0.79942418216E+02 0.  0.
         25    2    1    2    0    0 -0.70221517640E+02  0.30966296814E+02  0.33409362034E+03  0.36490577997E+03  0.12509079910E+03 0.  0.
         24    2    1    2    0    0  0.24883308902E+02 -0.50654356903E+02  0.17381166034E+04  0.17411432723E+04  0.85706037954E+02 0.  0.
        -13    1    5    5    0    0  0.33631269739E+02 -0.31550235984E+02  0.16465981791E+04  0.16472437716E+04  0.00000000000E+00 0.  1.
         14    1    5    5    0    0 -0.87479608372E+01 -0.19104120919E+02  0.91518424277E+02  0.93899500729E+02  0.00000000000E+00 0. -1.
         11    1    3    3    0    0 -0.22873581393E+02  0.95477880673E+01  0.10958130982E+02  0.27100583340E+02  0.00000000000E+00 0. -1.
        -12    1    3    3    0    0  0.68211790131E+02  0.10140272021E+02  0.18572625218E+02  0.71418595877E+02  0.00000000000E+00 0.  1.
          5    1    4    4  501    0 -0.30477860257E+02  0.75734651466E+02  0.14423087427E+03  0.16578496582E+03  0.41800000000E+01 0. -1.
         -5    1    4    4    0  501 -0.39743657382E+02 -0.44768354652E+02  0.18986274607E+03  0.19912081415E+03  0.41800000000E+01 0. -1.
</event>
<event>
11    1  0.8039394E-009  0.1368994E+03  0.7561462E-02  0.1111071E+00
         22   -1    0    0    0    0  0.00000000000E+00  0.00000000000E+00  0.45330347885E+03  0.45330347885E+03  0.00000000000E+00 0. -1.
         22   -1    0    0    0    0 -0.00000000000E+00 -0.00000000000E+00 -0.20224000205E+03  0.20224000205E+03  0.00000000000E+00 0. -1.
        -24    2    1    2    0    0  0.14049356057E+02  0.30816138456E+01 -0.10422668521E+03  0.13250705655E+03  0.80548354287E+02 0.  0.
         25    2    1    2    0    0 -0.90551421934E+01 -0.58323426731E+02 -0.15686134934E+02  0.13920472192E+03  0.12509309361E+03 0.  0.
         24    2    1    2    0    0 -0.49942138637E+01  0.55241812886E+02  0.37097629694E+03  0.38383170243E+03  0.81404931244E+02 0.  0.
        -11    1    5    5    0    0  0.96176558623E+01  0.62086822884E+02  0.15493819163E+03  0.16719185418E+03  0.00000000000E+00 0.  1.
         12    1    5    5    0    0 -0.14611869726E+02 -0.68450099989E+01  0.21603810531E+03  0.21663984824E+03  0.00000000000E+00 0. -1.
         13    1    3    3    0    0  0.31867058470E+02  0.16638187379E+01 -0.10935189049E+03  0.11391274583E+03  0.00000000000E+00 0. -1.
        -14    1    3    3    0    0 -0.17817702413E+02  0.14177951077E+01  0.51252052832E+01  0.18594310728E+02  0.00000000000E+00 0.  1.
          5    1    4    4  501    0  0.22307409361E+02  0.32841062057E+02 -0.15166936553E+02  0.42704381905E+02  0.41800000000E+01 0. -1.
         -5    1    4    4    0  501 -0.31362551555E+02 -0.91164488789E+02 -0.51919838133E+00  0.96500340015E+02  0.41800000000E+01 0. -1.
</event>
<event>
11    1  0.8039394E-009  0.1784904E+03  0.7561462E-02  0.1070870E+00
         22   -1    0    0    0    0  0.00000000000E+00  0.00000000000E+00  0.15472277333E+04  0.15472277333E+04  0.00000000000E+00 0. -1.
         22   -1    0    0    0    0 -0.00000000000E+00 -0.00000000000E+00 -0.17857720387E+03  0.17857720387E+03  0.00000000000E+00 0.  1.
        -24    2    1    2    0    0  0.51619634463E+02  0.12084248044E+03 -0.12727541425E+03  0.19963435184E+03  0.79920908526E+02 0.  0.
         25    2    1    2    0    0 -0.88294387094E+01 -0.81077719035E+02  0.42252552994E+03  0.44813727726E+03  0.12509052846E+03 0.  0.
         24    2    1    2    0    0 -0.42790195754E+02 -0.39764761407E+02  0.10734004138E+04  0.10780333081E+04  0.80963744865E+02 0.  0.
        -13    1    5    5    0    0 -0.25153281670E+02 -0.22184560026E+02  0.12849707435E+03  0.13280188402E+03  0.00000000000E+00 0.  1.
         14    1    5    5    0    0 -0.17636914084E+02 -0.17580201381E+02  0.94490333941E+03  0.94523142407E+03  0.00000000000E+00 0. -1.
         13    1    3    3    0    0 -0.75173311143E+01 -0.85011695686E+01 -0.66916360790E+01  0.13174146824E+02  0.00000000000E+00 0. -1.
        -14    1    3    3    0    0  0.59136965577E+02  0.12934365001E+03 -0.12058377818E+03  0.18646020502E+03  0.00000000000E+00 0.  1.
          5    1    4    4  501    0 -0.53507190363E+01  0.30582373575E+02  0.48292383908E+02  0.57563343468E+02  0.41800000000E+01 0.  1.
         -5    1    4    4    0  501 -0.34787196732E+01 -0.11166009261E+03  0.37423314603E+03  0.39057393380E+03  0.41800000000E+01 0.  1.
</event>
<event>
11    1  0.8039394E-009  0.3829925E+03  0.7561462E-02  0.9701316E-01
         22   -1    0    0    0    0  0.00000000000E+00  0.00000000000E+00  0.13826878608E+04  0.13826878608E+04  0.00000000000E+00 0. -1.
         22   -1    0    0    0    0 -0.00000000000E+00 -0.00000000000E+00 -0.26521400923E+02  0.26521400923E+02  0.00000000000E+00 0. -1.
         24    2    1    2    0    0  0.24788497255E+02 -0.34965313852E+02  0.30099175359E+03  0.31462242185E+03  0.80957951028E+02 0.  0.
         25    2    1    2    0    0 -0.62862920277E+02  0.90522814793E+02  0.44005940260E+03  0.47058323978E+03  0.12510068345E+03 0.  0.
        -24    2    1    2    0    0  0.38074423021E+02 -0.55557500941E+02  0.61511530368E+03  0.62400360008E+03  0.80482038348E+02 0.  0.
        -11    1    3    3    0    0 -0.33238299688E+01 -0.55931458799E+02  0.20078221270E+03  0.20845352687E+03  0.00000000000E+00 0.  1.
         12    1    3    3    0    0  0.28112327224E+02  0.20966144947E+02  0.10020954089E+03  0.10616889498E+03  0.00000000000E+00 0. -1.
         11    1    5    5    0    0  0.57821793440E+02 -0.21521925037E+02  0.28829260923E+03  0.29482059221E+03  0.00000000000E+00 0. -1.
        -12    1    5    5    0    0 -0.19747370419E+02 -0.34035575904E+02  0.32682269445E+03  0.32918300788E+03  0.00000000000E+00 0.  1.
          5    1    4    4  501    0 -0.21419758344E+02  0.67825005241E+00  0.25229430324E+01  0.21979620383E+02  0.41800000000E+01 0. -1.
         -5    1    4    4    0  501 -0.41443161933E+02  0.89844564740E+02  0.43753645957E+03  0.44860361940E+03  0.41800000000E+01 0. -1.
</event>
<event>
11    1  0.8039394E-009  0.1284376E+03  0.7561462E-02  0.1121204E+00
         22   -1    0    0    0    0  0.00000000000E+00  0.00000000000E+00  0.27541118291E+03  0.27541118291E+03  0.00000000000E+00 0. -1.
         22   -1    0    0    0    0 -0.00000000000E+00 -0.00000000000E+00 -0.32384589714E+03  0.32384589714E+03  0.00000000000E+00 0.  1.
        -24    2    1    2    0    0  0.42573195807E+01 -0.20974616489E+02 -0.27488665433E+03  0.28625482398E+03  0.76948633617E+02 0.  0.
         25    2    1    2    0    0 -0.25146810151E+02  0.32030109448E+02  0.12825618462E+03  0.18372833414E+03  0.12509261329E+03 0.  0.
         24    2    1    2    0    0  0.20889490571E+02 -0.11055492959E+02  0.98195755475E+02  0.12927392192E+03  0.80689192302E+02 0.  0.
        -11    1    5    5    0    0 -0.68532092401E+01  0.27644723654E+02  0.65749832053E+02  0.71653594730E+02  0.00000000000E+00 0.  1.
         12    1    5    5    0    0  0.27742699811E+02 -0.38700216613E+02  0.32445923422E+02  0.57620327190E+02  0.00000000000E+00 0. -1.
         11    1    3    3    0    0  0.26813268625E+02 -0.98935801620E+01 -0.35604010166E+02  0.45656104112E+02  0.00000000000E+00 0. -1.
        -12    1    3    3    0    0 -0.22555949044E+02 -0.11081036327E+02 -0.23928264417E+03  0.24059871987E+03  0.00000000000E+00 0.  1.
          5    1    4    4  501    0 -0.74056869909E+02  0.21635387796E+02  0.54621557710E+02  0.94622919805E+02  0.41800000000E+01 0.  1.
         -5    1    4    4    0  501  0.48910059757E+02  0.10394721653E+02  0.73634626915E+02  0.89105414339E+02  0.41800000000E+01 0.  1.
</event>
<event>
11    1  0.8039394E-009  0.1539477E+03  0.7561462E-02  0.1092912E+00
         22   -1    0    0    0    0  0.00000000000E+00  0.00000000000E+00  0.16895315383E+03  0.16895315383E+03  0.00000000000E+00 0.  1.
         22   -1    0    0    0    0 -0.00000000000E+00 -0.00000000000E+00 -0.49571713451E+03  0.49571713451E+03  0.00000000000E+00 0. -1.
         24    2    1    2    0    0 -0.35237454688E+02  0.81120786830E+02 -0.38822528450E+03  0.40635519653E+03  0.81138239776E+02 0.  0.
         25    2    1    2    0    0  0.47500652367E+02 -0.91294807907E+02  0.13022744392E+02  0.16248259792E+03  0.12505978102E+03 0.  0.
        -24    2    1    2    0    0 -0.12263197679E+02  0.10174021077E+02  0.48438559437E+02  0.95832493888E+02  0.81139855326E+02 0.  0.
        -13    1    3    3    0    0 -0.56148988464E+02  0.64304648922E+02 -0.21962930774E+03  0.23563707178E+03  0.00000000000E+00 0.  1.
         14    1    3    3    0    0  0.20911533776E+02  0.16816137908E+02 -0.16859597676E+03  0.17071812475E+03  0.00000000000E+00 0. -1.
         13    1    5    5    0    0  0.28739463141E+02 -0.83189722699E+01  0.25975775218E+00  0.29920386283E+02  0.00000000000E+00 0. -1.
        -14    1    5    5    0    0 -0.41002660819E+02  0.18492993346E+02  0.48178801685E+02  0.65912107605E+02  0.00000000000E+00 0.  1.
          5    1    4    4  501    0  0.35609531872E+02 -0.31642192223E+02  0.66142490933E+02  0.81618432940E+02  0.41800000000E+01 0.  1.
         -5    1    4    4    0  501  0.11891120494E+02 -0.59652615683E+02 -0.53119746541E+02  0.80864164975E+02  0.41800000000E+01 0.  1.
</event>
<event>
11    1  0.8039394E-009  0.1292989E+03  0.7561462E-02  0.1120133E+00
         22   -1    0    0    0    0  0.00000000000E+00  0.00000000000E+00  0.24174752788E+03  0.24174752788E+03  0.00000000000E+00 0. -1.
         22   -1    0    0    0    0 -0.00000000000E+00 -0.00000000000E+00 -0.47810997262E+03  0.47810997262E+03  0.00000000000E+00 0. -1.
        -24    2    1    2    0    0 -0.32573741927E+02  0.55453239626E+01 -0.41819360865E+03  0.42694419204E+03  0.79395525857E+02 0.  0.
         25    2    1    2    0    0  0.28680655044E+02  0.19021531274E+02  0.54511019594E+02  0.14072556008E+03  0.12509130016E+03 0.  0.
         24    2    1    2    0    0  0.38930868827E+01 -0.24566855237E+02  0.12732014431E+03  0.15218774837E+03  0.79573897140E+02 0.  0.
        -13    1    5    5    0    0 -0.10159254287E+02  0.24986297738E+02  0.21482472830E+02  0.34482200643E+02  0.00000000000E+00 0.  1.
         14    1    5    5    0    0  0.14052341169E+02 -0.49553152975E+02  0.10583767148E+03  0.11770554773E+03  0.00000000000E+00 0. -1.
         13    1    3    3    0    0 -0.58146588933E+02  0.81953053919E+01 -0.25045807602E+03  0.25724975545E+03  0.00000000000E+00 0. -1.
        -14    1    3    3    0    0  0.25572847007E+02 -0.26499814293E+01 -0.16773553263E+03  0.16969443660E+03  0.00000000000E+00 0.  1.
          5    1    4    4  501    0  0.32915043769E+02 -0.41794853543E+02  0.58878476735E+02  0.79462930424E+02  0.41800000000E+01 0.  1.
         -5    1    4    4    0  501 -0.42343887248E+01  0.60816384817E+02 -0.43674571406E+01  0.61262629653E+02  0.41800000000E+01 0.  1.
</event>
<event>
11    1  0.8039394E-009  0.1357431E+03  0.7561462E-02  0.1112407E+00
         22   -1    0    0    0    0  0.00000000000E+00  0.00000000000E+00  0.12110333827E+04  0.12110333827E+04  0.00000000000E+00 0. -1.
         22   -1    0    0    0    0 -0.00000000000E+00 -0.00000000000E+00 -0.19577621313E+03  0.19577621313E+03  0.00000000000E+00 0. -1.
        -24    2    1    2    0    0 -0.13871035278E+01  0.54801377457E+02 -0.10604144799E+03  0.15528378662E+03  0.99313396221E+02 0.  0.
         25    2    1    2    0    0  0.63900272347E+02 -0.35254301706E+02  0.21020431672E+02  0.14633846460E+03  0.12508787742E+03 0.  0.
         24    2    1    2    0    0 -0.62513168819E+02 -0.19547075751E+02  0.11002781859E+04  0.11051873446E+04  0.80851690793E+02 0.  0.
        -11    1    5    5    0    0 -0.33315429951E+02 -0.82362784238E+01  0.13153521353E+03  0.13593846606E+03  0.00000000000E+00 0.  1.
         12    1    5    5    0    0 -0.29197738869E+02 -0.11310797327E+02  0.96874297238E+03  0.96924887858E+03  0.00000000000E+00 0. -1.
         13    1    3    3    0    0  0.86195056298E+01  0.82953710655E+02 -0.74364733626E+02  0.11173955251E+03  0.00000000000E+00 0. -1.
        -14    1    3    3    0    0 -0.10006609158E+02 -0.28152333198E+02 -0.31676714360E+02  0.43544234107E+02  0.00000000000E+00 0.  1.
          5    1    4    4  501    0  0.88266246691E+02 -0.25960785120E+02  0.51890701826E+02  0.10571191988E+03  0.41800000000E+01 0. -1.
         -5    1    4    4    0  501 -0.24365974344E+02 -0.92935165861E+01 -0.30870270153E+02  0.40626544717E+02  0.41800000000E+01 0. -1.
</event>
<event>
11    1  0.8039394E-009  0.1427648E+03  0.7561462E-02  0.1104510E+00
         22   -1    0    0    0    0  0.00000000000E+00  0.00000000000E+00  0.33480288174E+04  0.33480288174E+04  0.00000000000E+00 0.  1.
         22   -1    0    0    0    0 -0.00000000000E+00 -0.00000000000E+00 -0.40798448288E+02  0.40798448288E+02  0.00000000000E+00 0.  1.
        -24    2    1    2    0    0  0.27866646326E+02 -0.31259100362E+02  0.44522006807E+02  0.99462527811E+02  0.78465941755E+02 0.  0.
         25    2    1    2    0    0  0.23092933879E+02  0.77348893770E+02  0.43653411195E+03  0.46122249012E+03  0.12509204423E+03 0.  0.
         24    2    1    2    0    0 -0.50959580205E+02 -0.46089793408E+02  0.28261742503E+04  0.28281422477E+04  0.80040816702E+02 0.  0.
        -13    1    5    5    0    0 -0.46223470491E+02 -0.97053518111E+01  0.23778614230E+04  0.23783304543E+04  0.00000000000E+00 0.  1.
         14    1    5    5    0    0 -0.47361097140E+01 -0.36384441597E+02  0.44831282735E+03  0.44981179341E+03  0.00000000000E+00 0. -1.
         11    1    3    3    0    0 -0.26258309027E+02 -0.88029195839E+01  0.26051302086E+02  0.38021842756E+02  0.00000000000E+00 0. -1.
        -12    1    3    3    0    0  0.54124955353E+02 -0.22456180778E+02  0.18470704721E+02  0.61440685055E+02  0.00000000000E+00 0.  1.
          5    1    4    4  501    0 -0.18528074628E+02 -0.22514382887E+02  0.18565998777E+03  0.18798215459E+03  0.41800000000E+01 0.  1.
         -5    1    4    4    0  501  0.41621008507E+02  0.99863276657E+02  0.25087412418E+03  0.27324033552E+03  0.41800000000E+01 0.  1.
</event>
<event>
11    1  0.8039394E-009  0.1579741E+03  0.7561462E-02  0.1088998E+00
         22   -1    0    0    0    0  0.00000000000E+00  0.00000000000E+00  0.11954949074E+04  0.11954949074E+04  0.00000000000E+00 0. -1.
         22   -1    0    0    0    0 -0.00000000000E+00 -0.00000000000E+00 -0.37222473268E+03  0.37222473268E+03  0.00000000000E+00 0. -1.
         24    2    1    2    0    0  0.32053208580E+02  0.94952113739E+02 -0.31650425620E+03  0.34170936778E+03  0.80913755025E+02 0.  0.
         25    2    1    2    0    0 -0.80935734977E+02 -0.27477083658E+02  0.10385331459E+03  0.18368085234E+03  0.12509021241E+03 0.  0.
        -24    2    1    2    0    0  0.48882526397E+02 -0.67475030081E+02  0.10359211163E+04  0.10423294199E+04  0.79847851515E+02 0.  0.
        -13    1    3    3    0    0 -0.15746454734E+02  0.66297483410E+02 -0.12631254120E+03  0.14352060900E+03  0.00000000000E+00 0.  1.
         14    1    3    3    0    0  0.47799663315E+02  0.28654630329E+02 -0.19019171500E+03  0.19818875878E+03  0.00000000000E+00 0. -1.
         11    1    5    5    0    0  0.39392026065E+02 -0.85962914190E+02  0.83559961984E+03  0.84093286237E+03  0.00000000000E+00 0. -1.
        -12    1    5    5    0    0  0.94905003321E+01  0.18487884108E+02  0.20032149646E+03  0.20139655757E+03  0.00000000000E+00 0.  1.
          5    1    4    4  501    0  0.13201006736E+02 -0.48777265494E+02  0.57074079010E+02  0.76344031219E+02  0.41800000000E+01 0. -1.
         -5    1    4    4    0  501 -0.94136741713E+02  0.21300181836E+02  0.46779235576E+02  0.10733682112E+03  0.41800000000E+01 0. -1.
</event>
<event>
11    1  0.8039394E-009  0.1268774E+03  0.7561462E-02  0.1123166E+00
         22   -1    0    0    0    0  0.00000000000E+00  0.00000000000E+00  0.42740882675E+03  0.42740882675E+03  0.00000000000E+00 0. -1.
         22   -1    0    0    0    0 -0.00000000000E+00 -0.00000000000E+00 -0.45380074248E+03  0.45380074248E+03  0.00000000000E+00 0. -1.
        -24    2    1    2    0    0  0.21714144199E+02  0.21862825984E+00 -0.40737989021E+03  0.41607790179E+03  0.81797882330E+02 0.  0.
         25    2    1    2    0    0 -0.88633172859E+01  0.10077092213E+02  0.71272114487E+02  0.14459431948E+03  0.12509075402E+03 0.  0.
         24    2    1    2    0    0 -0.12850826913E+02 -0.10295720472E+02  0.30971585999E+03  0.32053734796E+03  0.80926706927E+02 0.  0.
        -11    1    5    5    0    0 -0.45029630557E+02 -0.16847269834E+02  0.21435379420E+03  0.21967941919E+03  0.00000000000E+00 0.  1.
         12    1    5    5    0    0  0.32178803644E+02  0.65515493616E+01  0.95362065789E+02  0.10085792876E+03  0.00000000000E+00 0. -1.
         13    1    3    3    0    0  0.44758020440E+02  0.23459628138E+02 -0.28228409035E+03  0.28677158543E+03  0.00000000000E+00 0. -1.
        -14    1    3    3    0    0 -0.23043876241E+02 -0.23240999878E+02 -0.12509579986E+03  0.12930631636E+03  0.00000000000E+00 0.  1.
          5    1    4    4  501    0  0.54685893756E+02 -0.15485300372E+02  0.28350553922E+02  0.63651927003E+02  0.41800000000E+01 0.  1.
         -5    1    4    4    0  501 -0.63549211042E+02  0.25562392585E+02  0.42921560564E+02  0.80942392478E+02  0.41800000000E+01 0.  1.
</event>
<event>
11    1  0.8039394E-009  0.1939013E+03  0.7561462E-02  0.1058922E+00
         22   -1    0    0    0    0  0.00000000000E+00  0.00000000000E+00  0.11524474757E+04  0.11524474757E+04  0.00000000000E+00 0.  1.
         22   -1    0    0    0    0 -0.00000000000E+00 -0.00000000000E+00 -0.19547706491E+03  0.19547706491E+03  0.00000000000E+00 0. -1.
        -24    2    1    2    0    0  0.14364016277E+03  0.28376759750E+02 -0.13227655988E+03  0.21342622494E+03  0.81338357153E+02 0.  0.
         25    2    1    2    0    0 -0.18476314816E+03  0.39137431033E+01  0.74569915281E+03  0.77837547282E+03  0.12509361248E+03 0.  0.
         24    2    1    2    0    0  0.41122985390E+02 -0.32290502854E+02  0.34354781788E+03  0.35612284288E+03  0.77875538832E+02 0.  0.
        -11    1    5    5    0    0  0.53778621605E+02 -0.19512132709E+02  0.13266412475E+03  0.14447364279E+03  0.00000000000E+00 0.  1.
         12    1    5    5    0    0 -0.12655636214E+02 -0.12778370145E+02  0.21088369312E+03  0.21164920009E+03  0.00000000000E+00 0. -1.
         11    1    3    3    0    0  0.13025410201E+03  0.49494221089E+02 -0.95388420984E+02  0.16886313947E+03  0.00000000000E+00 0. -1.
        -12    1    3    3    0    0  0.13386060758E+02 -0.21117461339E+02 -0.36888138891E+02  0.44563085473E+02  0.00000000000E+00 0.  1.
          5    1    4    4  501    0 -0.90528425154E+02  0.40712327119E+02  0.19947870889E+03  0.22284998775E+03  0.41800000000E+01 0. -1.
         -5    1    4    4    0  501 -0.94234723008E+02 -0.36798584016E+02  0.54622044392E+03  0.55552548507E+03  0.41800000000E+01 0. -1.
</event>
<event>
11    1  0.8039394E-009  0.1810996E+03  0.7561462E-02  0.1068757E+00
         22   -1    0    0    0    0  0.00000000000E+00  0.00000000000E+00  0.18675244176E+04  0.18675244176E+04  0.00000000000E+00 0.  1.
         22   -1    0    0    0    0 -0.00000000000E+00 -0.00000000000E+00 -0.20889623699E+03  0.20889623699E+03  0.00000000000E+00 0. -1.
         24    2    1    2    0    0 -0.31870157341E+02  0.51638648129E+02 -0.14161393540E+03  0.17358445313E+03  0.79967485658E+02 0.  0.
         25    2    1    2    0    0  0.14133183672E+03 -0.11653538480E+03  0.20985252433E+03  0.30533818151E+03  0.12505254551E+03 0.  0.
        -24    2    1    2    0    0 -0.10946167938E+03  0.64896736666E+02  0.15903895917E+04  0.15974980199E+04  0.80420300411E+02 0.  0.
        -13    1    3    3    0    0 -0.16073112545E+01 -0.19729111911E+02 -0.13906846378E+02  0.24191355531E+02  0.00000000000E+00 0.  1.
         14    1    3    3    0    0 -0.30262846087E+02  0.71367760039E+02 -0.12770708902E+03  0.14939309760E+03  0.00000000000E+00 0. -1.
         11    1    5    5    0    0  0.60046842406E+01  0.23227537566E+02  0.42100870251E+03  0.42169171479E+03  0.00000000000E+00 0. -1.
        -12    1    5    5    0    0 -0.11546636362E+03  0.41669199100E+02  0.11693808891E+04  0.11758063051E+04  0.00000000000E+00 0.  1.
          5    1    4    4  501    0  0.64655571102E+02  0.33923197069E+01  0.19761891168E+02  0.67822234186E+02  0.41800000000E+01 0. -1.
         -5    1    4    4    0  501  0.76676265619E+02 -0.11992770450E+03  0.19009063316E+03  0.23751594732E+03  0.41800000000E+01 0. -1.
</event>
<event>
11    1  0.8039394E-009  0.1797343E+03  0.7561462E-02  0.1069858E+00
         22   -1    0    0    0    0  0.00000000000E+00  0.00000000000E+00  0.30643735804E+03  0.30643735804E+03  0.00000000000E+00 0. -1.
         22   -1    0    0    0    0 -0.00000000000E+00 -0.00000000000E+00 -0.78087473043E+03  0.78087473043E+03  0.00000000000E+00 0.  1.
        -24    2    1    2    0    0  0.45218257693E+02 -0.54303619873E+02 -0.66304309605E+03  0.67506813990E+03  0.10534359179E+03 0.  0.
         25    2    1    2    0    0  0.50898355298E+02  0.13767649356E+03  0.32767816296E+02  0.19561885947E+03  0.12509016326E+03 0.  0.
         24    2    1    2    0    0 -0.96116612991E+02 -0.83372873691E+02  0.15583790737E+03  0.21662508910E+03  0.80321457236E+02 0.  0.
        -11    1    5    5    0    0 -0.10915712874E+02 -0.59890599377E+02  0.50291686000E+02  0.78963854782E+02  0.00000000000E+00 0.  1.
         12    1    5    5    0    0 -0.85200900118E+02 -0.23482274314E+02  0.10554622137E+03  0.13766123432E+03  0.00000000000E+00 0. -1.
         11    1    3    3    0    0 -0.25920784775E+02 -0.17410960844E+02 -0.70174136867E+02  0.76807799902E+02  0.00000000000E+00 0. -1.
        -12    1    3    3    0    0  0.71139042468E+02 -0.36892659029E+02 -0.59286895918E+03  0.59826034000E+03  0.00000000000E+00 0.  1.
          5    1    4    4  501    0  0.80483832012E+02  0.72000354566E+02  0.53441707105E+02  0.12056196221E+03  0.41800000000E+01 0.  1.
         -5    1    4    4    0  501 -0.29585476713E+02  0.65676138999E+02 -0.20673890809E+02  0.75056897267E+02  0.41800000000E+01 0.  1.
</event>
<event>
11    1  0.8039394E-009  0.1588014E+03  0.7561462E-02  0.1088210E+00
         22   -1    0    0    0    0  0.00000000000E+00  0.00000000000E+00  0.76809988453E+03  0.76809988453E+03  0.00000000000E+00 0. -1.
         22   -1    0    0    0    0 -0.00000000000E+00 -0.00000000000E+00 -0.28984377707E+03  0.28984377707E+03  0.00000000000E+00 0.  1.
         24    2    1    2    0    0 -0.67669239468E+02 -0.77707509769E+02 -0.21323148992E+03  0.25106672958E+03  0.83362169840E+02 0.  0.
         25    2    1    2    0    0  0.54926107555E+02  0.46968521930E+02  0.40485693038E+02  0.15003071718E+03  0.12508879012E+03 0.  0.
        -24    2    1    2    0    0  0.12743131914E+02  0.30738987840E+02  0.65100190435E+03  0.65684621484E+03  0.80846754397E+02 0.  0.
        -11    1    3    3    0    0  0.14081641633E+02 -0.34461537278E+02 -0.39671214954E+02  0.54403083355E+02  0.00000000000E+00 0.  1.
         12    1    3    3    0    0 -0.81750881101E+02 -0.43245972491E+02 -0.17356027497E+03  0.19666364622E+03  0.00000000000E+00 0. -1.
         13    1    5    5    0    0  0.45596496501E+02  0.92568897637E+01  0.28884329142E+03  0.29256653517E+03  0.00000000000E+00 0. -1.
        -14    1    5    5    0    0 -0.32853364588E+02  0.21482098076E+02  0.36215861293E+03  0.36427967967E+03  0.00000000000E+00 0.  1.
          5    1    4    4  501    0  0.26761311522E+02  0.68025364893E+02 -0.23500407953E+02  0.76898372136E+02  0.41800000000E+01 0. -1.
         -5    1    4    4    0  501  0.28164796033E+02 -0.21056842963E+02  0.63986100992E+02  0.73132345042E+02  0.41800000000E+01 0. -1.
</event>
<event>
11    1  0.8039394E-009  0.1317255E+03  0.7561462E-02  0.1117167E+00
         22   -1    0    0    0    0  0.00000000000E+00  0.00000000000E+00  0.96002534509E+02  0.96002534509E+02  0.00000000000E+00 0.  1.
         22   -1    0    0    0    0 -0.00000000000E+00 -0.00000000000E+00 -0.31685688410E+04  0.31685688410E+04  0.00000000000E+00 0. -1.
        -24    2    1    2    0    0  0.26880247256E+02  0.34062968030E+02 -0.20716135673E+04  0.20735042269E+04  0.77163288929E+02 0.  0.
         25    2    1    2    0    0  0.32467438126E+01 -0.41365832162E+02 -0.10720086433E+04  0.10800793228E+04  0.12508852399E+03 0.  0.
         24    2    1    2    0    0 -0.30126991068E+02  0.73028641327E+01  0.71055904095E+02  0.11098782584E+03  0.79425364732E+02 0.  0.
        -11    1    5    5    0    0 -0.21668198438E+02  0.72767500677E+01  0.88605376959E+02  0.91506145920E+02  0.00000000000E+00 0.  1.
         12    1    5    5    0    0 -0.84587926300E+01  0.26114065029E-01 -0.17549472865E+02  0.19481679921E+02  0.00000000000E+00 0. -1.
         13    1    3    3    0    0  0.47760646969E+02  0.24612852851E+02 -0.18342354261E+04  0.18350221989E+04  0.00000000000E+00 0. -1.
        -14    1    3    3    0    0 -0.20880399713E+02  0.94501151792E+01 -0.23737814118E+03  0.23848202800E+03  0.00000000000E+00 0.  1.
          5    1    4    4  501    0  0.37916844495E+02 -0.68048003294E+02 -0.46648578310E+03  0.47296371540E+03  0.41800000000E+01 0. -1.
         -5    1    4    4    0  501 -0.34670100683E+02  0.26682171132E+02 -0.60552286016E+03  0.60711560737E+03  0.41800000000E+01 0. -1.
</event>
<event>
11    1  0.8558241E-009  0.2171961E+03  0.7561462E-02  0.1042988E+00
         22   -1    0    0    0    0  0.00000000000E+00  0.00000000000E+00  0.26233487833E+03  0.26233487833E+03  0.00000000000E+00 0.  1.
         22   -1    0    0    0    0 -0.00000000000E+00 -0.00000000000E+00 -0.16481616682E+04  0.16481616682E+04  0.00000000000E+00 0.  1.
        -24    2    1    2    0    0 -0.35821138268E+02 -0.17562014560E+02 -0.68444788001E+03  0.69033677463E+03  0.80649759171E+02 0.  0.
         25    2    1    2    0    0 -0.39963831551E+02 -0.14436893346E+03 -0.91216324113E+03  0.93280806495E+03  0.12509840449E+03 0.  0.
         24    2    1    2    0    0  0.75784969819E+02  0.16193094802E+03  0.21078433130E+03  0.28735170690E+03  0.78587375325E+02 0.  0.
        -13    1    5    5    0    0  0.52308336528E+02  0.16082841214E+03  0.19868706542E+03  0.26091855087E+03  0.00000000000E+00 0.  1.
         14    1    5    5    0    0  0.23476633291E+02  0.11025358739E+01  0.12097265886E+02  0.26433156035E+02  0.00000000000E+00 0. -1.
         11    1    3    3    0    0 -0.31206208232E+02 -0.22423717401E+02 -0.12330966051E+03  0.12915851853E+03  0.00000000000E+00 0. -1.
        -12    1    3    3    0    0 -0.46149300363E+01  0.48617028407E+01 -0.56113821950E+03  0.56117825610E+03  0.00000000000E+00 0.  1.
          5    1    4    4  501    0 -0.75350059502E+02 -0.45120414558E+02 -0.47822571305E+03  0.48624149175E+03  0.41800000000E+01 0.  1.
         -5    1    4    4    0  501  0.35386227951E+02 -0.99248518898E+02 -0.43393752808E+03  0.44656657321E+03  0.41800000000E+01 0.  1.
</event>
<event>
11    1  0.8039394E-009  0.1499367E+03  0.7561462E-02  0.1096943E+00
         22   -1    0    0    0    0  0.00000000000E+00  0.00000000000E+00  0.49231396990E+03  0.49231396990E+03  0.00000000000E+00 0. -1.
         22   -1    0    0    0    0 -0.00000000000E+00 -0.00000000000E+00 -0.24321526793E+04  0.24321526793E+04  0.00000000000E+00 0.  1.
         24    2    1    2    0    0 -0.45004088352E+02 -0.82374309407E+01 -0.23756996966E+04  0.23774824543E+04  0.79878337715E+02 0.  0.
         25    2    1    2    0    0 -0.27018732683E+01  0.79016286780E+02  0.71057446051E+02  0.16415783580E+03  0.12509100975E+03 0.  0.
        -24    2    1    2    0    0  0.47705961620E+02 -0.70778855839E+02  0.36480354120E+03  0.38282635906E+03  0.78669513228E+02 0.  0.
        -11    1    3    3    0    0 -0.41222405406E+02 -0.17130148503E+02 -0.23419801409E+04  0.23424055389E+04  0.00000000000E+00 0.  1.
         12    1    3    3    0    0 -0.37816829463E+01  0.88927175621E+01 -0.33719555770E+02  0.35076915384E+02  0.00000000000E+00 0. -1.
         11    1    5    5    0    0  0.23266958335E+02 -0.48167638125E+02  0.33130692638E+03  0.33559760455E+03  0.00000000000E+00 0. -1.
        -12    1    5    5    0    0  0.24439003285E+02 -0.22611217714E+02  0.33496614816E+02  0.47228754506E+02  0.00000000000E+00 0.  1.
          5    1    4    4  501    0  0.25746443542E+02 -0.21573224404E+02 -0.57998437367E+01  0.34342305595E+02  0.41800000000E+01 0. -1.
         -5    1    4    4    0  501 -0.28448316810E+02  0.10058951118E+03  0.76857289788E+02  0.12981553021E+03  0.41800000000E+01 0. -1.
</event>
<event>
11    1  0.8039394E-009  0.1415378E+03  0.7561462E-02  0.1105853E+00
         22   -1    0    0    0    0  0.00000000000E+00  0.00000000000E+00  0.24548509181E+04  0.24548509181E+04  0.00000000000E+00 0. -1.
         22   -1    0    0    0    0 -0.00000000000E+00 -0.00000000000E+00 -0.34142346867E+02  0.34142346867E+02  0.00000000000E+00 0. -1.
         24    2    1    2    0    0 -0.26303803295E+02  0.15644764845E+02  0.48308989674E+02  0.97980592007E+02  0.79559972297E+02 0.  0.
         25    2    1    2    0    0 -0.18082082450E+02 -0.65788006910E+02  0.64780498080E+03  0.66329258216E+03  0.12510288902E+03 0.  0.
        -24    2    1    2    0    0  0.44385885744E+02  0.50143242066E+02  0.17245946008E+04  0.17277200908E+04  0.79408586504E+02 0.  0.
        -11    1    3    3    0    0 -0.45103380388E+02  0.23039650889E+02  0.56769886595E+02  0.76078646541E+02  0.00000000000E+00 0.  1.
         12    1    3    3    0    0  0.18799577094E+02 -0.73948860442E+01 -0.84608969203E+01  0.21901945466E+02  0.00000000000E+00 0. -1.
         11    1    5    5    0    0  0.49323882728E+02  0.12206703549E+02  0.13929176403E+04  0.13938441095E+04  0.00000000000E+00 0. -1.
        -12    1    5    5    0    0 -0.49379969843E+01  0.37936538516E+02  0.33167696054E+03  0.33387598135E+03  0.00000000000E+00 0.  1.
          5    1    4    4  501    0 -0.56699530866E+02 -0.67022483948E+02  0.28072785587E+03  0.29416398763E+03  0.41800000000E+01 0.  1.
         -5    1    4    4    0  501  0.38617448417E+02  0.12344770382E+01  0.36707712493E+03  0.36912859453E+03  0.41800000000E+01 0.  1.
</event>
<event>
11    1  0.8039394E-009  0.1333680E+03  0.7561462E-02  0.1115199E+00
         22   -1    0    0    0    0  0.00000000000E+00  0.00000000000E+00  0.92780089121E+03  0.92780089121E+03  0.00000000000E+00 0.  1.
         22   -1    0    0    0    0 -0.00000000000E+00 -0.00000000000E+00 -0.60667471065E+03  0.60667471065E+03  0.00000000000E+00 0. -1.
        -24    2    1    2    0    0 -0.27446093631E+02 -0.36760022139E+02 -0.57683978156E+03  0.58461979996E+03  0.83256168715E+02 0.  0.
         25    2    1    2    0    0  0.12675995169E+02  0.78546262129E+02  0.21688100971E+03  0.26270401748E+03  0.12508330137E+03 0.  0.
         24    2    1    2    0    0  0.14770098462E+02 -0.41786239990E+02  0.68108495241E+03  0.68715178441E+03  0.79602869036E+02 0.  0.
        -13    1    5    5    0    0  0.40190003233E+02 -0.15533691966E+02  0.52843856949E+03  0.53019227990E+03  0.00000000000E+00 0.  1.
         14    1    5    5    0    0 -0.25419904771E+02 -0.26252548024E+02  0.15264638293E+03  0.15695950451E+03  0.00000000000E+00 0. -1.
         11    1    3    3    0    0  0.19647733239E+02 -0.39248105964E+02 -0.36285667876E+03  0.36550159585E+03  0.00000000000E+00 0. -1.
        -12    1    3    3    0    0 -0.47093826870E+02  0.24880838244E+01 -0.21398310280E+03  0.21911820411E+03  0.00000000000E+00 0.  1.
          5    1    4    4  501    0 -0.18958998109E+02  0.31678025395E+02  0.20017557665E+03  0.20359438791E+03  0.41800000000E+01 0. -1.
         -5    1    4    4    0  501  0.31634993278E+02  0.46868236734E+02  0.16705433058E+02  0.59109629571E+02  0.41800000000E+01 0. -1.
</event>
<event>
11    1  0.8039394E-009  0.1260701E+03  0.7561462E-02  0.1124194E+00
         22   -1    0    0    0    0  0.00000000000E+00  0.00000000000E+00  0.15347165686E+04  0.15347165686E+04  0.00000000000E+00 0.  1.
         22   -1    0    0    0    0 -0.00000000000E+00 -0.00000000000E+00 -0.37734190245E+02  0.37734190245E+02  0.00000000000E+00 0. -1.
        -24    2    1    2    0    0 -0.95688519624E+01  0.10832041704E+02  0.32818352164E+02  0.91452844731E+02  0.84128963593E+02 0.  0.
         25    2    1    2    0    0 -0.85186562103E-01 -0.37246927173E+02  0.69524961299E+03  0.70739477269E+03  0.12509196307E+03 0.  0.
         24    2    1    2    0    0  0.96540385245E+01  0.26414885470E+02  0.76891441320E+03  0.77360314142E+03  0.80258949420E+02 0.  0.
        -13    1    5    5    0    0 -0.40965329310E+01  0.41963995594E+02  0.20420860500E+03  0.20851597748E+03  0.00000000000E+00 0.  1.
         14    1    5    5    0    0  0.13750571456E+02 -0.15549110124E+02  0.56470580820E+03  0.56508716394E+03  0.00000000000E+00 0. -1.
         11    1    3    3    0    0  0.67155896984E+01  0.44297885483E+02  0.51949877460E+01  0.45104209348E+02  0.00000000000E+00 0. -1.
        -12    1    3    3    0    0 -0.16284441661E+02 -0.33465843779E+02  0.27623364418E+02  0.46348635383E+02  0.00000000000E+00 0.  1.
          5    1    4    4  501    0 -0.56878325494E+02 -0.87063603399E+01  0.46256092609E+03  0.46614485663E+03  0.41800000000E+01 0. -1.
         -5    1    4    4    0  501  0.56793138932E+02 -0.28540566834E+02  0.23268868691E+03  0.24124991606E+03  0.41800000000E+01 0. -1.
</event>
<event>
11    1  0.8039394E-009  0.1391722E+03  0.7561462E-02  0.1108486E+00
         22   -1    0    0    0    0  0.00000000000E+00  0.00000000000E+00  0.35515544039E+03  0.35515544039E+03  0.00000000000E+00 0.  1.
         22   -1    0    0    0    0 -0.00000000000E+00 -0.00000000000E+00 -0.18261209083E+04  0.18261209083E+04  0.00000000000E+00 0. -1.
         24    2    1    2    0    0 -0.37592349207E+02  0.47387571337E+02 -0.14601639212E+04  0.14636292454E+04  0.80455730542E+02 0.  0.
         25    2    1    2    0    0 -0.15796766584E+02 -0.77318940638E+02 -0.34062348396E+03  0.37134820462E+03  0.12508946730E+03 0.  0.
        -24    2    1    2    0    0  0.53389115791E+02  0.29931369301E+02  0.32982193734E+03  0.34629889858E+03  0.85989140357E+02 0.  0.
        -13    1    3    3    0    0  0.12280323353E+02 -0.38272801368E+01 -0.69840383853E+03  0.69852228031E+03  0.00000000000E+00 0.  1.
         14    1    3    3    0    0 -0.49872672560E+02  0.51214851474E+02 -0.76176008271E+03  0.76510696513E+03  0.00000000000E+00 0. -1.
         11    1    5    5    0    0 -0.22580450161E+02  0.16945605512E+02  0.99232764671E+02  0.10317059591E+03  0.00000000000E+00 0. -1.
        -12    1    5    5    0    0  0.75969565952E+02  0.12985763790E+02  0.23058917266E+03  0.24312830268E+03  0.00000000000E+00 0.  1.
          5    1    4    4  501    0  0.48439065070E+02 -0.58288687091E+02 -0.22727125995E+03  0.23961137716E+03  0.41800000000E+01 0.  1.
         -5    1    4    4    0  501 -0.64235831655E+02 -0.19030253547E+02 -0.11335222401E+03  0.13173682745E+03  0.41800000000E+01 0.  1.
</event>
<event>
11    1  0.8039394E-009  0.1943718E+03  0.7561462E-02  0.1058577E+00
         22   -1    0    0    0    0  0.00000000000E+00  0.00000000000E+00  0.20316048276E+04  0.20316048276E+04  0.00000000000E+00 0.  1.
         22   -1    0    0    0    0 -0.00000000000E+00 -0.00000000000E+00 -0.14944073444E+03  0.14944073444E+03  0.00000000000E+00 0. -1.
         24    2    1    2    0    0  0.64170783737E+02  0.80130579745E+02 -0.89047071550E+02  0.15744068205E+03  0.79494579158E+02 0.  0.
         25    2    1    2    0    0 -0.16372284251E+03  0.33290738696E+02  0.49182048277E+03  0.53427648644E+03  0.12510209528E+03 0.  0.
        -24    2    1    2    0    0  0.99552058775E+02 -0.11342131844E+03  0.14793906820E+04  0.14893283936E+04  0.82019913348E+02 0.  0.
        -13    1    3    3    0    0 -0.73009694462E+01  0.35058127753E+02 -0.16089245762E+01  0.35846410067E+02  0.00000000000E+00 0.  1.
         14    1    3    3    0    0  0.71471753184E+02  0.45072451992E+02 -0.87438146973E+02  0.12159427198E+03  0.00000000000E+00 0. -1.
         13    1    5    5    0    0 -0.14514872084E+02 -0.98947500150E+01  0.17158881187E+03  0.17248567462E+03  0.00000000000E+00 0. -1.
        -14    1    5    5    0    0  0.11406693086E+03 -0.10352656843E+03  0.13078018701E+04  0.13168427190E+04  0.00000000000E+00 0.  1.
          5    1    4    4  501    0 -0.48140928623E+02 -0.47201203288E+02  0.17206892061E+03  0.18485315372E+03  0.41800000000E+01 0. -1.
         -5    1    4    4    0  501 -0.11558191389E+03  0.80491941983E+02  0.31975156217E+03  0.34942333272E+03  0.41800000000E+01 0. -1.
</event>
<event>
11    1  0.8039394E-009  0.1616202E+03  0.7561462E-02  0.1085563E+00
         22   -1    0    0    0    0  0.00000000000E+00  0.00000000000E+00  0.18256688853E+03  0.18256688853E+03  0.00000000000E+00 0. -1.
         22   -1    0    0    0    0 -0.00000000000E+00 -0.00000000000E+00 -0.11814852262E+04  0.11814852262E+04  0.00000000000E+00 0. -1.
        -24    2    1    2    0    0 -0.65777545129E+02  0.77049894762E+02 -0.88665758700E+03  0.89598989385E+03  0.79830079288E+02 0.  0.
         25    2    1    2    0    0  0.12151570815E+03 -0.35133406449E+02 -0.24184569511E+03  0.30022446135E+03  0.12507982799E+03 0.  0.
         24    2    1    2    0    0 -0.55738163021E+02 -0.41916488313E+02  0.12958494442E+03  0.16783775955E+03  0.80706386995E+02 0.  0.
        -11    1    5    5    0    0 -0.13690014762E+02 -0.79607962958E+01 -0.96060666679E+01  0.18522075982E+02  0.00000000000E+00 0.  1.
         12    1    5    5    0    0 -0.42048148259E+02 -0.33955692017E+02  0.13919101109E+03  0.14931568357E+03  0.00000000000E+00 0. -1.
         11    1    3    3    0    0 -0.61100991788E+02  0.88635619216E+02 -0.63803098502E+03  0.64704956691E+03  0.00000000000E+00 0. -1.
        -12    1    3    3    0    0 -0.46765533414E+01 -0.11585724454E+02 -0.24862660199E+03  0.24894032694E+03  0.00000000000E+00 0.  1.
          5    1    4    4  501    0  0.14035642189E+03 -0.79417347885E+01 -0.21720630312E+03  0.25876446207E+03  0.41800000000E+01 0.  1.
         -5    1    4    4    0  501 -0.18840713741E+02 -0.27191671661E+02 -0.24639391994E+02  0.41459999274E+02  0.41800000000E+01 0.  1.
</event>
<event>
11    1  0.8039394E-009  0.1966173E+03  0.7561462E-02  0.1056942E+00
         22   -1    0    0    0    0  0.00000000000E+00  0.00000000000E+00  0.88789658951E+03  0.88789658951E+03  0.00000000000E+00 0. -1.
         22   -1    0    0    0    0 -0.00000000000E+00 -0.00000000000E+00 -0.28807917087E+03  0.28807917087E+03  0.00000000000E+00 0.  1.
         24    2    1    2    0    0  0.66558924508E+02 -0.13451031225E+03 -0.19732773488E+03  0.26073400656E+03  0.80751920656E+02 0.  0.
         25    2    1    2    0    0 -0.81438924863E+02  0.13934193203E+03  0.12770677535E+03  0.24084416864E+03  0.12509364730E+03 0.  0.
        -24    2    1    2    0    0  0.14880000356E+02 -0.48316197717E+01  0.66943837817E+03  0.67439758519E+03  0.80122417460E+02 0.  0.
        -13    1    3    3    0    0  0.80105925540E+02 -0.94767507817E+02 -0.11934483864E+03  0.17216570609E+03  0.00000000000E+00 0.  1.
         14    1    3    3    0    0 -0.13547001033E+02 -0.39742804436E+02 -0.77982896242E+02  0.88568300468E+02  0.00000000000E+00 0. -1.
         13    1    5    5    0    0  0.16537368752E+02 -0.31388591332E+02  0.58002214336E+03  0.58110619943E+03  0.00000000000E+00 0. -1.
        -14    1    5    5    0    0 -0.16573683969E+01  0.26556971560E+02  0.89416234809E+02  0.93291385754E+02  0.00000000000E+00 0.  1.
          5    1    4    4  501    0  0.15499225986E+02  0.94287206878E+02  0.45428590959E+02  0.10588452514E+03  0.41800000000E+01 0.  1.
         -5    1    4    4    0  501 -0.96938150849E+02  0.45054725147E+02  0.82278184394E+02  0.13495964351E+03  0.41800000000E+01 0.  1.
</event>
<event>
11    1  0.8039394E-009  0.1453422E+03  0.7561462E-02  0.1101735E+00
         22   -1    0    0    0    0  0.00000000000E+00  0.00000000000E+00  0.76907336567E+02  0.76907336567E+02  0.00000000000E+00 0. -1.
         22   -1    0    0    0    0 -0.00000000000E+00 -0.00000000000E+00 -0.79136436002E+03  0.79136436002E+03  0.00000000000E+00 0. -1.
         24    2    1    2    0    0  0.57443357025E+02 -0.45837499151E+02 -0.58515163950E+03  0.59533516500E+03  0.81367695568E+02 0.  0.
         25    2    1    2    0    0 -0.49466733488E+02  0.62004921483E+02 -0.11952955645E+03  0.19033165492E+03  0.12508899228E+03 0.  0.
        -24    2    1    2    0    0 -0.79766235367E+01 -0.16167422332E+02 -0.97758275117E+01  0.82604876676E+02  0.80018665192E+02 0.  0.
        -11    1    3    3    0    0  0.79349675591E+01  0.21944790863E+02 -0.83060958587E+02  0.86276650362E+02  0.00000000000E+00 0.  1.
         12    1    3    3    0    0  0.49508389466E+02 -0.67782290014E+02 -0.50209068091E+03  0.50905851464E+03  0.00000000000E+00 0. -1.
         11    1    5    5    0    0  0.12451683212E+02  0.82494479205E+01  0.28888033408E+02  0.32521012899E+02  0.00000000000E+00 0. -1.
        -12    1    5    5    0    0 -0.20428306749E+02 -0.24416870253E+02 -0.38663860920E+02  0.50083863777E+02  0.00000000000E+00 0.  1.
          5    1    4    4  501    0  0.21310138069E+02  0.68112527281E+02 -0.34282056662E+02  0.79285371703E+02  0.41800000000E+01 0.  1.
         -5    1    4    4    0  501 -0.70776871557E+02 -0.61076057979E+01 -0.85247499788E+02  0.11104628322E+03  0.41800000000E+01 0.  1.
</event>
<event>
11    1  0.8039394E-009  0.1569747E+03  0.7561462E-02  0.1089958E+00
         22   -1    0    0    0    0  0.00000000000E+00  0.00000000000E+00  0.57291519268E+03  0.57291519268E+03  0.00000000000E+00 0.  1.
         22   -1    0    0    0    0 -0.00000000000E+00 -0.00000000000E+00 -0.10638253215E+04  0.10638253215E+04  0.00000000000E+00 0. -1.
        -24    2    1    2    0    0 -0.32344627857E+02  0.59227692403E+02 -0.97702165106E+03  0.98288179868E+03  0.83254003205E+02 0.  0.
         25    2    1    2    0    0  0.74086982543E+02 -0.13696114383E+03  0.56123601214E+02  0.20747482077E+03  0.12509479102E+03 0.  0.
         24    2    1    2    0    0 -0.41742354687E+02  0.77733451423E+02  0.42998792101E+03  0.44638389474E+03  0.81142193844E+02 0.  0.
        -11    1    5    5    0    0  0.22060438746E+01  0.69011291613E+02  0.32467876206E+03  0.33193933713E+03  0.00000000000E+00 0.  1.
         12    1    5    5    0    0 -0.43948398561E+02  0.87221598098E+01  0.10530915895E+03  0.11444455761E+03  0.00000000000E+00 0. -1.
         13    1    3    3    0    0  0.15472139553E+02  0.54549426810E+02 -0.63065328260E+03  0.63319711775E+03  0.00000000000E+00 0. -1.
        -14    1    3    3    0    0 -0.47816767410E+02  0.46782655936E+01 -0.34636836845E+03  0.34968468093E+03  0.00000000000E+00 0.  1.
          5    1    4    4  501    0  0.76393455009E+02 -0.91763077273E+02  0.91002492301E+02  0.15018438109E+03  0.41800000000E+01 0.  1.
         -5    1    4    4    0  501 -0.23064724660E+01 -0.45198066553E+02 -0.34878891088E+02  0.57290439681E+02  0.41800000000E+01 0.  1.
</event>
<event>
11    1  0.8039394E-009  0.1544344E+03  0.7561462E-02  0.1092432E+00
         22   -1    0    0    0    0  0.00000000000E+00  0.00000000000E+00  0.12729702945E+04  0.12729702945E+04  0.00000000000E+00 0.  1.
         22   -1    0    0    0    0 -0.00000000000E+00 -0.00000000000E+00 -0.87989118146E+02  0.87989118146E+02  0.00000000000E+00 0.  1.
        -24    2    1    2    0    0 -0.72489694445E+02 -0.37660473224E+02 -0.20170762632E+02  0.11617681568E+03  0.80106964695E+02 0.  0.
         25    2    1    2    0    0  0.12117972874E+03 -0.33060346471E+02  0.51098210897E+03  0.54085801433E+03  0.12508861982E+03 0.  0.
         24    2    1    2    0    0 -0.48690034296E+02  0.70720819695E+02  0.69416982997E+03  0.70392458259E+03  0.79157509808E+02 0.  0.
        -11    1    5    5    0    0 -0.67070797293E+02  0.70408017323E+02  0.54266534789E+03  0.55130886130E+03  0.00000000000E+00 0.  1.
         12    1    5    5    0    0  0.18380762997E+02  0.31280237200E+00  0.15150448208E+03  0.15261572129E+03  0.00000000000E+00 0. -1.
         11    1    3    3    0    0 -0.50442285175E+02 -0.30830469167E+02  0.25981045126E+02  0.64575201654E+02  0.00000000000E+00 0. -1.
        -12    1    3    3    0    0 -0.22047409270E+02 -0.68300040566E+01 -0.46151807758E+02  0.51601614028E+02  0.00000000000E+00 0.  1.
          5    1    4    4  501    0  0.43571686964E+02  0.54498373250E+01  0.33047379134E+02  0.55116189086E+02  0.41800000000E+01 0. -1.
         -5    1    4    4    0  501  0.77608041777E+02 -0.38510183796E+02  0.47793472984E+03  0.48574182524E+03  0.41800000000E+01 0. -1.
</event>
<event>
11    1  0.8039394E-009  0.1960765E+03  0.7561462E-02  0.1057333E+00
         22   -1    0    0    0    0  0.00000000000E+00  0.00000000000E+00  0.11441154749E+04  0.11441154749E+04  0.00000000000E+00 0.  1.
         22   -1    0    0    0    0 -0.00000000000E+00 -0.00000000000E+00 -0.44095218721E+03  0.44095218721E+03  0.00000000000E+00 0.  1.
         24    2    1    2    0    0 -0.14199050761E+03 -0.34490035551E+02 -0.31330987485E+03  0.35500420273E+03  0.80709599639E+02 0.  0.
         25    2    1    2    0    0  0.15102599992E+03  0.14002989324E+03  0.39061263168E+02  0.24410987355E+03  0.12508646781E+03 0.  0.
        -24    2    1    2    0    0 -0.90354923158E+01 -0.10553985769E+03  0.97741189942E+03  0.98595358588E+03  0.74499333578E+02 0.  0.
        -11    1    3    3    0    0 -0.82489043681E+02  0.20062967458E+02 -0.18271935419E+03  0.20147785831E+03  0.00000000000E+00 0.  1.
         12    1    3    3    0    0 -0.59501463926E+02 -0.54553003009E+02 -0.13059052066E+03  0.15352634443E+03  0.00000000000E+00 0. -1.
         13    1    5    5    0    0  0.28503031372E+02 -0.76361493002E+02  0.57688463708E+03  0.58261426768E+03  0.00000000000E+00 0. -1.
        -14    1    5    5    0    0 -0.37538523688E+02 -0.29178364692E+02  0.40052726234E+03  0.40333931819E+03  0.00000000000E+00 0.  1.
          5    1    4    4  501    0  0.11332738222E+03  0.16152789557E+03  0.32522062168E+02  0.20002378242E+03  0.41800000000E+01 0.  1.
         -5    1    4    4    0  501  0.37698617707E+02 -0.21498002326E+02  0.65392010007E+01  0.44086091126E+02  0.41800000000E+01 0.  1.
</event>
<event>
11    1  0.8039394E-009  0.1369666E+03  0.7561462E-02  0.1110994E+00
         22   -1    0    0    0    0  0.00000000000E+00  0.00000000000E+00  0.12539747472E+04  0.12539747472E+04  0.00000000000E+00 0.  1.
         22   -1    0    0    0    0 -0.00000000000E+00 -0.00000000000E+00 -0.46913166382E+03  0.46913166382E+03  0.00000000000E+00 0. -1.
        -24    2    1    2    0    0 -0.24216462544E+02  0.49736105963E+02 -0.44123025442E+03  0.45138053825E+03  0.77460542214E+02 0.  0.
         25    2    1    2    0    0  0.43242351174E+02 -0.68012427744E+02  0.24227633080E+03  0.28432566719E+03  0.12509066029E+03 0.  0.
         24    2    1    2    0    0 -0.19025888630E+02  0.18276321781E+02  0.98379700698E+03  0.98740020557E+03  0.80041280857E+02 0.  0.
        -13    1    5    5    0    0  0.10715628441E+02  0.72211543027E+00  0.81674828638E+03  0.81681889636E+03  0.00000000000E+00 0.  1.
         14    1    5    5    0    0 -0.29741517071E+02  0.17554206351E+02  0.16704872060E+03  0.17058130921E+03  0.00000000000E+00 0. -1.
         13    1    3    3    0    0 -0.21542243673E+02  0.60429748285E+02 -0.43273258316E+03  0.43746235412E+03  0.00000000000E+00 0. -1.
        -14    1    3    3    0    0 -0.26742188714E+01 -0.10693642322E+02 -0.84976712571E+01  0.13918184130E+02  0.00000000000E+00 0.  1.
          5    1    4    4  501    0  0.26856739457E+01  0.32618728146E+02  0.24882447644E+02  0.41325571638E+02  0.41800000000E+01 0. -1.
         -5    1    4    4    0  501  0.40556677228E+02 -0.10063115589E+03  0.21739388316E+03  0.24300009555E+03  0.41800000000E+01 0. -1.
</event>
<event>
11    1  0.8039394E-009  0.2313034E+03  0.7561462E-02  0.1034359E+00
         22   -1    0    0    0    0  0.00000000000E+00  0.00000000000E+00  0.55245860421E+03  0.55245860421E+03  0.00000000000E+00 0.  1.
         22   -1    0    0    0    0 -0.00000000000E+00 -0.00000000000E+00 -0.12888823177E+04  0.12888823177E+04  0.00000000000E+00 0. -1.
         24    2    1    2    0    0  0.53981375729E+02  0.41194233653E+01 -0.10761767394E+04  0.10803538931E+04  0.77956407275E+02 0.  0.
         25    2    1    2    0    0 -0.15787231609E+00 -0.19224660461E+03 -0.11711438900E+03  0.25753140431E+03  0.12509141533E+03 0.  0.
        -24    2    1    2    0    0 -0.53823503412E+02  0.18812718124E+03  0.45686741485E+03  0.50345562451E+03  0.80317652214E+02 0.  0.
        -11    1    3    3    0    0  0.17057861382E+02 -0.31219247770E+02 -0.67466570546E+03  0.67560300931E+03  0.00000000000E+00 0.  1.
         12    1    3    3    0    0  0.36923514347E+02  0.35338671135E+02 -0.40151103391E+03  0.40475088380E+03  0.00000000000E+00 0. -1.
         11    1    5    5    0    0 -0.13465314306E+02  0.25554009647E+02  0.18823790147E+02  0.34476907835E+02  0.00000000000E+00 0. -1.
        -12    1    5    5    0    0 -0.40358189106E+02  0.16257317160E+03  0.43804362470E+03  0.46897871667E+03  0.00000000000E+00 0.  1.
          5    1    4    4  501    0 -0.52603002088E+02 -0.41141682801E+02 -0.17898002649E+02  0.69264166718E+02  0.41800000000E+01 0. -1.
         -5    1    4    4    0  501  0.52445129772E+02 -0.15110492181E+03 -0.99216386348E+02  0.18826723759E+03  0.41800000000E+01 0. -1.
</event>
<event>
11    1  0.8039394E-009  0.3622125E+03  0.7561462E-02  0.9768341E-01
         22   -1    0    0    0    0  0.00000000000E+00  0.00000000000E+00  0.79707411430E+03  0.79707411430E+03  0.00000000000E+00 0.  1.
         22   -1    0    0    0    0 -0.00000000000E+00 -0.00000000000E+00 -0.14669759808E+04  0.14669759808E+04  0.00000000000E+00 0.  1.
        -24    2    1    2    0    0  0.30343019394E+03  0.15612153022E+03 -0.13737606605E+04  0.14176600501E+04  0.78088735586E+02 0.  0.
         25    2    1    2    0    0 -0.24342675037E+03 -0.20576327575E+03  0.42434146970E+03  0.54526080930E+03  0.12509419969E+03 0.  0.
         24    2    1    2    0    0 -0.60003443564E+02  0.49641745529E+02  0.27951732431E+03  0.30112923566E+03  0.80524318325E+02 0.  0.
        -13    1    5    5    0    0  0.18424976454E+02  0.21633257980E+02  0.61502019700E+02  0.67749361881E+02  0.00000000000E+00 0.  1.
         14    1    5    5    0    0 -0.78428420018E+02  0.28008487549E+02  0.21801530461E+03  0.23337987378E+03  0.00000000000E+00 0. -1.
         13    1    3    3    0    0  0.94754233662E+02  0.79657905818E+02 -0.39304269923E+03  0.41207561220E+03  0.00000000000E+00 0. -1.
        -14    1    3    3    0    0  0.20867596028E+03  0.76463624406E+02 -0.98071796123E+03  0.10055844379E+04  0.00000000000E+00 0.  1.
          5    1    4    4  501    0 -0.15827583330E+03 -0.13700216751E+03  0.36474893633E+03  0.42057115006E+03  0.41800000000E+01 0. -1.
         -5    1    4    4    0  501 -0.85150917078E+02 -0.68761108246E+02  0.59592533369E+02  0.12468965923E+03  0.41800000000E+01 0. -1.
</event>
<event>
11    1  0.8039394E-009  0.1906969E+03  0.7561462E-02  0.1061304E+00
         22   -1    0    0    0    0  0.00000000000E+00  0.00000000000E+00  0.78581501227E+03  0.78581501227E+03  0.00000000000E+00 0.  1.
         22   -1    0    0    0    0 -0.00000000000E+00 -0.00000000000E+00 -0.54913088516E+03  0.54913088516E+03  0.00000000000E+00 0.  1.
         24    2    1    2    0    0  0.85326100911E+02  0.11574728892E+03 -0.49600739726E+03  0.52287992424E+03  0.81866346216E+02 0.  0.
         25    2    1    2    0    0 -0.13003156479E+03 -0.85707972390E+02  0.25162252226E+03  0.32127745833E+03  0.12510494455E+03 0.  0.
        -24    2    1    2    0    0  0.44705463877E+02 -0.30039316526E+02  0.48106900211E+03  0.49078851487E+03  0.80901436938E+02 0.  0.
        -13    1    3    3    0    0  0.47613622855E+02  0.10064392163E+03 -0.43886980056E+03  0.45277252333E+03  0.00000000000E+00 0.  1.
         14    1    3    3    0    0  0.37712478056E+02  0.15103367290E+02 -0.57137596704E+02  0.70107400905E+02  0.00000000000E+00 0. -1.
         11    1    5    5    0    0  0.11871948445E+02 -0.54795482568E+02  0.27562579964E+03  0.28127045614E+03  0.00000000000E+00 0. -1.
        -12    1    5    5    0    0  0.32833515432E+02  0.24756166042E+02  0.20544320247E+03  0.20951805873E+03  0.00000000000E+00 0.  1.
          5    1    4    4  501    0 -0.76223406033E+02  0.17552558957E+02  0.67578865483E+02  0.10345276900E+03  0.41800000000E+01 0.  1.
         -5    1    4    4    0  501 -0.53808158755E+02 -0.10326053135E+03  0.18404365678E+03  0.21782468933E+03  0.41800000000E+01 0.  1.
</event>
<event>
11    1  0.8039394E-009  0.2347707E+03  0.7561462E-02  0.1032340E+00
         22   -1    0    0    0    0  0.00000000000E+00  0.00000000000E+00  0.27872747590E+04  0.27872747590E+04  0.00000000000E+00 0.  1.
         22   -1    0    0    0    0 -0.00000000000E+00 -0.00000000000E+00 -0.27467176480E+03  0.27467176480E+03  0.00000000000E+00 0. -1.
         24    2    1    2    0    0 -0.17452050000E+02 -0.79406357254E+01 -0.21023923253E+03  0.22352308380E+03  0.73446622473E+02 0.  0.
         25    2    1    2    0    0  0.20862487164E+03  0.56299446168E+02  0.23932197501E+03  0.34585532687E+03  0.12508770803E+03 0.  0.
        -24    2    1    2    0    0 -0.19117282164E+03 -0.48358810443E+02  0.24835202517E+04  0.24925681131E+04  0.78341148252E+02 0.  0.
        -11    1    3    3    0    0  0.21221597627E+02  0.17229125893E+02 -0.52729277282E+02  0.59393397508E+02  0.00000000000E+00 0.  1.
         12    1    3    3    0    0 -0.38673647627E+02 -0.25169761618E+02 -0.15750995525E+03  0.16412968629E+03  0.00000000000E+00 0. -1.
         13    1    5    5    0    0 -0.53428313225E+02 -0.50585866621E+02  0.97366527124E+03  0.97644128087E+03  0.00000000000E+00 0. -1.
        -14    1    5    5    0    0 -0.13774450842E+03  0.22270561779E+01  0.15098549804E+04  0.15161268322E+04  0.00000000000E+00 0.  1.
          5    1    4    4  501    0  0.13860993256E+03  0.80868170577E+02  0.21362903720E+03  0.26722127975E+03  0.41800000000E+01 0. -1.
         -5    1    4    4    0  501  0.70014939085E+02 -0.24568724409E+02  0.25692937806E+02  0.78634047125E+02  0.41800000000E+01 0. -1.
</event>
<event>
11    1  0.8039394E-009  0.1356123E+03  0.7561462E-02  0.1112559E+00
         22   -1    0    0    0    0  0.00000000000E+00  0.00000000000E+00  0.10146205706E+03  0.10146205706E+03  0.00000000000E+00 0.  1.
         22   -1    0    0    0    0 -0.00000000000E+00 -0.00000000000E+00 -0.78782723344E+03  0.78782723344E+03  0.00000000000E+00 0. -1.
         24    2    1    2    0    0  0.75449368204E+01  0.12028477341E+02 -0.65074279236E+03  0.65614809503E+03  0.82840391547E+02 0.  0.
         25    2    1    2    0    0 -0.41393554439E+02  0.29750900023E+02 -0.34633645416E+02  0.13945109720E+03  0.12509427131E+03 0.  0.
        -24    2    1    2    0    0  0.33848617619E+02 -0.41779377365E+02 -0.98873860878E+00  0.93690098270E+02  0.76717739944E+02 0.  0.
        -11    1    3    3    0    0 -0.32854328826E+02 -0.97529311783E+01 -0.18485964012E+03  0.18800960915E+03  0.00000000000E+00 0.  1.
         12    1    3    3    0    0  0.40399265647E+02  0.21781408520E+02 -0.46588315224E+03  0.46813848588E+03  0.00000000000E+00 0. -1.
         11    1    5    5    0    0  0.88355951631E+01 -0.73703494583E+01 -0.36503605449E+02  0.38274051312E+02  0.00000000000E+00 0. -1.
        -12    1    5    5    0    0  0.25013022456E+02 -0.34409027906E+02  0.35514866840E+02  0.55416046959E+02  0.00000000000E+00 0.  1.
          5    1    4    4  501    0 -0.15185736609E+02 -0.45192023829E+02 -0.36080067307E+02  0.59934708400E+02  0.41800000000E+01 0.  1.
         -5    1    4    4    0  501 -0.26207817830E+02  0.74942923852E+02  0.14464218912E+01  0.79516388797E+02  0.41800000000E+01 0.  1.
</event>
<event>
11    1  0.8039394E-009  0.3330542E+03  0.7561462E-02  0.9870975E-01
         22   -1    0    0    0    0  0.00000000000E+00  0.00000000000E+00  0.50474278215E+03  0.50474278215E+03  0.00000000000E+00 0. -1.
         22   -1    0    0    0    0 -0.00000000000E+00 -0.00000000000E+00 -0.47917448019E+03  0.47917448019E+03  0.00000000000E+00 0. -1.
         24    2    1    2    0    0 -0.23740664429E+03  0.13229233732E+03 -0.79643145755E+02  0.29445195944E+03  0.80596206395E+02 0.  0.
         25    2    1    2    0    0  0.21615891178E+03 -0.35198921006E+03 -0.17335311719E+01  0.43158953843E+03  0.12508175491E+03 0.  0.
        -24    2    1    2    0    0  0.21247732508E+02  0.21969687274E+03  0.10694497889E+03  0.25787576447E+03  0.79652365711E+02 0.  0.
        -11    1    3    3    0    0 -0.34240704933E+02  0.45635452661E+02 -0.40915037333E+02  0.70207269523E+02  0.00000000000E+00 0.  1.
         12    1    3    3    0    0 -0.20316593936E+03  0.86656884658E+02 -0.38728108421E+02  0.22424468992E+03  0.00000000000E+00 0. -1.
         11    1    5    5    0    0  0.29295741590E+02  0.13782270897E+03  0.10475817303E+03  0.17557794395E+03  0.00000000000E+00 0. -1.
        -12    1    5    5    0    0 -0.80480090820E+01  0.81874163769E+02  0.21868058543E+01  0.82297820524E+02  0.00000000000E+00 0.  1.
          5    1    4    4  501    0  0.96840466884E+01  0.23677821990E+00 -0.20284239089E+02  0.22863936223E+02  0.41800000000E+01 0. -1.
         -5    1    4    4    0  501  0.20647486509E+03 -0.35222598828E+03  0.18550707917E+02  0.40872560221E+03  0.41800000000E+01 0. -1.
</event>
<event>
11    1  0.8039394E-009  0.1816638E+03  0.7561462E-02  0.1068305E+00
         22   -1    0    0    0    0  0.00000000000E+00  0.00000000000E+00  0.60032373125E+03  0.60032373125E+03  0.00000000000E+00 0.  1.
         22   -1    0    0    0    0 -0.00000000000E+00 -0.00000000000E+00 -0.53830001719E+03  0.53830001719E+03  0.00000000000E+00 0. -1.
        -24    2    1    2    0    0  0.66258019273E+02  0.11207563312E+03 -0.43626340233E+03  0.46572155988E+03  0.98080285797E+02 0.  0.
         25    2    1    2    0    0 -0.16830310087E+03 -0.68352881368E+02  0.83193679466E+02  0.23572665546E+03  0.12509123725E+03 0.  0.
         24    2    1    2    0    0  0.10204508160E+03 -0.43722751751E+02  0.41509343692E+03  0.43717553311E+03  0.80591610425E+02 0.  0.
        -11    1    5    5    0    0  0.19059052661E+02  0.23084218797E+02  0.11074598955E+03  0.11472054239E+03  0.00000000000E+00 0.  1.
         12    1    5    5    0    0  0.82986028940E+02 -0.66806970548E+02  0.30434744737E+03  0.32245499071E+03  0.00000000000E+00 0. -1.
         11    1    3    3    0    0  0.79625343286E+02  0.73496077860E+02 -0.38623073285E+03  0.40114342541E+03  0.00000000000E+00 0. -1.
        -12    1    3    3    0    0 -0.13367324013E+02  0.38579555259E+02 -0.50032669483E+02  0.64578134464E+02  0.00000000000E+00 0.  1.
          5    1    4    4  501    0 -0.14348161352E+03 -0.37763619421E+02  0.11267212430E+03  0.18634791215E+03  0.41800000000E+01 0.  1.
         -5    1    4    4    0  501 -0.24821487355E+02 -0.30589261948E+02 -0.29478444832E+02  0.49378743309E+02  0.41800000000E+01 0.  1.
</event>
<event>
11    1  0.8039394E-009  0.1758623E+03  0.7561462E-02  0.1073040E+00
         22   -1    0    0    0    0  0.00000000000E+00  0.00000000000E+00  0.38438870357E+03  0.38438870357E+03  0.00000000000E+00 0. -1.
         22   -1    0    0    0    0 -0.00000000000E+00 -0.00000000000E+00 -0.26180186791E+03  0.26180186791E+03  0.00000000000E+00 0.  1.
        -24    2    1    2    0    0 -0.42250299286E+01  0.12332798320E+03 -0.18019988940E+03  0.23242599305E+03  0.79512261866E+02 0.  0.
         25    2    1    2    0    0  0.17587552561E+02 -0.12434648481E+03  0.12120909486E+03  0.21473393471E+03  0.12509055819E+03 0.  0.
         24    2    1    2    0    0 -0.13362522633E+02  0.10185016171E+01  0.18157763020E+03  0.19903064373E+03  0.80393824381E+02 0.  0.
        -13    1    5    5    0    0 -0.41525134788E+02  0.77214998970E+01  0.55903823659E+02  0.70065654065E+02  0.00000000000E+00 0.  1.
         14    1    5    5    0    0  0.28162612156E+02 -0.67029982799E+01  0.12567380654E+03  0.12896498967E+03  0.00000000000E+00 0. -1.
         13    1    3    3    0    0  0.30144072303E+01  0.71709539564E+01  0.79932202784E+01  0.11153510748E+02  0.00000000000E+00 0. -1.
        -14    1    3    3    0    0 -0.72394371590E+01  0.11615702924E+03 -0.18819310968E+03  0.22127248230E+03  0.00000000000E+00 0.  1.
          5    1    4    4  501    0  0.46591584876E+02  0.71271460604E+00  0.18644637769E+02  0.50362472744E+02  0.41800000000E+01 0. -1.
         -5    1    4    4    0  501 -0.29004032315E+02 -0.12505919942E+03  0.10256445709E+03  0.16437146197E+03  0.41800000000E+01 0. -1.
</event>
<event>
11    1  0.8039394E-009  0.2054067E+03  0.7561462E-02  0.1050765E+00
         22   -1    0    0    0    0  0.00000000000E+00  0.00000000000E+00  0.10892736041E+04  0.10892736041E+04  0.00000000000E+00 0.  1.
         22   -1    0    0    0    0 -0.00000000000E+00 -0.00000000000E+00 -0.61994111292E+03  0.61994111292E+03  0.00000000000E+00 0.  1.
         24    2    1    2    0    0  0.10797598934E+03  0.15655785211E+03 -0.50006384742E+03  0.54070994294E+03  0.78321233164E+02 0.  0.
         25    2    1    2    0    0  0.42438146575E+01 -0.92715034963E+02 -0.29183407721E+02  0.15847014955E+03  0.12508808633E+03 0.  0.
        -24    2    1    2    0    0 -0.11221980400E+03 -0.63842817151E+02  0.99857974631E+03  0.10100346245E+04  0.79619364890E+02 0.  0.
        -11    1    3    3    0    0  0.18684979011E+01  0.65203667716E+02 -0.17562074895E+03  0.18734368692E+03  0.00000000000E+00 0.  1.
         12    1    3    3    0    0  0.10610749144E+03  0.91354184398E+02 -0.32444309848E+03  0.35336625602E+03  0.00000000000E+00 0. -1.
         11    1    5    5    0    0 -0.72548944391E+02 -0.80320141836E+02  0.75022854008E+03  0.75799573670E+03  0.00000000000E+00 0. -1.
        -12    1    5    5    0    0 -0.39670859604E+02  0.16477324685E+02  0.24835120623E+03  0.25203888781E+03  0.00000000000E+00 0.  1.
          5    1    4    4  501    0  0.34127890296E+02 -0.11166842199E+03 -0.35850353512E+02  0.12221812309E+03  0.41800000000E+01 0.  1.
         -5    1    4    4    0  501 -0.29884075638E+02  0.18953387022E+02  0.66669457907E+01  0.36252026461E+02  0.41800000000E+01 0.  1.
</event>
<event>
11    1  0.8039394E-009  0.1297113E+03  0.7561462E-02  0.1119624E+00
         22   -1    0    0    0    0  0.00000000000E+00  0.00000000000E+00  0.12027043089E+04  0.12027043089E+04  0.00000000000E+00 0.  1.
         22   -1    0    0    0    0 -0.00000000000E+00 -0.00000000000E+00 -0.17774103983E+03  0.17774103983E+03  0.00000000000E+00 0. -1.
        -24    2    1    2    0    0  0.14466728333E+02 -0.31037645546E+02 -0.15164213803E+03  0.17435920930E+03  0.78950453903E+02 0.  0.
         25    2    1    2    0    0 -0.12538572377E+02  0.33961541128E+02  0.31676865916E+03  0.34249261155E+03  0.12509277942E+03 0.  0.
         24    2    1    2    0    0 -0.19281559560E+01 -0.29238955821E+01  0.85983674798E+03  0.86359352792E+03  0.80388315976E+02 0.  0.
        -11    1    5    5    0    0 -0.32071825368E+01  0.24352571792E+00  0.86015665346E+03  0.86016266707E+03  0.00000000000E+00 0.  1.
         12    1    5    5    0    0  0.12790265809E+01 -0.31674213000E+01 -0.31990548262E+00  0.34308608547E+01  0.00000000000E+00 0. -1.
         13    1    3    3    0    0  0.17090913844E+02  0.24208998189E+02 -0.66837964087E+02  0.73112846837E+02  0.00000000000E+00 0. -1.
        -14    1    3    3    0    0 -0.26241855114E+01 -0.55246643735E+02 -0.84804173947E+02  0.10124636247E+03  0.00000000000E+00 0.  1.
          5    1    4    4  501    0 -0.28955776149E+01  0.38775670181E+02  0.17236807857E+02  0.42737769160E+02  0.41800000000E+01 0.  1.
         -5    1    4    4    0  501 -0.96429947619E+01 -0.48141290527E+01  0.29953185131E+03  0.29975484239E+03  0.41800000000E+01 0.  1.
</event>
<event>
11    1  0.8039394E-009  0.1668462E+03  0.7561462E-02  0.1080809E+00
         22   -1    0    0    0    0  0.00000000000E+00  0.00000000000E+00  0.45980831411E+03  0.45980831411E+03  0.00000000000E+00 0. -1.
         22   -1    0    0    0    0 -0.00000000000E+00 -0.00000000000E+00 -0.52603676639E+03  0.52603676639E+03  0.00000000000E+00 0. -1.
        -24    2    1    2    0    0 -0.99236949787E+02  0.45711844843E+02 -0.46838266003E+03  0.48770898702E+03  0.80871471168E+02 0.  0.
         25    2    1    2    0    0  0.13674050445E+03 -0.31642646676E+02  0.19051334884E+03  0.26766176864E+03  0.12509302003E+03 0.  0.
         24    2    1    2    0    0 -0.37503554660E+02 -0.14069198167E+02  0.21164085891E+03  0.23047432484E+03  0.81988427838E+02 0.  0.
        -11    1    5    5    0    0 -0.54683646886E+01 -0.27688041726E+02  0.17436092028E+02  0.33174507867E+02  0.00000000000E+00 0.  1.
         12    1    5    5    0    0 -0.32035189971E+02  0.13618843559E+02  0.19420476688E+03  0.19729981697E+03  0.00000000000E+00 0. -1.
         13    1    3    3    0    0 -0.90671362947E+02  0.54497781898E+02 -0.28640439183E+03  0.30531750679E+03  0.00000000000E+00 0. -1.
        -14    1    3    3    0    0 -0.85655868399E+01 -0.87859370548E+01 -0.18197826819E+03  0.18239148023E+03  0.00000000000E+00 0.  1.
          5    1    4    4  501    0  0.10245981414E+03 -0.61482354035E+02  0.69426899710E+02  0.13825939453E+03  0.41800000000E+01 0. -1.
         -5    1    4    4    0  501  0.34280690302E+02  0.29839707358E+02  0.12108644913E+03  0.12940237411E+03  0.41800000000E+01 0. -1.
</event>
<event>
11    1  0.8039394E-009  0.1407417E+03  0.7561462E-02  0.1106733E+00
         22   -1    0    0    0    0  0.00000000000E+00  0.00000000000E+00  0.12222533733E+04  0.12222533733E+04  0.00000000000E+00 0.  1.
         22   -1    0    0    0    0 -0.00000000000E+00 -0.00000000000E+00 -0.13019741593E+03  0.13019741593E+03  0.00000000000E+00 0. -1.
         24    2    1    2    0    0  0.81108715581E+01 -0.64762895753E+02 -0.78993563834E+02  0.12984400195E+03  0.79746240112E+02 0.  0.
         25    2    1    2    0    0 -0.34282301316E+02  0.53794109781E+02  0.18348356590E+03  0.23104703717E+03  0.12508969582E+03 0.  0.
        -24    2    1    2    0    0  0.26171429758E+02  0.10968785972E+02  0.98756595534E+03  0.99155975014E+03  0.84255349706E+02 0.  0.
        -13    1    3    3    0    0 -0.17807621380E+01 -0.44726771776E+01  0.16105957962E+02  0.16810051659E+02  0.00000000000E+00 0.  1.
         14    1    3    3    0    0  0.98916336962E+01 -0.60290218576E+02 -0.95099521795E+02  0.11303395029E+03  0.00000000000E+00 0. -1.
         13    1    5    5    0    0  0.12492743883E+02 -0.50619397174E+01  0.22254877841E+02  0.26018675430E+02  0.00000000000E+00 0. -1.
        -14    1    5    5    0    0  0.13678685875E+02  0.16030725690E+02  0.96531107750E+03  0.96554107471E+03  0.00000000000E+00 0.  1.
          5    1    4    4  501    0 -0.54976633779E+02 -0.23376989225E+01  0.15524262953E+03  0.16475934426E+03  0.41800000000E+01 0. -1.
         -5    1    4    4    0  501  0.20694332463E+02  0.56131808704E+02  0.28240936363E+02  0.66287692908E+02  0.41800000000E+01 0. -1.
</event>
<event>
11    1  0.8039394E-009  0.1723686E+03  0.7561462E-02  0.1075989E+00
         22   -1    0    0    0    0  0.00000000000E+00  0.00000000000E+00  0.54764033188E+03  0.54764033188E+03  0.00000000000E+00 0. -1.
         22   -1    0    0    0    0 -0.00000000000E+00 -0.00000000000E+00 -0.27648089917E+03  0.27648089917E+03  0.00000000000E+00 0.  1.
         24    2    1    2    0    0  0.96702076264E+02 -0.50768541505E+02 -0.16358950865E+03  0.21231518425E+03  0.79921672669E+02 0.  0.
         25    2    1    2    0    0  0.69577848833E+01  0.12125175313E+03  0.25407083545E+02  0.17619258172E+03  0.12509159664E+03 0.  0.
        -24    2    1    2    0    0 -0.10365986115E+03 -0.70483211623E+02  0.40934185781E+03  0.43561346508E+03  0.80530022158E+02 0.  0.
        -11    1    3    3    0    0  0.20209207309E+02 -0.10382209037E+02 -0.10597756047E+03  0.10838563396E+03  0.00000000000E+00 0.  1.
         12    1    3    3    0    0  0.76492868955E+02 -0.40386332468E+02 -0.57611948177E+02  0.10392955029E+03  0.00000000000E+00 0. -1.
         13    1    5    5    0    0 -0.10570544834E+03 -0.75253460780E+02  0.41030589385E+03  0.43033434873E+03  0.00000000000E+00 0. -1.
        -14    1    5    5    0    0  0.20455871967E+01  0.47702491567E+01 -0.96403603494E+00  0.52791163534E+01  0.00000000000E+00 0.  1.
          5    1    4    4  501    0 -0.11967900235E+02  0.13719473099E+03  0.44359127035E+02  0.14474401334E+03  0.41800000000E+01 0.  1.
         -5    1    4    4    0  501  0.18925685118E+02 -0.15942977862E+02 -0.18952043490E+02  0.31448568374E+02  0.41800000000E+01 0.  1.
</event>
<event>
11    1  0.8039394E-009  0.1568747E+03  0.7561462E-02  0.1090054E+00
         22   -1    0    0    0    0  0.00000000000E+00  0.00000000000E+00  0.44357072617E+03  0.44357072617E+03  0.00000000000E+00 0.  1.
         22   -1    0    0    0    0 -0.00000000000E+00 -0.00000000000E+00 -0.82104539722E+03  0.82104539722E+03  0.00000000000E+00 0.  1.
        -24    2    1    2    0    0 -0.94882959715E+02  0.13052169607E+02 -0.76497202927E+03  0.77512985779E+03  0.80442250711E+02 0.  0.
         25    2    1    2    0    0  0.57980488438E+02 -0.59520700282E+02  0.88348771314E+02  0.17423326989E+03  0.12508907283E+03 0.  0.
         24    2    1    2    0    0  0.36902471276E+02  0.46468530675E+02  0.29914858690E+03  0.31525299571E+03  0.79833937209E+02 0.  0.
        -11    1    5    5    0    0  0.55272438587E+02  0.55854783521E+02  0.24578634143E+03  0.25804209917E+03  0.00000000000E+00 0.  1.
         12    1    5    5    0    0 -0.18369967310E+02 -0.93862528464E+01  0.53362245470E+02  0.57210896541E+02  0.00000000000E+00 0. -1.
         11    1    3    3    0    0 -0.42762487118E+01  0.28852175809E+02 -0.11305646117E+03  0.11675828778E+03  0.00000000000E+00 0. -1.
        -12    1    3    3    0    0 -0.90606711003E+02 -0.15800006203E+02 -0.65191556810E+03  0.65837157001E+03  0.00000000000E+00 0.  1.
          5    1    4    4  501    0 -0.25643463798E+02  0.21437858905E+00 -0.13675576915E+02  0.29361999211E+02  0.41800000000E+01 0.  1.
         -5    1    4    4    0  501  0.83623952236E+02 -0.59735078871E+02  0.10202434823E+03  0.14487127067E+03  0.41800000000E+01 0.  1.
</event>
<event>
11    1  0.8039394E-009  0.4150779E+03  0.7561462E-02  0.9606288E-01
         22   -1    0    0    0    0  0.00000000000E+00  0.00000000000E+00  0.84175264107E+03  0.84175264107E+03  0.00000000000E+00 0. -1.
         22   -1    0    0    0    0 -0.00000000000E+00 -0.00000000000E+00 -0.43630777943E+03  0.43630777943E+03  0.00000000000E+00 0. -1.
        -24    2    1    2    0    0 -0.44125734267E+02  0.36952865333E+03 -0.14125449124E+03  0.40594286547E+03  0.79613269460E+02 0.  0.
         25    2    1    2    0    0 -0.41145252934E+02 -0.48648440785E+03  0.34321454848E+03  0.60975737635E+03  0.12509124988E+03 0.  0.
         24    2    1    2    0    0  0.85270987201E+02  0.11695575453E+03  0.20348480440E+03  0.26236017868E+03  0.80479860608E+02 0.  0.
        -11    1    5    5    0    0  0.85031518938E+02  0.50259072989E+02  0.11615845125E+03  0.15247661928E+03  0.00000000000E+00 0.  1.
         12    1    5    5    0    0  0.23946826383E+00  0.66696681537E+02  0.87326353144E+02  0.10988355940E+03  0.00000000000E+00 0. -1.
         13    1    3    3    0    0 -0.18913761291E+02  0.12319656913E+03 -0.83698738167E+01  0.12492069404E+03  0.00000000000E+00 0. -1.
        -14    1    3    3    0    0 -0.25211972976E+02  0.24633208420E+03 -0.13288461743E+03  0.28102217143E+03  0.00000000000E+00 0.  1.
          5    1    4    4  501    0 -0.15646109357E+02 -0.29242902392E+02  0.67163182010E+02  0.75022086721E+02  0.41800000000E+01 0.  1.
         -5    1    4    4    0  501 -0.25499143577E+02 -0.45724150546E+03  0.27605136647E+03  0.53473528963E+03  0.41800000000E+01 0.  1.
</event>
<event>
11    1  0.8039394E-009  0.1570009E+03  0.7561462E-02  0.1089932E+00
         22   -1    0    0    0    0  0.00000000000E+00  0.00000000000E+00  0.10918219647E+04  0.10918219647E+04  0.00000000000E+00 0.  1.
         22   -1    0    0    0    0 -0.00000000000E+00 -0.00000000000E+00 -0.10731191148E+03  0.10731191148E+03  0.00000000000E+00 0. -1.
        -24    2    1    2    0    0 -0.83749993864E+02  0.48375429824E+02 -0.46237537989E+02  0.13320431339E+03  0.79064755121E+02 0.  0.
         25    2    1    2    0    0  0.87334714509E+02 -0.11821337662E+01  0.40409502105E+03  0.43193786325E+03  0.12509509131E+03 0.  0.
         24    2    1    2    0    0 -0.35847206448E+01 -0.47193296058E+02  0.62665257017E+03  0.63399169957E+03  0.83737530446E+02 0.  0.
        -11    1    5    5    0    0  0.29186127926E+02  0.12567612939E+01  0.35034277153E+03  0.35155862537E+03  0.00000000000E+00 0.  1.
         12    1    5    5    0    0 -0.32770848571E+02 -0.48450057352E+02  0.27630979864E+03  0.28243307420E+03  0.00000000000E+00 0. -1.
         11    1    3    3    0    0 -0.40666099764E+02  0.57255523783E+02 -0.53931781905E+02  0.88546958012E+02  0.00000000000E+00 0. -1.
        -12    1    3    3    0    0 -0.43083894099E+02 -0.88800939595E+01  0.76942439162E+01  0.44657355373E+02  0.00000000000E+00 0.  1.
          5    1    4    4  501    0  0.71021679376E+02 -0.41562490860E+02  0.36187737626E+03  0.37113909446E+03  0.41800000000E+01 0. -1.
         -5    1    4    4    0  501  0.16313035132E+02  0.40380357094E+02  0.42217644792E+02  0.60798768787E+02  0.41800000000E+01 0. -1.
</event>
<event>
11    1  0.8039394E-009  0.1329040E+03  0.7561462E-02  0.1115751E+00
         22   -1    0    0    0    0  0.00000000000E+00  0.00000000000E+00  0.66488430114E+03  0.66488430114E+03  0.00000000000E+00 0. -1.
         22   -1    0    0    0    0 -0.00000000000E+00 -0.00000000000E+00 -0.47186375804E+03  0.47186375804E+03  0.00000000000E+00 0.  1.
        -24    2    1    2    0    0 -0.23423474696E+02 -0.35586576515E+02 -0.42343647179E+03  0.43292520248E+03  0.79440051040E+02 0.  0.
         25    2    1    2    0    0 -0.21041215763E+02  0.17915925464E+02  0.62779708902E+02  0.14266048788E+03  0.12508800824E+03 0.  0.
         24    2    1    2    0    0  0.44464690459E+02  0.17670651051E+02  0.55367730599E+03  0.56116236883E+03  0.77815708032E+02 0.  0.
        -11    1    5    5    0    0  0.28186329614E+02  0.31293511105E+02  0.12392283387E+03  0.13088400119E+03  0.00000000000E+00 0.  1.
         12    1    5    5    0    0  0.16278360846E+02 -0.13622860054E+02  0.42975447212E+03  0.43027836763E+03  0.00000000000E+00 0. -1.
         11    1    3    3    0    0  0.79323132252E+01  0.16099279437E+02 -0.30683836045E+02  0.35547238794E+02  0.00000000000E+00 0. -1.
        -12    1    3    3    0    0 -0.31355787921E+02 -0.51685855951E+02 -0.39275263574E+03  0.39737796369E+03  0.00000000000E+00 0.  1.
          5    1    4    4  501    0 -0.23613388078E+02 -0.46162523672E+02  0.58453839804E+02  0.78248926358E+02  0.41800000000E+01 0. -1.
         -5    1    4    4    0  501  0.25721723142E+01  0.64078449136E+02  0.43258690986E+01  0.64411561521E+02  0.41800000000E+01 0. -1.
</event>
<event>
11    1  0.8039394E-009  0.1516446E+03  0.7561462E-02  0.1095210E+00
         22   -1    0    0    0    0  0.00000000000E+00  0.00000000000E+00  0.62909810810E+03  0.62909810810E+03  0.00000000000E+00 0. -1.
         22   -1    0    0    0    0 -0.00000000000E+00 -0.00000000000E+00 -0.21759134982E+03  0.21759134982E+03  0.00000000000E+00 0.  1.
        -24    2    1    2    0    0 -0.66346776022E+02  0.46949109264E+02 -0.95005678869E+02  0.14866599286E+03  0.80432486396E+02 0.  0.
         25    2    1    2    0    0  0.13173582850E+03  0.59098628102E+01  0.32750930962E+01  0.18177895287E+03  0.12507440379E+03 0.  0.
         24    2    1    2    0    0 -0.65389052479E+02 -0.52858972074E+02  0.50323734405E+03  0.51624451218E+03  0.78681464095E+02 0.  0.
        -13    1    5    5    0    0 -0.66123644793E+00  0.74896589843E+01  0.27696103293E+01  0.80126753783E+01  0.00000000000E+00 0.  1.
         14    1    5    5    0    0 -0.64727816031E+02 -0.60348631059E+02  0.50046773372E+03  0.50823183680E+03  0.00000000000E+00 0. -1.
         11    1    3    3    0    0 -0.33710351640E+01 -0.22860345628E+01  0.13382410424E+02  0.13988521754E+02  0.00000000000E+00 0. -1.
        -12    1    3    3    0    0 -0.62975740858E+02  0.49235143827E+02 -0.10838808929E+03  0.13467747111E+03  0.00000000000E+00 0.  1.
          5    1    4    4  501    0  0.23012361158E+02 -0.51162506462E+02  0.15381542416E+02  0.58320108716E+02  0.41800000000E+01 0.  1.
         -5    1    4    4    0  501  0.10872346734E+03  0.57072369272E+02 -0.12106449320E+02  0.12345884416E+03  0.41800000000E+01 0.  1.
</event>
<event>
11    1  0.8039394E-009  0.1860115E+03  0.7561462E-02  0.1064881E+00
         22   -1    0    0    0    0  0.00000000000E+00  0.00000000000E+00  0.66768254336E+02  0.66768254336E+02  0.00000000000E+00 0.  1.
         22   -1    0    0    0    0 -0.00000000000E+00 -0.00000000000E+00 -0.21224018738E+04  0.21224018738E+04  0.00000000000E+00 0. -1.
        -24    2    1    2    0    0 -0.34531568689E+02  0.15820071606E+02 -0.68682179722E+03  0.69238329047E+03  0.78916005267E+02 0.  0.
         25    2    1    2    0    0  0.11146262133E+03 -0.12697475644E+03 -0.13155834566E+04  0.13322738442E+04  0.12508900794E+03 0.  0.
         24    2    1    2    0    0 -0.76931052645E+02  0.11115468484E+03 -0.53228365634E+02  0.16451299346E+03  0.77184942101E+02 0.  0.
        -13    1    5    5    0    0 -0.66735089529E+02  0.12276484731E+03 -0.51688369389E+02  0.14898478929E+03  0.00000000000E+00 0.  1.
         14    1    5    5    0    0 -0.10195963116E+02 -0.11610162470E+02 -0.15399962446E+01  0.15528204174E+02  0.00000000000E+00 0. -1.
         13    1    3    3    0    0 -0.50238424695E+02  0.17371152010E+02 -0.65186198051E+03  0.65402576240E+03  0.00000000000E+00 0. -1.
        -14    1    3    3    0    0  0.15706856006E+02 -0.15510804048E+01 -0.34959816703E+02  0.38357528074E+02  0.00000000000E+00 0.  1.
          5    1    4    4  501    0  0.20573951416E+02  0.25243625068E+02 -0.21656042433E+03  0.21903519779E+03  0.41800000000E+01 0.  1.
         -5    1    4    4    0  501  0.90888669919E+02 -0.15221838151E+03 -0.10990230323E+04  0.11132386464E+04  0.41800000000E+01 0.  1.
</event>
<event>
11    1  0.8039394E-009  0.1700580E+03  0.7561462E-02  0.1077981E+00
         22   -1    0    0    0    0  0.00000000000E+00  0.00000000000E+00  0.59178774948E+03  0.59178774948E+03  0.00000000000E+00 0. -1.
         22   -1    0    0    0    0 -0.00000000000E+00 -0.00000000000E+00 -0.18641234052E+04  0.18641234052E+04  0.00000000000E+00 0.  1.
        -24    2    1    2    0    0 -0.25876864687E+02  0.10940331062E+03 -0.15401135646E+04  0.15463384793E+04  0.81081466790E+02 0.  0.
         25    2    1    2    0    0 -0.52359097606E+02 -0.16057453833E+03 -0.27866560324E+03  0.34903087337E+03  0.12506947937E+03 0.  0.
         24    2    1    2    0    0  0.78235962293E+02  0.51171227710E+02  0.54644351204E+03  0.56054180208E+03  0.82868810095E+02 0.  0.
        -11    1    5    5    0    0 -0.14027029326E+02 -0.55322216717E+01  0.42555598192E+02  0.45148000685E+02  0.00000000000E+00 0.  1.
         12    1    5    5    0    0  0.92262991619E+02  0.56703449382E+02  0.50388791385E+03  0.51539380140E+03  0.00000000000E+00 0. -1.
         13    1    3    3    0    0  0.19046912979E+02  0.21961967930E+02 -0.15244400829E+03  0.15519113568E+03  0.00000000000E+00 0. -1.
        -14    1    3    3    0    0 -0.44923777666E+02  0.87441342694E+02 -0.13876695563E+04  0.13911473436E+04  0.00000000000E+00 0.  1.
          5    1    4    4  501    0 -0.57742906885E+02 -0.38607500937E+02 -0.38361106946E+02  0.79459608294E+02  0.41800000000E+01 0.  1.
         -5    1    4    4    0  501  0.53838092793E+01 -0.12196703740E+03 -0.24030449630E+03  0.26957126508E+03  0.41800000000E+01 0.  1.
</event>
<event>
11    1  0.8039394E-009  0.1315307E+03  0.7561462E-02  0.1117402E+00
         22   -1    0    0    0    0  0.00000000000E+00  0.00000000000E+00  0.62273063481E+03  0.62273063481E+03  0.00000000000E+00 0. -1.
         22   -1    0    0    0    0 -0.00000000000E+00 -0.00000000000E+00 -0.10836714404E+04  0.10836714404E+04  0.00000000000E+00 0.  1.
         24    2    1    2    0    0  0.32902398979E+02  0.15813996043E+02 -0.10402679565E+04  0.10441472291E+04  0.82178856610E+02 0.  0.
         25    2    1    2    0    0  0.86843479976E+01 -0.64344934955E+00  0.67885561794E+02  0.14258668786E+03  0.12508669845E+03 0.  0.
        -24    2    1    2    0    0 -0.41586746977E+02 -0.15170546694E+02  0.51144158909E+03  0.51966815823E+03  0.80764426681E+02 0.  0.
        -13    1    3    3    0    0  0.31982231155E+02 -0.42473464519E+01 -0.98173502752E+03  0.98226501888E+03  0.00000000000E+00 0.  1.
         14    1    3    3    0    0  0.92016782400E+00  0.20061342495E+02 -0.58532928986E+02  0.61882210265E+02  0.00000000000E+00 0. -1.
         13    1    5    5    0    0 -0.16292649995E+02 -0.47981082421E+02  0.28177995991E+03  0.28629980880E+03  0.00000000000E+00 0. -1.
        -14    1    5    5    0    0 -0.25294096981E+02  0.32810535727E+02  0.22966162918E+03  0.23336834943E+03  0.00000000000E+00 0.  1.
          5    1    4    4  501    0  0.36985356487E+02 -0.47381310394E+02  0.63618698407E+02  0.87622579032E+02  0.41800000000E+01 0. -1.
         -5    1    4    4    0  501 -0.28301008489E+02  0.46737861044E+02  0.42668633866E+01  0.54964108832E+02  0.41800000000E+01 0. -1.
</event>
<event>
11    1  0.8039394E-009  0.5703426E+03  0.7561462E-02  0.9248764E-01
         22   -1    0    0    0    0  0.00000000000E+00  0.00000000000E+00  0.74750538312E+03  0.74750538312E+03  0.00000000000E+00 0.  1.
         22   -1    0    0    0    0 -0.00000000000E+00 -0.00000000000E+00 -0.79373159362E+03  0.79373159362E+03  0.00000000000E+00 0.  1.
        -24    2    1    2    0    0 -0.15573209455E+03 -0.32602633300E+02 -0.87053281266E+02  0.19851691380E+03  0.80717249175E+02 0.  0.
         25    2    1    2    0    0  0.44860849226E+03 -0.42357319165E+03 -0.29993987764E+03  0.69733453407E+03  0.12509074385E+03 0.  0.
         24    2    1    2    0    0 -0.29287639771E+03  0.45617582495E+03  0.34076694841E+03  0.64538552886E+03  0.80792327172E+02 0.  0.
        -13    1    5    5    0    0 -0.27135580333E+03  0.38112300270E+03  0.27097815958E+03  0.54066429340E+03  0.00000000000E+00 0.  1.
         14    1    5    5    0    0 -0.21520594382E+02  0.75052822249E+02  0.69788788833E+02  0.10472123546E+03  0.00000000000E+00 0. -1.
         11    1    3    3    0    0 -0.13316323098E+03 -0.41482528697E+02 -0.39216541773E+02  0.14488334418E+03  0.00000000000E+00 0. -1.
        -12    1    3    3    0    0 -0.22568863576E+02  0.88798953979E+01 -0.47836739493E+02  0.53633569625E+02  0.00000000000E+00 0.  1.
          5    1    4    4  501    0  0.17377831322E+03 -0.99844576196E+02 -0.13535868245E+03  0.24188279570E+03  0.41800000000E+01 0. -1.
         -5    1    4    4    0  501  0.27483017905E+03 -0.32372861545E+03 -0.16458119520E+03  0.45545173838E+03  0.41800000000E+01 0. -1.
</event>
<event>
11    1  0.8039394E-009  0.1412273E+03  0.7561462E-02  0.1106196E+00
         22   -1    0    0    0    0  0.00000000000E+00  0.00000000000E+00  0.28735403300E+03  0.28735403300E+03  0.00000000000E+00 0. -1.
         22   -1    0    0    0    0 -0.00000000000E+00 -0.00000000000E+00 -0.61888953606E+03  0.61888953606E+03  0.00000000000E+00 0. -1.
        -24    2    1    2    0    0 -0.57123930055E+02 -0.13401779970E+02 -0.51721365592E+03  0.52661686892E+03  0.79828626879E+02 0.  0.
         25    2    1    2    0    0 -0.15246867371E+02  0.20213698980E+02 -0.36245040964E+02  0.13267308922E+03  0.12508950802E+03 0.  0.
         24    2    1    2    0    0  0.72370797426E+02 -0.68119190095E+01  0.22192319383E+03  0.24695361093E+03  0.80325882709E+02 0.  0.
        -11    1    5    5    0    0 -0.78672837979E+01  0.14736884420E+02  0.86330847537E+02  0.87932275947E+02  0.00000000000E+00 0.  1.
         12    1    5    5    0    0  0.80238081224E+02 -0.21548803430E+02  0.13559234629E+03  0.15902133498E+03  0.00000000000E+00 0. -1.
         11    1    3    3    0    0 -0.73328492973E+02  0.20799806783E+01 -0.32933198760E+03  0.33740324873E+03  0.00000000000E+00 0. -1.
        -12    1    3    3    0    0  0.16204562918E+02 -0.15481760648E+02 -0.18788166832E+03  0.18921362019E+03  0.00000000000E+00 0.  1.
          5    1    4    4  501    0 -0.53010760665E+02  0.54124089279E+02 -0.14258442123E+02  0.77203195260E+02  0.41800000000E+01 0.  1.
         -5    1    4    4    0  501  0.37763893294E+02 -0.33910390299E+02 -0.21986598841E+02  0.55469893957E+02  0.41800000000E+01 0.  1.
</event>
<event>
11    1  0.8039394E-009  0.1844829E+03  0.7561462E-02  0.1066073E+00
         22   -1    0    0    0    0  0.00000000000E+00  0.00000000000E+00  0.46815233675E+03  0.46815233675E+03  0.00000000000E+00 0. -1.
         22   -1    0    0    0    0 -0.00000000000E+00 -0.00000000000E+00 -0.56145201633E+03  0.56145201633E+03  0.00000000000E+00 0. -1.
         24    2    1    2    0    0  0.71816572562E+02 -0.94532737369E+02 -0.28890669489E+03  0.32243035824E+03  0.80001243969E+02 0.  0.
         25    2    1    2    0    0 -0.11329607010E+03  0.14843568282E+03 -0.19815609159E+03  0.29963215011E+03  0.12507772507E+03 0.  0.
        -24    2    1    2    0    0  0.41479497542E+02 -0.53902945451E+02  0.39376310689E+03  0.40754184473E+03  0.80093037231E+02 0.  0.
        -11    1    3    3    0    0  0.58050808653E+01  0.98658174582E+01 -0.43917834721E+01  0.12260549745E+02  0.00000000000E+00 0.  1.
         12    1    3    3    0    0  0.66011491697E+02 -0.10439855483E+03 -0.28451491141E+03  0.31016980850E+03  0.00000000000E+00 0. -1.
         13    1    5    5    0    0  0.46076749376E+02 -0.72420694443E+02  0.31308833888E+03  0.32464154349E+03  0.00000000000E+00 0. -1.
        -14    1    5    5    0    0 -0.45972518341E+01  0.18517748992E+02  0.80674768011E+02  0.82900301241E+02  0.00000000000E+00 0.  1.
          5    1    4    4  501    0 -0.13883079355E+03  0.12458789222E+03 -0.18290461966E+03  0.26128089180E+03  0.41800000000E+01 0.  1.
         -5    1    4    4    0  501  0.25534723445E+02  0.23847790604E+02 -0.15251471930E+02  0.38351258312E+02  0.41800000000E+01 0.  1.
</event>
<event>
11    1  0.8039394E-009  0.1999370E+03  0.7561462E-02  0.1054568E+00
         22   -1    0    0    0    0  0.00000000000E+00  0.00000000000E+00  0.12256716153E+04  0.12256716153E+04  0.00000000000E+00 0. -1.
         22   -1    0    0    0    0 -0.00000000000E+00 -0.00000000000E+00 -0.11625425429E+03  0.11625425429E+03  0.00000000000E+00 0.  1.
         24    2    1    2    0    0 -0.79918800870E+02 -0.13281651285E+02 -0.16912122836E+02  0.11542660973E+03  0.80460333959E+02 0.  0.
         25    2    1    2    0    0  0.22221733801E+03  0.81590320917E+01  0.35031092151E+03  0.43337251432E+03  0.12508748667E+03 0.  0.
        -24    2    1    2    0    0 -0.14229853714E+03  0.51226191934E+01  0.77601856230E+03  0.79312674551E+03  0.81056218201E+02 0.  0.
        -11    1    3    3    0    0 -0.92230925723E+02 -0.15128291942E+02 -0.29215429943E+02  0.97923185322E+02  0.00000000000E+00 0.  1.
         12    1    3    3    0    0  0.12312124853E+02  0.18466406568E+01  0.12303307107E+02  0.17503424405E+02  0.00000000000E+00 0. -1.
         13    1    5    5    0    0 -0.10073149251E+03 -0.17228027059E+02  0.66018217379E+03  0.66804501427E+03  0.00000000000E+00 0. -1.
        -14    1    5    5    0    0 -0.41567044627E+02  0.22350646253E+02  0.11583638851E+03  0.12508173124E+03  0.00000000000E+00 0.  1.
          5    1    4    4  501    0  0.77215026701E+02  0.59627616922E+02  0.10185414283E+03  0.14110050269E+03  0.41800000000E+01 0. -1.
         -5    1    4    4    0  501  0.14500231131E+03 -0.51468584830E+02  0.24845677868E+03  0.29227201163E+03  0.41800000000E+01 0. -1.
</event>
<event>
11    1  0.8039394E-009  0.1437313E+03  0.7561462E-02  0.1103462E+00
         22   -1    0    0    0    0  0.00000000000E+00  0.00000000000E+00  0.22055069736E+03  0.22055069736E+03  0.00000000000E+00 0.  1.
         22   -1    0    0    0    0 -0.00000000000E+00 -0.00000000000E+00 -0.15053569515E+04  0.15053569515E+04  0.00000000000E+00 0.  1.
        -24    2    1    2    0    0  0.70453711610E+02  0.19932297724E+02 -0.12472606062E+04  0.12519740647E+04  0.80118767523E+02 0.  0.
         25    2    1    2    0    0 -0.56053669710E+02  0.13388880682E+02 -0.22684973581E+03  0.26538647930E+03  0.12509158542E+03 0.  0.
         24    2    1    2    0    0 -0.14400041900E+02 -0.33321178406E+02  0.18930408785E+03  0.20854710489E+03  0.79612782530E+02 0.  0.
        -13    1    5    5    0    0  0.14866996768E+02  0.19048769838E+02  0.83409754865E+02  0.86839336892E+02  0.00000000000E+00 0.  1.
         14    1    5    5    0    0 -0.29267038668E+02 -0.52369948244E+02  0.10589433299E+03  0.12170776800E+03  0.00000000000E+00 0. -1.
         11    1    3    3    0    0  0.39649050256E+02  0.85509656082E+01 -0.19366925980E+03  0.19787103980E+03  0.00000000000E+00 0. -1.
        -12    1    3    3    0    0  0.30804661354E+02  0.11381332116E+02 -0.10535913464E+04  0.10541030249E+04  0.00000000000E+00 0.  1.
          5    1    4    4  501    0  0.17007605309E+02 -0.18097554575E+02 -0.24509730333E+00  0.25185563178E+02  0.41800000000E+01 0.  1.
         -5    1    4    4    0  501 -0.73061275019E+02  0.31486435257E+02 -0.22660463850E+03  0.24020091612E+03  0.41800000000E+01 0.  1.
</event>
<event>
11    1  0.8039394E-009  0.3528123E+03  0.7561462E-02  0.9800263E-01
         22   -1    0    0    0    0  0.00000000000E+00  0.00000000000E+00  0.19960506639E+04  0.19960506639E+04  0.00000000000E+00 0. -1.
         22   -1    0    0    0    0 -0.00000000000E+00 -0.00000000000E+00 -0.88757318986E+03  0.88757318986E+03  0.00000000000E+00 0. -1.
         24    2    1    2    0    0 -0.26551087073E+03 -0.19104459790E+03 -0.80636821645E+03  0.87395222176E+03  0.81047668428E+02 0.  0.
         25    2    1    2    0    0  0.34270242872E+03  0.25525053000E+03  0.11358425827E+04  0.12199932340E+04  0.12508929074E+03 0.  0.
        -24    2    1    2    0    0 -0.77191557993E+02 -0.64205932099E+02  0.77900310779E+03  0.78967839799E+03  0.81640626866E+02 0.  0.
        -13    1    3    3    0    0 -0.41192466776E+02 -0.55114917421E+02 -0.10912468005E+03  0.12900646975E+03  0.00000000000E+00 0.  1.
         14    1    3    3    0    0 -0.22431840395E+03 -0.13592968048E+03 -0.69724353639E+03  0.74494575201E+03  0.00000000000E+00 0. -1.
         13    1    5    5    0    0 -0.63322443219E+02 -0.33073776606E+02  0.70001830764E+03  0.70365420310E+03  0.00000000000E+00 0. -1.
        -14    1    5    5    0    0 -0.13869114774E+02 -0.31132155493E+02  0.78984800154E+02  0.86024194885E+02  0.00000000000E+00 0.  1.
          5    1    4    4  501    0  0.13667048790E+03  0.11060134186E+03  0.64228640011E+03  0.66592850310E+03  0.41800000000E+01 0.  1.
         -5    1    4    4    0  501  0.20603194082E+03  0.14464918814E+03  0.49355618262E+03  0.55406473094E+03  0.41800000000E+01 0.  1.
</event>
<event>
11    1  0.8039394E-009  0.1364078E+03  0.7561462E-02  0.1111637E+00
         22   -1    0    0    0    0  0.00000000000E+00  0.00000000000E+00  0.48649895108E+02  0.48649895108E+02  0.00000000000E+00 0.  1.
         22   -1    0    0    0    0 -0.00000000000E+00 -0.00000000000E+00 -0.18843283596E+04  0.18843283596E+04  0.00000000000E+00 0.  1.
        -24    2    1    2    0    0 -0.42780681137E+02  0.11485083298E+02 -0.14805183476E+04  0.14833106483E+04  0.79459473721E+02 0.  0.
         25    2    1    2    0    0  0.59576907508E+02  0.39168650537E+02 -0.31508271424E+03  0.34642307176E+03  0.12509291245E+03 0.  0.
         24    2    1    2    0    0 -0.16796226372E+02 -0.50653733835E+02 -0.40077402587E+02  0.10324453458E+03  0.78773864637E+02 0.  0.
        -13    1    5    5    0    0 -0.17357430098E+02 -0.62672501431E+02 -0.39334465845E+01  0.65150555003E+02  0.00000000000E+00 0.  1.
         14    1    5    5    0    0  0.56120372681E+00  0.12018767596E+02 -0.36143956003E+02  0.38093979573E+02  0.00000000000E+00 0. -1.
         11    1    3    3    0    0 -0.20495414133E+02 -0.63182347918E+01 -0.90760526946E+02  0.93260148740E+02  0.00000000000E+00 0. -1.
        -12    1    3    3    0    0 -0.22285267003E+02  0.17803318090E+02 -0.13897578207E+04  0.13900504996E+04  0.00000000000E+00 0.  1.
          5    1    4    4  501    0 -0.28037473456E+02  0.85695212740E+01 -0.16884451527E+02  0.34089495685E+02  0.41800000000E+01 0. -1.
         -5    1    4    4    0  501  0.87614380964E+02  0.30599129263E+02 -0.29819826271E+03  0.31233357608E+03  0.41800000000E+01 0. -1.
</event>
<event>
11    1  0.8039394E-009  0.1337545E+03  0.7561462E-02  0.1114740E+00
         22   -1    0    0    0    0  0.00000000000E+00  0.00000000000E+00  0.26565125401E+04  0.26565125401E+04  0.00000000000E+00 0. -1.
         22   -1    0    0    0    0 -0.00000000000E+00 -0.00000000000E+00 -0.17930406025E+03  0.17930406025E+03  0.00000000000E+00 0. -1.
        -24    2    1    2    0    0 -0.19040712692E+02  0.70958475761E-01 -0.15999120558E+03  0.18141527320E+03  0.83377225380E+02 0.  0.
         25    2    1    2    0    0 -0.21364528721E+02  0.28114803206E+02  0.55228820978E+03  0.56737679946E+03  0.12508909085E+03 0.  0.
         24    2    1    2    0    0  0.40405241413E+02 -0.28185761682E+02  0.20849114756E+04  0.20870245277E+04  0.79928075103E+02 0.  0.
        -13    1    5    5    0    0  0.18428024142E+02 -0.55686720021E+02  0.12769560140E+04  0.12783024933E+04  0.00000000000E+00 0.  1.
         14    1    5    5    0    0  0.21977217271E+02  0.27500958338E+02  0.80795546165E+03  0.80872203432E+03  0.00000000000E+00 0. -1.
         13    1    3    3    0    0 -0.48915796590E+02  0.16255426377E+02 -0.96149508289E+02  0.10909501358E+03  0.00000000000E+00 0. -1.
        -14    1    3    3    0    0  0.29875083898E+02 -0.16184467901E+02 -0.63841697291E+02  0.72320259625E+02  0.00000000000E+00 0.  1.
          5    1    4    4  501    0 -0.34300350767E+02  0.54727662027E+02  0.14260979930E+03  0.15660989212E+03  0.41800000000E+01 0.  1.
         -5    1    4    4    0  501  0.12935822046E+02 -0.26612858821E+02  0.40967841048E+03  0.41076690733E+03  0.41800000000E+01 0.  1.
</event>
<event>
11    1  0.8039394E-009  0.1366380E+03  0.7561462E-02  0.1111372E+00
         22   -1    0    0    0    0  0.00000000000E+00  0.00000000000E+00  0.48147176229E+03  0.48147176229E+03  0.00000000000E+00 0. -1.
         22   -1    0    0    0    0 -0.00000000000E+00 -0.00000000000E+00 -0.83070071992E+03  0.83070071992E+03  0.00000000000E+00 0.  1.
        -24    2    1    2    0    0  0.20895144500E+02 -0.49940105549E+02 -0.74549019933E+03  0.75178863279E+03  0.80621894590E+02 0.  0.
         25    2    1    2    0    0 -0.40878005769E+02  0.62047249702E+02 -0.97702548327E+01  0.14582225277E+03  0.12509116264E+03 0.  0.
         24    2    1    2    0    0  0.19982861270E+02 -0.12107144152E+02  0.40603149653E+03  0.41456159666E+03  0.80335817463E+02 0.  0.
        -11    1    5    5    0    0 -0.10501228555E+02  0.19678478753E+02  0.39247040761E+02  0.45142535769E+02  0.00000000000E+00 0.  1.
         12    1    5    5    0    0  0.30484089825E+02 -0.31785622906E+02  0.36678445576E+03  0.36941906089E+03  0.00000000000E+00 0. -1.
         11    1    3    3    0    0 -0.13815851056E+02 -0.35211870149E+01 -0.23579712034E+02  0.27555023462E+02  0.00000000000E+00 0. -1.
        -12    1    3    3    0    0  0.34710995555E+02 -0.46418918535E+02 -0.72191048729E+03  0.72423360932E+03  0.00000000000E+00 0.  1.
          5    1    4    4  501    0 -0.18753242148E+02 -0.31950295846E+02 -0.29046966550E+02  0.47262079529E+02  0.41800000000E+01 0.  1.
         -5    1    4    4    0  501 -0.22124763622E+02  0.93997545548E+02  0.19276711717E+02  0.98560173239E+02  0.41800000000E+01 0.  1.
</event>
<event>
11    1  0.8039394E-009  0.2359901E+03  0.7561462E-02  0.1031639E+00
         22   -1    0    0    0    0  0.00000000000E+00  0.00000000000E+00  0.18603915684E+04  0.18603915684E+04  0.00000000000E+00 0. -1.
         22   -1    0    0    0    0 -0.00000000000E+00 -0.00000000000E+00 -0.63657735347E+03  0.63657735347E+03  0.00000000000E+00 0.  1.
        -24    2    1    2    0    0 -0.13796464478E+02 -0.36810130823E+02 -0.37307172980E+03  0.38340066335E+03  0.79172122123E+02 0.  0.
         25    2    1    2    0    0 -0.17438488579E+03  0.10489061499E+03 -0.19526296255E+03  0.30852465769E+03  0.12509080843E+03 0.  0.
         24    2    1    2    0    0  0.18818135027E+03 -0.68080484165E+02  0.17921489072E+04  0.18050436008E+04  0.79608555228E+02 0.  0.
        -13    1    5    5    0    0  0.40836223398E+02  0.53824306661E+01  0.62282773964E+03  0.62418824161E+03  0.00000000000E+00 0.  1.
         14    1    5    5    0    0  0.14734512687E+03 -0.73462914831E+02  0.11693211676E+04  0.11808553592E+04  0.00000000000E+00 0. -1.
         13    1    3    3    0    0  0.13423164861E+02 -0.42443281032E+02 -0.10713466994E+03  0.11601487389E+03  0.00000000000E+00 0. -1.
        -14    1    3    3    0    0 -0.27219629340E+02  0.56331502092E+01 -0.26593705986E+03  0.26738578947E+03  0.00000000000E+00 0.  1.
          5    1    4    4  501    0 -0.69273944077E+02  0.86327294210E+02 -0.35449291043E+02  0.11629877768E+03  0.41800000000E+01 0. -1.
         -5    1    4    4    0  501 -0.10511094171E+03  0.18563320778E+02 -0.15981367151E+03  0.19222588001E+03  0.41800000000E+01 0. -1.
</event>
<event>
11    1  0.8629624E-009  0.1447721E+03  0.7561462E-02  0.1102344E+00
         22   -1    0    0    0    0  0.00000000000E+00  0.00000000000E+00  0.56889887017E+03  0.56889887017E+03  0.00000000000E+00 0.  1.
         22   -1    0    0    0    0 -0.00000000000E+00 -0.00000000000E+00 -0.85961283672E+03  0.85961283672E+03  0.00000000000E+00 0. -1.
        -24    2    1    2    0    0  0.44256738358E+02 -0.35533100115E+02 -0.64626569064E+03  0.65347887210E+03  0.78447646832E+02 0.  0.
         25    2    1    2    0    0 -0.11597152139E+03  0.35216933590E+02 -0.16708359116E+03  0.24135807433E+03  0.12508863828E+03 0.  0.
         24    2    1    2    0    0  0.71714783030E+02  0.31616652505E+00  0.52263531525E+03  0.53367476046E+03  0.80733928055E+02 0.  0.
        -11    1    5    5    0    0  0.23419690032E+02 -0.18618666322E+02  0.39165554161E+03  0.39279663935E+03  0.00000000000E+00 0.  1.
         12    1    5    5    0    0  0.48295092997E+02  0.18934832847E+02  0.13097977364E+03  0.14087812111E+03  0.00000000000E+00 0. -1.
         11    1    3    3    0    0  0.64168050997E+02 -0.34618583646E+02 -0.57029705631E+03  0.57493888157E+03  0.00000000000E+00 0. -1.
        -12    1    3    3    0    0 -0.19911312639E+02 -0.91451646891E+00 -0.75968634327E+02  0.78539990533E+02  0.00000000000E+00 0.  1.
          5    1    4    4  501    0  0.13233827720E+01  0.40896223848E+02 -0.53984491558E+01  0.41483347505E+02  0.41800000000E+01 0. -1.
         -5    1    4    4    0  501 -0.11729490416E+03 -0.56792902581E+01 -0.16168514200E+03  0.19987472683E+03  0.41800000000E+01 0. -1.
</event>
<event>
11    1  0.8039394E-009  0.1358987E+03  0.7561462E-02  0.1112227E+00
         22   -1    0    0    0    0  0.00000000000E+00  0.00000000000E+00  0.64911915137E+03  0.64911915137E+03  0.00000000000E+00 0.  1.
         22   -1    0    0    0    0 -0.00000000000E+00 -0.00000000000E+00 -0.19098366475E+03  0.19098366475E+03  0.00000000000E+00 0. -1.
        -24    2    1    2    0    0 -0.16895556692E+01 -0.53444913209E+02 -0.13999769800E+03  0.16851073963E+03  0.77053881022E+02 0.  0.
         25    2    1    2    0    0  0.45027870517E+02  0.46432508713E+02  0.12058944435E+03  0.18539674050E+03  0.12508657126E+03 0.  0.
         24    2    1    2    0    0 -0.43338314848E+02  0.70124044961E+01  0.47754374027E+03  0.48619533598E+03  0.80065582539E+02 0.  0.
        -11    1    5    5    0    0 -0.16617325145E+02  0.33416971643E+02  0.37734358510E+03  0.37918466571E+03  0.00000000000E+00 0.  1.
         12    1    5    5    0    0 -0.26720989703E+02 -0.26404567147E+02  0.10020015517E+03  0.10701067028E+03  0.00000000000E+00 0. -1.
         11    1    3    3    0    0 -0.24659540536E+02 -0.63565004686E+02 -0.94193754085E+02  0.11628011897E+03  0.00000000000E+00 0. -1.
        -12    1    3    3    0    0  0.22969984867E+02  0.10120091477E+02 -0.45803943915E+02  0.52230620660E+02  0.00000000000E+00 0.  1.
          5    1    4    4  501    0  0.26892570548E+01 -0.42199715331E+02  0.35203827868E+02  0.55179978018E+02  0.41800000000E+01 0. -1.
         -5    1    4    4    0  501  0.42338613462E+02  0.88632224044E+02  0.85385616485E+02  0.13021676248E+03  0.41800000000E+01 0. -1.
</event>
<event>
11    1  0.8039394E-009  0.1478834E+03  0.7561462E-02  0.1099061E+00
         22   -1    0    0    0    0  0.00000000000E+00  0.00000000000E+00  0.21488370791E+04  0.21488370791E+04  0.00000000000E+00 0.  1.
         22   -1    0    0    0    0 -0.00000000000E+00 -0.00000000000E+00 -0.34549473765E+03  0.34549473765E+03  0.00000000000E+00 0. -1.
         24    2    1    2    0    0  0.38795891495E+02  0.73366198275E+02 -0.30644041905E+03  0.32975133901E+03  0.89120676061E+02 0.  0.
         25    2    1    2    0    0  0.40664661906E+02 -0.36753248674E+02  0.15679899562E+03  0.20793651449E+03  0.12508898039E+03 0.  0.
        -24    2    1    2    0    0 -0.79460553400E+02 -0.36612949601E+02  0.19529837649E+04  0.19566439633E+04  0.81581403567E+02 0.  0.
        -11    1    3    3    0    0  0.32164783252E+02  0.76248626454E+01 -0.27224814913E+02  0.42824086202E+02  0.00000000000E+00 0.  1.
         12    1    3    3    0    0  0.66311082425E+01  0.65741335629E+02 -0.27921560414E+03  0.28692725281E+03  0.00000000000E+00 0. -1.
         13    1    5    5    0    0  0.72190874384E+01  0.88976273288E+01  0.57325720628E+02  0.58459569286E+02  0.00000000000E+00 0. -1.
        -14    1    5    5    0    0 -0.86679640839E+02 -0.45510576929E+02  0.18956580443E+04  0.18981843940E+04  0.00000000000E+00 0.  1.
          5    1    4    4  501    0  0.57440864381E+02  0.31368281736E+02  0.65144089683E+02  0.92437258833E+02  0.41800000000E+01 0.  1.
         -5    1    4    4    0  501 -0.16776202475E+02 -0.68121530410E+02  0.91654905932E+02  0.11549925565E+03  0.41800000000E+01 0.  1.
</event>
<event>
11    1  0.8039394E-009  0.3093027E+03  0.7561462E-02  0.9963292E-01
         22   -1    0    0    0    0  0.00000000000E+00  0.00000000000E+00  0.43945364873E+03  0.43945364873E+03  0.00000000000E+00 0. -1.
         22   -1    0    0    0    0 -0.00000000000E+00 -0.00000000000E+00 -0.90942994455E+03  0.90942994455E+03  0.00000000000E+00 0. -1.
         24    2    1    2    0    0 -0.71372671114E+02  0.12669114532E+03 -0.49774926757E+03  0.52241998216E+03  0.63431852489E+02 0.  0.
         25    2    1    2    0    0  0.10543565508E+03  0.17264083039E+03 -0.29380476647E+03  0.37801222615E+03  0.12510183307E+03 0.  0.
        -24    2    1    2    0    0 -0.34062983964E+02 -0.29933197571E+03  0.32157773822E+03  0.44845138498E+03  0.83285559446E+02 0.  0.
        -11    1    3    3    0    0 -0.52928349661E+01  0.59258646984E+02 -0.13392405107E+03  0.14654437144E+03  0.00000000000E+00 0.  1.
         12    1    3    3    0    0 -0.66079836148E+02  0.67432498335E+02 -0.36382521650E+03  0.37587561072E+03  0.00000000000E+00 0. -1.
         11    1    5    5    0    0 -0.22157600715E+02 -0.29712757804E+03  0.29519605417E+03  0.41942397082E+03  0.00000000000E+00 0. -1.
        -12    1    5    5    0    0 -0.11905383248E+02 -0.22043976678E+01  0.26381684047E+02  0.29027414155E+02  0.00000000000E+00 0.  1.
          5    1    4    4  501    0  0.27978948648E+02  0.39670772645E+02 -0.18025153405E+03  0.18672086037E+03  0.41800000000E+01 0.  1.
         -5    1    4    4    0  501  0.77456706430E+02  0.13297005775E+03 -0.11355323242E+03  0.19129136578E+03  0.41800000000E+01 0.  1.
</event>
<event>
11    1  0.8039394E-009  0.1731673E+03  0.7561462E-02  0.1075308E+00
         22   -1    0    0    0    0  0.00000000000E+00  0.00000000000E+00  0.65063797194E+03  0.65063797194E+03  0.00000000000E+00 0.  1.
         22   -1    0    0    0    0 -0.00000000000E+00 -0.00000000000E+00 -0.61170724744E+03  0.61170724744E+03  0.00000000000E+00 0.  1.
         24    2    1    2    0    0 -0.14435293609E+02  0.12093549854E+03 -0.49284853633E+03  0.51492819521E+03  0.86125454693E+02 0.  0.
         25    2    1    2    0    0 -0.24121894920E+02 -0.11003419159E+03 -0.36896344563E+02  0.17233101413E+03  0.12508896457E+03 0.  0.
        -24    2    1    2    0    0  0.38557188529E+02 -0.10901306948E+02  0.56867560540E+03  0.57508601003E+03  0.75673505775E+02 0.  0.
        -11    1    3    3    0    0 -0.37113369378E+02  0.10388774735E+03 -0.45150119190E+03  0.46478316721E+03  0.00000000000E+00 0.  1.
         12    1    3    3    0    0  0.22678075770E+02  0.17047751183E+02 -0.41347344437E+02  0.50145027999E+02  0.00000000000E+00 0. -1.
         13    1    5    5    0    0  0.38260562032E+01 -0.37938931541E+02  0.34655701232E+03  0.34864848203E+03  0.00000000000E+00 0. -1.
        -14    1    5    5    0    0  0.34731132325E+02  0.27037624593E+02  0.22211859308E+03  0.22643752800E+03  0.00000000000E+00 0.  1.
          5    1    4    4  501    0  0.16354120298E+02 -0.12276489756E+03 -0.38202017276E+02  0.12967476180E+03  0.41800000000E+01 0. -1.
         -5    1    4    4    0  501 -0.40476015217E+02  0.12730705968E+02  0.13056727124E+01  0.42656252339E+02  0.41800000000E+01 0. -1.
</event>
<event>
11    1  0.1540939E-008  0.1945537E+03  0.7561462E-02  0.1058443E+00
         22   -1    0    0    0    0  0.00000000000E+00  0.00000000000E+00  0.84651946284E+03  0.84651946284E+03  0.00000000000E+00 0.  1.
         22   -1    0    0    0    0 -0.00000000000E+00 -0.00000000000E+00 -0.13787272411E+04  0.13787272411E+04  0.00000000000E+00 0. -1.
        -24    2    1    2    0    0 -0.39986395147E+02  0.64815665235E+02 -0.10043579912E+04  0.10103432693E+04  0.79111093362E+02 0.  0.
         25    2    1    2    0    0  0.17230745528E+03  0.33731526889E+01 -0.33126320900E+03  0.39380749756E+03  0.12509114355E+03 0.  0.
         24    2    1    2    0    0 -0.13232106013E+03 -0.68188817924E+02  0.80341342191E+03  0.82109593711E+03  0.81036001739E+02 0.  0.
        -13    1    5    5    0    0 -0.13054156259E+03 -0.33855095183E+02  0.62171753011E+03  0.63617604032E+03  0.00000000000E+00 0.  1.
         14    1    5    5    0    0 -0.17794975432E+01 -0.34333722740E+02  0.18169589180E+03  0.18491989678E+03  0.00000000000E+00 0. -1.
         13    1    3    3    0    0 -0.11243836824E+02  0.43705681588E+02 -0.87490175590E+03  0.87606489083E+03  0.00000000000E+00 0. -1.
        -14    1    3    3    0    0 -0.28742558323E+02  0.21109983646E+02 -0.12945623530E+03  0.13427837848E+03  0.00000000000E+00 0.  1.
          5    1    4    4  501    0  0.11601359974E+02  0.55196834544E+01  0.98396517723E+01  0.16713754985E+02  0.41800000000E+01 0.  1.
         -5    1    4    4    0  501  0.16070609531E+03 -0.21465307655E+01 -0.34110286077E+03  0.37709374258E+03  0.41800000000E+01 0.  1.
</event>
<event>
11    1  0.8039394E-009  0.1586613E+03  0.7561462E-02  0.1088343E+00
         22   -1    0    0    0    0  0.00000000000E+00  0.00000000000E+00  0.78443083996E+02  0.78443083996E+02  0.00000000000E+00 0.  1.
         22   -1    0    0    0    0 -0.00000000000E+00 -0.00000000000E+00 -0.87367608324E+03  0.87367608324E+03  0.00000000000E+00 0. -1.
         24    2    1    2    0    0  0.69930490887E+02 -0.10072149761E+02 -0.49717687228E+03  0.50897754106E+03  0.82955248286E+02 0.  0.
         25    2    1    2    0    0 -0.78482550610E+01 -0.78359325824E+02 -0.26576353111E+03  0.30411048734E+03  0.12510457621E+03 0.  0.
        -24    2    1    2    0    0 -0.62082235826E+02  0.88431475584E+02 -0.32292595849E+02  0.13903113883E+03  0.81317377842E+02 0.  0.
        -13    1    3    3    0    0  0.30073477998E+02  0.81130022870E+01 -0.45263350622E+02  0.54945480201E+02  0.00000000000E+00 0.  1.
         14    1    3    3    0    0  0.39857012889E+02 -0.18185152048E+02 -0.45191352166E+03  0.45403206086E+03  0.00000000000E+00 0. -1.
         13    1    5    5    0    0 -0.61599172029E+02  0.17145011436E+02 -0.15350301507E+02  0.65757441922E+02  0.00000000000E+00 0. -1.
        -14    1    5    5    0    0 -0.48306379743E+00  0.71286464148E+02 -0.16942294342E+02  0.73273696911E+02  0.00000000000E+00 0.  1.
          5    1    4    4  501    0 -0.22860513455E+02 -0.98640114399E+02 -0.25829809276E+03  0.27746684913E+03  0.41800000000E+01 0. -1.
         -5    1    4    4    0  501  0.15012258394E+02  0.20280788575E+02 -0.74654383578E+01  0.26643638212E+02  0.41800000000E+01 0. -1.
</event>
<event>
11    1  0.8039394E-009  0.7514736E+03  0.7561462E-02  0.8959709E-01
         22   -1    0    0    0    0  0.00000000000E+00  0.00000000000E+00  0.23442264147E+04  0.23442264147E+04  0.00000000000E+00 0.  1.
         22   -1    0    0    0    0 -0.00000000000E+00 -0.00000000000E+00 -0.11437371278E+04  0.11437371278E+04  0.00000000000E+00 0. -1.
        -24    2    1    2    0    0 -0.44789431485E+02 -0.74268220070E+03 -0.85071872970E+03  0.11337773361E+04  0.90253788776E+02 0.  0.
         25    2    1    2    0    0 -0.79452648306E+02  0.72570033415E+03  0.78577888518E+03  0.10798370419E+04  0.12508350137E+03 0.  0.
         24    2    1    2    0    0  0.12424207979E+03  0.16981866543E+02  0.12654291314E+04  0.12743491645E+04  0.83249193617E+02 0.  0.
        -11    1    5    5    0    0  0.21437587947E+02  0.95593437256E+01  0.64419415695E+03  0.64462164336E+03  0.00000000000E+00 0.  1.
         12    1    5    5    0    0  0.10280449184E+03  0.74225228171E+01  0.62123497444E+03  0.62972752112E+03  0.00000000000E+00 0. -1.
         11    1    3    3    0    0 -0.47197481996E+02 -0.49519007330E+03 -0.62512730307E+03  0.79888982723E+03  0.00000000000E+00 0. -1.
        -12    1    3    3    0    0  0.24080505105E+01 -0.24749212740E+03 -0.22559142662E+03  0.33488750887E+03  0.00000000000E+00 0.  1.
          5    1    4    4  501    0 -0.67454081648E+01  0.45943427522E+03  0.42809356432E+03  0.62801825291E+03  0.41800000000E+01 0.  1.
         -5    1    4    4    0  501 -0.72707240141E+02  0.26626605893E+03  0.35768532086E+03  0.45181878897E+03  0.41800000000E+01 0.  1.
</event>
<event>
11    1  0.8039394E-009  0.1326394E+03  0.7561462E-02  0.1116068E+00
         22   -1    0    0    0    0  0.00000000000E+00  0.00000000000E+00  0.26902852568E+03  0.26902852568E+03  0.00000000000E+00 0.  1.
         22   -1    0    0    0    0 -0.00000000000E+00 -0.00000000000E+00 -0.67663621211E+03  0.67663621211E+03  0.00000000000E+00 0.  1.
         24    2    1    2    0    0 -0.44547672583E+02  0.46802390247E-01 -0.47522709562E+03  0.48421119590E+03  0.81456690935E+02 0.  0.
         25    2    1    2    0    0  0.41729821669E+02 -0.16022978308E+02 -0.16719158094E+03  0.21352621012E+03  0.12506919614E+03 0.  0.
        -24    2    1    2    0    0  0.28178509148E+01  0.15976175918E+02  0.23481099013E+03  0.24792733176E+03  0.77901105693E+02 0.  0.
        -13    1    3    3    0    0 -0.50102274309E+02  0.81163154464E+00 -0.47592971800E+03  0.47856033383E+03  0.00000000000E+00 0.  1.
         14    1    3    3    0    0  0.55546017259E+01 -0.76482915439E+00  0.70262237732E+00  0.56508620735E+01  0.00000000000E+00 0. -1.
         11    1    5    5    0    0 -0.22936607857E+02 -0.74701597299E+01  0.18820901355E+03  0.18974858115E+03  0.00000000000E+00 0. -1.
        -12    1    5    5    0    0  0.25754458771E+02  0.23446335647E+02  0.46601976584E+02  0.58178750617E+02  0.00000000000E+00 0.  1.
          5    1    4    4  501    0  0.33040469891E+02 -0.18203566438E+02 -0.18730653160E+03  0.19111319071E+03  0.41800000000E+01 0. -1.
         -5    1    4    4    0  501  0.86893517771E+01  0.21805881304E+01  0.20114950666E+02  0.22413019413E+02  0.41800000000E+01 0. -1.
</event>
<event>
11    1  0.8039394E-009  0.2980010E+03  0.7561462E-02  0.1001041E+00
         22   -1    0    0    0    0  0.00000000000E+00  0.00000000000E+00  0.72676207347E+03  0.72676207347E+03  0.00000000000E+00 0.  1.
         22   -1    0    0    0    0 -0.00000000000E+00 -0.00000000000E+00 -0.82726843094E+03  0.82726843094E+03  0.00000000000E+00 0.  1.
         24    2    1    2    0    0  0.26774751534E+03 -0.10339482292E+02 -0.57160107635E+03  0.63650744263E+03  0.81352917468E+02 0.  0.
         25    2    1    2    0    0 -0.27843168318E+03  0.12914976344E+02 -0.11439236213E+03  0.32622776186E+03  0.12509173146E+03 0.  0.
        -24    2    1    2    0    0  0.10684167846E+02 -0.25754940517E+01  0.58548708101E+03  0.59129529991E+03  0.81940375017E+02 0.  0.
        -13    1    3    3    0    0  0.10460701101E+03 -0.31270912948E+02 -0.29679256872E+03  0.31623776751E+03  0.00000000000E+00 0.  1.
         14    1    3    3    0    0  0.16314050433E+03  0.20931430655E+02 -0.27480850762E+03  0.32026967512E+03  0.00000000000E+00 0. -1.
         13    1    5    5    0    0 -0.27412113040E+02 -0.57195980705E+01  0.88139077681E+02  0.92480456086E+02  0.00000000000E+00 0. -1.
        -14    1    5    5    0    0  0.38096280886E+02  0.31441040189E+01  0.49734800333E+03  0.49881484382E+03  0.00000000000E+00 0.  1.
          5    1    4    4  501    0 -0.25085791213E+03  0.51321393775E+02 -0.10948611988E+03  0.27851079042E+03  0.41800000000E+01 0.  1.
         -5    1    4    4    0  501 -0.27573771057E+02 -0.38406417431E+02 -0.49062422487E+01  0.47716971438E+02  0.41800000000E+01 0.  1.
</event>
<event>
11    1  0.8039394E-009  0.1421130E+03  0.7561462E-02  0.1105222E+00
         22   -1    0    0    0    0  0.00000000000E+00  0.00000000000E+00  0.25690710846E+03  0.25690710846E+03  0.00000000000E+00 0. -1.
         22   -1    0    0    0    0 -0.00000000000E+00 -0.00000000000E+00 -0.57225992574E+03  0.57225992574E+03  0.00000000000E+00 0. -1.
        -24    2    1    2    0    0  0.61805920673E+02  0.32930170426E+02 -0.49596207893E+03  0.50714537271E+03  0.79458651944E+02 0.  0.
         25    2    1    2    0    0 -0.10016312071E+02 -0.45662764565E+02  0.22388074133E+02  0.13540353965E+03  0.12508988013E+03 0.  0.
         24    2    1    2    0    0 -0.51789608602E+02  0.12732594139E+02  0.15822118751E+03  0.18661812185E+03  0.83355244065E+02 0.  0.
        -13    1    5    5    0    0 -0.44025348131E+02  0.38012944471E+01  0.21066537953E+02  0.48953857242E+02  0.00000000000E+00 0.  1.
         14    1    5    5    0    0 -0.77642604704E+01  0.89312996919E+01  0.13715464956E+03  0.13766426461E+03  0.00000000000E+00 0. -1.
         13    1    3    3    0    0 -0.72916977084E+01  0.78690561515E+01 -0.25492193123E+03  0.25514756891E+03  0.00000000000E+00 0. -1.
        -14    1    3    3    0    0  0.69097618382E+02  0.25061114275E+02 -0.24104014770E+03  0.25199780380E+03  0.00000000000E+00 0.  1.
          5    1    4    4  501    0  0.10078471592E+02  0.10441105316E+02 -0.43747630856E+02  0.46280880235E+02  0.41800000000E+01 0. -1.
         -5    1    4    4    0  501 -0.20094783663E+02 -0.56103869881E+02  0.66135704989E+02  0.89122659411E+02  0.41800000000E+01 0. -1.
</event>
<event>
11    1  0.8039394E-009  0.1308422E+03  0.7561462E-02  0.1118239E+00
         22   -1    0    0    0    0  0.00000000000E+00  0.00000000000E+00  0.27180477134E+03  0.27180477134E+03  0.00000000000E+00 0. -1.
         22   -1    0    0    0    0 -0.00000000000E+00 -0.00000000000E+00 -0.68566467419E+03  0.68566467419E+03  0.00000000000E+00 0.  1.
        -24    2    1    2    0    0  0.10877672706E+02  0.39178282521E+01 -0.62073596025E+03  0.62570233430E+03  0.77824197112E+02 0.  0.
         25    2    1    2    0    0  0.35844595467E+00 -0.40465174675E+02  0.31487227364E+02  0.13518785055E+03  0.12508697216E+03 0.  0.
         24    2    1    2    0    0 -0.11236118661E+02  0.36547346423E+02  0.17538883003E+03  0.19657926069E+03  0.80126182609E+02 0.  0.
        -13    1    5    5    0    0 -0.66514727208E+01  0.18403501820E+02 -0.61990005002E+00  0.19578438259E+02  0.00000000000E+00 0.  1.
         14    1    5    5    0    0 -0.45846459398E+01  0.18143844603E+02  0.17600873008E+03  0.17700082243E+03  0.00000000000E+00 0. -1.
         13    1    3    3    0    0 -0.15989595813E+02 -0.11392939623E+02 -0.44516907976E+02  0.48654098936E+02  0.00000000000E+00 0. -1.
        -14    1    3    3    0    0  0.26867268519E+02  0.15310767875E+02 -0.57621905227E+03  0.57704823536E+03  0.00000000000E+00 0.  1.
          5    1    4    4  501    0  0.56895139130E+02 -0.42348851346E+02  0.33236407785E+02  0.78438595535E+02  0.41800000000E+01 0.  1.
         -5    1    4    4    0  501 -0.56536693175E+02  0.18836766715E+01 -0.17491804214E+01  0.56749255019E+02  0.41800000000E+01 0.  1.
</event>
<event>
11    1  0.8039394E-009  0.1725869E+03  0.7561462E-02  0.1075802E+00
         22   -1    0    0    0    0  0.00000000000E+00  0.00000000000E+00  0.26007171185E+04  0.26007171185E+04  0.00000000000E+00 0.  1.
         22   -1    0    0    0    0 -0.00000000000E+00 -0.00000000000E+00 -0.13731985832E+03  0.13731985832E+03  0.00000000000E+00 0.  1.
         24    2    1    2    0    0  0.22357425394E+02 -0.61529414297E+02 -0.91868634771E+02  0.13676209636E+03  0.77319477832E+02 0.  0.
         25    2    1    2    0    0  0.32327681078E+02 -0.51299009393E+02  0.21248080001E+03  0.25391356549E+03  0.12508933223E+03 0.  0.
        -24    2    1    2    0    0 -0.54685106472E+02  0.11282842369E+03  0.23427850949E+04  0.23473613150E+04  0.75778809075E+02 0.  0.
        -13    1    3    3    0    0 -0.49962607876E+01 -0.71605967689E+02 -0.70563087972E+02  0.10065548477E+03  0.00000000000E+00 0.  1.
         14    1    3    3    0    0  0.27353686182E+02  0.10076553392E+02 -0.21305546799E+02  0.36106611589E+02  0.00000000000E+00 0. -1.
         13    1    5    5    0    0 -0.21511363545E+02  0.27377773734E+02  0.23312079232E+03  0.23570656561E+03  0.00000000000E+00 0. -1.
        -14    1    5    5    0    0 -0.33173742927E+02  0.85450649956E+02  0.21096643026E+04  0.21116547494E+04  0.00000000000E+00 0.  1.
          5    1    4    4  501    0  0.55249986840E+02 -0.41886905155E+02  0.21747039238E+03  0.22829349056E+03  0.41800000000E+01 0. -1.
         -5    1    4    4    0  501 -0.22922305762E+02 -0.94121042380E+01 -0.49895923642E+01  0.25620074934E+02  0.41800000000E+01 0. -1.
</event>
<event>
11    1  0.8039394E-009  0.1610304E+03  0.7561462E-02  0.1086112E+00
         22   -1    0    0    0    0  0.00000000000E+00  0.00000000000E+00  0.25851184994E+04  0.25851184994E+04  0.00000000000E+00 0. -1.
         22   -1    0    0    0    0 -0.00000000000E+00 -0.00000000000E+00 -0.18039022897E+03  0.18039022897E+03  0.00000000000E+00 0.  1.
         24    2    1    2    0    0 -0.73452963022E+02  0.67424899632E+02 -0.13779714277E+03  0.18440645048E+03  0.71247677548E+02 0.  0.
         25    2    1    2    0    0  0.62201343822E+02 -0.14335178227E+03  0.54659426967E+03  0.58208557930E+03  0.12505832775E+03 0.  0.
        -24    2    1    2    0    0  0.11251619200E+02  0.75926882634E+02  0.19959311436E+04  0.19990166986E+04  0.80219331018E+02 0.  0.
        -13    1    3    3    0    0 -0.41313837100E+02  0.77517961066E+02 -0.10974072209E+03  0.14056633135E+03  0.00000000000E+00 0.  1.
         14    1    3    3    0    0 -0.32139125922E+02 -0.10093061434E+02 -0.28056420677E+02  0.43840119130E+02  0.00000000000E+00 0. -1.
         13    1    5    5    0    0 -0.17652532619E+02  0.65319140577E+02  0.17276686675E+04  0.17289931252E+04  0.00000000000E+00 0. -1.
        -14    1    5    5    0    0  0.28904151819E+02  0.10607742057E+02  0.26826247603E+03  0.27002357347E+03  0.00000000000E+00 0.  1.
          5    1    4    4  501    0  0.81712601434E+02 -0.88324602859E+02  0.22480052556E+03  0.25501163384E+03  0.41800000000E+01 0. -1.
         -5    1    4    4    0  501 -0.19511257612E+02 -0.55027179407E+02  0.32179374411E+03  0.32707394546E+03  0.41800000000E+01 0. -1.
</event>
<event>
11    1  0.8039394E-009  0.1763095E+03  0.7561462E-02  0.1072668E+00
         22   -1    0    0    0    0  0.00000000000E+00  0.00000000000E+00  0.25876837835E+03  0.25876837835E+03  0.00000000000E+00 0.  1.
         22   -1    0    0    0    0 -0.00000000000E+00 -0.00000000000E+00 -0.31276492664E+04  0.31276492664E+04  0.00000000000E+00 0. -1.
        -24    2    1    2    0    0 -0.92104310669E+01 -0.13019228029E+03 -0.28270139957E+04  0.28311672336E+04  0.80404669544E+02 0.  0.
         25    2    1    2    0    0 -0.91665108075E+02  0.54052184501E+02 -0.25022991412E+03  0.29930579708E+03  0.12507925311E+03 0.  0.
         24    2    1    2    0    0  0.10087553914E+03  0.76140095786E+02  0.20836302172E+03  0.25594461410E+03  0.78226006450E+02 0.  0.
        -13    1    5    5    0    0  0.11237954988E+03  0.72706371855E+02  0.20209850867E+03  0.24240294335E+03  0.00000000000E+00 0.  1.
         14    1    5    5    0    0 -0.11504010735E+02  0.34337239310E+01  0.62645130498E+01  0.13541670752E+02  0.00000000000E+00 0. -1.
         13    1    3    3    0    0 -0.42345735219E+01 -0.89172133128E+02 -0.10860358612E+04  0.10896988083E+04  0.00000000000E+00 0. -1.
        -14    1    3    3    0    0 -0.49758575450E+01 -0.41020147160E+02 -0.17409781344E+04  0.17414684253E+04  0.00000000000E+00 0.  1.
          5    1    4    4  501    0  0.29338578877E+01 -0.27061573353E+02 -0.10178933356E+03  0.10544893125E+03  0.41800000000E+01 0. -1.
         -5    1    4    4    0  501 -0.94598965963E+02  0.81113757854E+02 -0.14844058055E+03  0.19385686583E+03  0.41800000000E+01 0. -1.
</event>
<event>
11    1  0.8039394E-009  0.1507979E+03  0.7561462E-02  0.1096066E+00
         22   -1    0    0    0    0  0.00000000000E+00  0.00000000000E+00  0.41199933283E+03  0.41199933283E+03  0.00000000000E+00 0.  1.
         22   -1    0    0    0    0 -0.00000000000E+00 -0.00000000000E+00 -0.12677178565E+04  0.12677178565E+04  0.00000000000E+00 0. -1.
        -24    2    1    2    0    0 -0.79863638386E+02 -0.24881337155E+02 -0.11287986314E+04  0.11350414021E+04  0.84471016978E+02 0.  0.
         25    2    1    2    0    0  0.79280606601E+02  0.57782683204E+02 -0.81559112267E+02  0.17866631709E+03  0.12508201712E+03 0.  0.
         24    2    1    2    0    0  0.58303178473E+00 -0.32901346049E+02  0.35463921993E+03  0.36600947014E+03  0.84327441692E+02 0.  0.
        -11    1    5    5    0    0 -0.34992549761E+02 -0.22866573815E+02  0.27562324758E+03  0.27877505868E+03  0.00000000000E+00 0.  1.
         12    1    5    5    0    0  0.35575581546E+02 -0.10034772234E+02  0.79015972355E+02  0.87234411464E+02  0.00000000000E+00 0. -1.
         11    1    3    3    0    0 -0.27019860692E+02 -0.14161442582E+02 -0.87717812854E+03  0.87770843024E+03  0.00000000000E+00 0. -1.
        -12    1    3    3    0    0 -0.52843777694E+02 -0.10719894573E+02 -0.25162050283E+03  0.25733297190E+03  0.00000000000E+00 0.  1.
          5    1    4    4  501    0  0.90140575797E+02 -0.37747148194E+01 -0.71551507963E+02  0.11522440093E+03  0.41800000000E+01 0.  1.
         -5    1    4    4    0  501 -0.10859969196E+02  0.61557398024E+02 -0.10007604305E+02  0.63441916162E+02  0.41800000000E+01 0.  1.
</event>
<event>
11    1  0.8039394E-009  0.2273783E+03  0.7561462E-02  0.1036692E+00
         22   -1    0    0    0    0  0.00000000000E+00  0.00000000000E+00  0.23931591085E+03  0.23931591085E+03  0.00000000000E+00 0.  1.
         22   -1    0    0    0    0 -0.00000000000E+00 -0.00000000000E+00 -0.31117072848E+04  0.31117072848E+04  0.00000000000E+00 0. -1.
        -24    2    1    2    0    0 -0.82057228820E+02  0.16160004314E+03 -0.22818146677E+04  0.22904029609E+04  0.80122299600E+02 0.  0.
         25    2    1    2    0    0  0.21872763139E+03 -0.15886405171E+03 -0.76688754973E+03  0.82270512770E+03  0.12509056544E+03 0.  0.
         24    2    1    2    0    0 -0.13667040257E+03 -0.27359914314E+01  0.17631084347E+03  0.23791510705E+03  0.82654703735E+02 0.  0.
        -13    1    5    5    0    0 -0.72841884766E+02  0.19679722870E+02  0.14481386493E+03  0.16329203026E+03  0.00000000000E+00 0.  1.
         14    1    5    5    0    0 -0.63828517804E+02 -0.22415714302E+02  0.31496978531E+02  0.74623076788E+02  0.00000000000E+00 0. -1.
         13    1    3    3    0    0 -0.57836313830E+02  0.13022769585E+03 -0.20709093998E+04  0.20758058759E+04  0.00000000000E+00 0. -1.
        -14    1    3    3    0    0 -0.24220914991E+02  0.31372347286E+02 -0.21090526785E+03  0.21459708503E+03  0.00000000000E+00 0.  1.
          5    1    4    4  501    0  0.99329402249E+02 -0.66654927409E+02 -0.17596397329E+03  0.21281447741E+03  0.41800000000E+01 0.  1.
         -5    1    4    4    0  501  0.11939822914E+03 -0.92209124296E+02 -0.59092357643E+03  0.60989065029E+03  0.41800000000E+01 0.  1.
</event>
<event>
11    1  0.8039394E-009  0.1374199E+03  0.7561462E-02  0.1110474E+00
         22   -1    0    0    0    0  0.00000000000E+00  0.00000000000E+00  0.24165382649E+03  0.24165382649E+03  0.00000000000E+00 0. -1.
         22   -1    0    0    0    0 -0.00000000000E+00 -0.00000000000E+00 -0.31918327538E+03  0.31918327538E+03  0.00000000000E+00 0.  1.
         24    2    1    2    0    0 -0.22443934762E+02  0.33813705322E+02 -0.15483971785E+03  0.17909347393E+03  0.80324574720E+02 0.  0.
         25    2    1    2    0    0  0.37033363009E+02 -0.85497889624E+02 -0.96145224679E+02  0.18322829919E+03  0.12508935322E+03 0.  0.
        -24    2    1    2    0    0 -0.14589428247E+02  0.51684184302E+02  0.17345549364E+03  0.19851532874E+03  0.80233541291E+02 0.  0.
        -11    1    3    3    0    0  0.12096827901E+02  0.46908241927E+01 -0.12333119236E+03  0.12401177398E+03  0.00000000000E+00 0.  1.
         12    1    3    3    0    0 -0.34540762663E+02  0.29122881129E+02 -0.31508525497E+02  0.55081699952E+02  0.00000000000E+00 0. -1.
         13    1    5    5    0    0 -0.18612463741E+02 -0.14496720966E+02  0.83477063015E+02  0.86746750803E+02  0.00000000000E+00 0. -1.
        -14    1    5    5    0    0  0.40230354943E+01  0.66180905269E+02  0.89978430628E+02  0.11176857794E+03  0.00000000000E+00 0.  1.
          5    1    4    4  501    0  0.77616183045E+02 -0.84689509602E+02 -0.66626425721E+02  0.13286511172E+03  0.41800000000E+01 0.  1.
         -5    1    4    4    0  501 -0.40582820036E+02 -0.80838002199E+00 -0.29518798957E+02  0.50363187471E+02  0.41800000000E+01 0.  1.
</event>
<event>
11    1  0.8039394E-009  0.7887731E+03  0.7561462E-02  0.8910825E-01
         22   -1    0    0    0    0  0.00000000000E+00  0.00000000000E+00  0.35016210883E+03  0.35016210883E+03  0.00000000000E+00 0. -1.
         22   -1    0    0    0    0 -0.00000000000E+00 -0.00000000000E+00 -0.26960436807E+04  0.26960436807E+04  0.00000000000E+00 0. -1.
        -24    2    1    2    0    0 -0.65438212908E+03 -0.25379129242E+03 -0.10859159227E+04  0.12967826500E+04  0.99024538492E+02 0.  0.
         25    2    1    2    0    0  0.76728008047E+03  0.48688190529E+03 -0.11091480835E+04  0.14393158428E+04  0.12509161646E+03 0.  0.
         24    2    1    2    0    0 -0.11289795140E+03 -0.23309061287E+03 -0.15081756566E+03  0.31010729675E+03  0.79645565792E+02 0.  0.
        -13    1    5    5    0    0 -0.68274737702E+02 -0.56094674796E+02 -0.52386864186E+02  0.10272504995E+03  0.00000000000E+00 0.  1.
         14    1    5    5    0    0 -0.44623213696E+02 -0.17699593807E+03 -0.98430701471E+02  0.20738224680E+03  0.00000000000E+00 0. -1.
         11    1    3    3    0    0 -0.59624444788E+03 -0.19805240845E+03 -0.96426145965E+03  0.11508832959E+04  0.00000000000E+00 0. -1.
        -12    1    3    3    0    0 -0.58137681193E+02 -0.55738883964E+02 -0.12165446303E+03  0.14589935413E+03  0.00000000000E+00 0.  1.
          5    1    4    4  501    0  0.59876773018E+02  0.28462958145E+02 -0.13930513979E+03  0.15433328321E+03  0.41800000000E+01 0. -1.
         -5    1    4    4    0  501  0.70740330746E+03  0.45841894714E+03 -0.96984294372E+03  0.12849825596E+04  0.41800000000E+01 0. -1.
</event>
<event>
11    1  0.8039394E-009  0.1505808E+03  0.7561462E-02  0.1096287E+00
         22   -1    0    0    0    0  0.00000000000E+00  0.00000000000E+00  0.17203943431E+04  0.17203943431E+04  0.00000000000E+00 0. -1.
         22   -1    0    0    0    0 -0.00000000000E+00 -0.00000000000E+00 -0.26845462560E+03  0.26845462560E+03  0.00000000000E+00 0. -1.
         24    2    1    2    0    0  0.13828987076E+02  0.78521524812E+02 -0.15015346686E+03  0.18963259885E+03  0.84009453006E+02 0.  0.
         25    2    1    2    0    0 -0.52175005776E+02 -0.88227032129E+02 -0.30132011457E+02  0.16451225117E+03  0.12510036868E+03 0.  0.
        -24    2    1    2    0    0  0.38346018700E+02  0.97055073175E+01  0.16322251958E+04  0.16347041187E+04  0.80832244748E+02 0.  0.
        -13    1    3    3    0    0 -0.33961257203E+02  0.23675607570E+02 -0.39581575897E+02  0.57276544372E+02  0.00000000000E+00 0.  1.
         14    1    3    3    0    0  0.47790244279E+02  0.54845917241E+02 -0.11057189096E+03  0.13235605448E+03  0.00000000000E+00 0. -1.
         13    1    5    5    0    0  0.54940439622E+02  0.17108680443E+02  0.15137739506E+04  0.15148672326E+04  0.00000000000E+00 0. -1.
        -14    1    5    5    0    0 -0.16594420922E+02 -0.74031731258E+01  0.11845124521E+03  0.11983688610E+03  0.00000000000E+00 0.  1.
          5    1    4    4  501    0  0.95736992197E+01 -0.93584668789E+02  0.27879676527E+01  0.94207171239E+02  0.41800000000E+01 0.  1.
         -5    1    4    4    0  501 -0.61748704995E+02  0.53576366601E+01 -0.32919979110E+02  0.70305079929E+02  0.41800000000E+01 0.  1.
</event>
<event>
11    1  0.8039394E-009  0.1623661E+03  0.7561462E-02  0.1084873E+00
         22   -1    0    0    0    0  0.00000000000E+00  0.00000000000E+00  0.59506987544E+03  0.59506987544E+03  0.00000000000E+00 0.  1.
         22   -1    0    0    0    0 -0.00000000000E+00 -0.00000000000E+00 -0.13287609642E+03  0.13287609642E+03  0.00000000000E+00 0. -1.
        -24    2    1    2    0    0  0.57997719289E+01  0.66974019244E+01 -0.55922279876E+02  0.99094270556E+02  0.81325767894E+02 0.  0.
         25    2    1    2    0    0  0.42656242174E+02  0.86509665412E+02  0.91587471028E+02  0.18258993648E+03  0.12508933947E+03 0.  0.
         24    2    1    2    0    0 -0.48456014103E+02 -0.93207067336E+02  0.42652858787E+03  0.44626176482E+03  0.78659924767E+02 0.  0.
        -11    1    5    5    0    0  0.96315712816E+00 -0.76313823817E+02  0.29579165272E+03  0.30547901597E+03  0.00000000000E+00 0.  1.
         12    1    5    5    0    0 -0.49419171231E+02 -0.16893243519E+02  0.13073693515E+03  0.14078274885E+03  0.00000000000E+00 0. -1.
         11    1    3    3    0    0 -0.35876017398E+02 -0.90270304636E+01 -0.21391030823E+02  0.42733500945E+02  0.00000000000E+00 0. -1.
        -12    1    3    3    0    0  0.41675789327E+02  0.15724432388E+02 -0.34531249053E+02  0.56360769611E+02  0.00000000000E+00 0.  1.
          5    1    4    4  501    0  0.93940583772E+01  0.11397368091E+03  0.70321176243E+02  0.13431600240E+03  0.41800000000E+01 0. -1.
         -5    1    4    4    0  501  0.33262183797E+02 -0.27464015496E+02  0.21266294785E+02  0.48273934085E+02  0.41800000000E+01 0. -1.
</event>
<event>
11    1  0.8039394E-009  0.1411537E+03  0.7561462E-02  0.1106277E+00
         22   -1    0    0    0    0  0.00000000000E+00  0.00000000000E+00  0.14838009915E+04  0.14838009915E+04  0.00000000000E+00 0. -1.
         22   -1    0    0    0    0 -0.00000000000E+00 -0.00000000000E+00 -0.31972548230E+03  0.31972548230E+03  0.00000000000E+00 0. -1.
         24    2    1    2    0    0  0.57776379361E+01  0.15868173284E+02 -0.29646405054E+03  0.30773269583E+03  0.80766941237E+02 0.  0.
         25    2    1    2    0    0 -0.43033004528E+02 -0.66955911269E+02  0.34434667122E+03  0.37491065227E+03  0.12509369958E+03 0.  0.
        -24    2    1    2    0    0  0.37255366592E+02  0.51087737985E+02  0.11161928885E+04  0.11208831257E+04  0.80588446971E+02 0.  0.
        -11    1    3    3    0    0  0.15441794161E+02  0.36470089249E+02 -0.72471000742E+02  0.82586696055E+02  0.00000000000E+00 0.  1.
         12    1    3    3    0    0 -0.96641562249E+01 -0.20601915965E+02 -0.22399304980E+03  0.22514599978E+03  0.00000000000E+00 0. -1.
         11    1    5    5    0    0  0.36403925788E+01  0.31568200951E+02  0.93627210732E+03  0.93681122043E+03  0.00000000000E+00 0. -1.
        -12    1    5    5    0    0  0.33614974013E+02  0.19519537035E+02  0.17992078119E+03  0.18407190526E+03  0.00000000000E+00 0.  1.
          5    1    4    4  501    0 -0.67803650915E+02 -0.22855853245E+02  0.87550850331E+02  0.11314746528E+03  0.41800000000E+01 0. -1.
         -5    1    4    4    0  501  0.24770646387E+02 -0.44100058024E+02  0.25679582089E+03  0.26176318699E+03  0.41800000000E+01 0. -1.
</event>
<event>
11    1  0.8039394E-009  0.1499086E+03  0.7561462E-02  0.1096972E+00
         22   -1    0    0    0    0  0.00000000000E+00  0.00000000000E+00  0.76164311658E+03  0.76164311658E+03  0.00000000000E+00 0.  1.
         22   -1    0    0    0    0 -0.00000000000E+00 -0.00000000000E+00 -0.27502953116E+03  0.27502953116E+03  0.00000000000E+00 0. -1.
        -24    2    1    2    0    0  0.58920262008E+02 -0.59368921192E+02 -0.24282600453E+03  0.26958356464E+03  0.81942441808E+02 0.  0.
         25    2    1    2    0    0 -0.23157769357E+02  0.55403028787E+02  0.32974897581E+03  0.35775717124E+03  0.12510007452E+03 0.  0.
         24    2    1    2    0    0 -0.35762492651E+02  0.39658924050E+01  0.39969061415E+03  0.40933191186E+03  0.80655705588E+02 0.  0.
        -11    1    5    5    0    0 -0.56454472281E+02  0.10068813222E+01  0.36069304415E+03  0.36508573425E+03  0.00000000000E+00 0.  1.
         12    1    5    5    0    0  0.20691979630E+02  0.29590110829E+01  0.38997569992E+02  0.44246177607E+02  0.00000000000E+00 0. -1.
         11    1    3    3    0    0  0.15028921576E+02 -0.69187138798E+02 -0.12822935913E+03  0.14647695109E+03  0.00000000000E+00 0. -1.
        -12    1    3    3    0    0  0.43891340432E+02  0.98182176057E+01 -0.11459664541E+03  0.12310661355E+03  0.00000000000E+00 0.  1.
          5    1    4    4  501    0  0.15872565341E+02  0.51099109162E+02  0.44305902543E+02  0.69595565144E+02  0.41800000000E+01 0.  1.
         -5    1    4    4    0  501 -0.39030334698E+02  0.43039196253E+01  0.28544307327E+03  0.28816160610E+03  0.41800000000E+01 0.  1.
</event>
<event>
11    1  0.8039394E-009  0.1425498E+03  0.7561462E-02  0.1104744E+00
         22   -1    0    0    0    0  0.00000000000E+00  0.00000000000E+00  0.81262867081E+03  0.81262867081E+03  0.00000000000E+00 0.  1.
         22   -1    0    0    0    0 -0.00000000000E+00 -0.00000000000E+00 -0.11708904872E+04  0.11708904872E+04  0.00000000000E+00 0. -1.
        -24    2    1    2    0    0 -0.50523366038E+02 -0.50613722806E+00 -0.94208733551E+03  0.94678945360E+03  0.79554101279E+02 0.  0.
         25    2    1    2    0    0  0.66614782111E+01 -0.52575491724E+02 -0.20226764229E+03  0.24365595357E+03  0.12508983561E+03 0.  0.
         24    2    1    2    0    0  0.43861887827E+02  0.53081628952E+02  0.78609316141E+03  0.79307375083E+03  0.79259013953E+02 0.  0.
        -13    1    5    5    0    0  0.12823320313E+02 -0.16126084280E+02  0.33626860605E+03  0.33689918900E+03  0.00000000000E+00 0.  1.
         14    1    5    5    0    0  0.31038567514E+02  0.69207713232E+02  0.44982455537E+03  0.45617456182E+03  0.00000000000E+00 0. -1.
         11    1    3    3    0    0 -0.15892310499E+02  0.25039300159E+02 -0.12122819813E+03  0.12480307732E+03  0.00000000000E+00 0. -1.
        -12    1    3    3    0    0 -0.34631055539E+02 -0.25545437387E+02 -0.82085913737E+03  0.82198637628E+03  0.00000000000E+00 0.  1.
          5    1    4    4  501    0 -0.54230028284E+02 -0.79147781380E+00 -0.99454624511E+02  0.11335879825E+03  0.41800000000E+01 0.  1.
         -5    1    4    4    0  501  0.60891506496E+02 -0.51784013910E+02 -0.10281301778E+03  0.13029715532E+03  0.41800000000E+01 0.  1.
</event>
<event>
11    1  0.8039394E-009  0.1311255E+03  0.7561462E-02  0.1117894E+00
         22   -1    0    0    0    0  0.00000000000E+00  0.00000000000E+00  0.58023274551E+02  0.58023274551E+02  0.00000000000E+00 0.  1.
         22   -1    0    0    0    0 -0.00000000000E+00 -0.00000000000E+00 -0.10985101034E+04  0.10985101034E+04  0.00000000000E+00 0. -1.
        -24    2    1    2    0    0 -0.39663604105E+02 -0.12810751169E+02 -0.51991637633E+03  0.52770842909E+03  0.80161280681E+02 0.  0.
         25    2    1    2    0    0  0.13977934721E+02 -0.20633810546E+02 -0.51896675336E+03  0.53440893034E+03  0.12508108144E+03 0.  0.
         24    2    1    2    0    0  0.25685669384E+02  0.33444561715E+02 -0.16036991967E+01  0.94416018562E+02  0.84460170436E+02 0.  0.
        -11    1    5    5    0    0  0.15085614879E+02  0.31259250950E+02  0.39108666577E+02  0.52289619885E+02  0.00000000000E+00 0.  1.
         12    1    5    5    0    0  0.10600054505E+02  0.21853107652E+01 -0.40712365774E+02  0.42126398678E+02  0.00000000000E+00 0. -1.
         11    1    3    3    0    0 -0.44971374316E+02  0.42817296180E+01 -0.49485314411E+03  0.49691084909E+03  0.00000000000E+00 0. -1.
        -12    1    3    3    0    0  0.53077702110E+01 -0.17092480787E+02 -0.25063232225E+02  0.30797579997E+02  0.00000000000E+00 0.  1.
          5    1    4    4  501    0  0.37453691459E+02 -0.19159997171E+02 -0.52844976866E+02  0.67675316589E+02  0.41800000000E+01 0. -1.
         -5    1    4    4    0  501 -0.23475756737E+02 -0.14738133750E+01 -0.46612177649E+03  0.46673361375E+03  0.41800000000E+01 0. -1.
</event>
<event>
11    1  0.8039394E-009  0.1992895E+03  0.7561462E-02  0.1055027E+00
         22   -1    0    0    0    0  0.00000000000E+00  0.00000000000E+00  0.13516710141E+04  0.13516710141E+04  0.00000000000E+00 0.  1.
         22   -1    0    0    0    0 -0.00000000000E+00 -0.00000000000E+00 -0.46565968555E+03  0.46565968555E+03  0.00000000000E+00 0.  1.
        -24    2    1    2    0    0 -0.13009595106E+02  0.12518343548E+02 -0.43293569846E+03  0.44049035021E+03  0.79198933932E+02 0.  0.
         25    2    1    2    0    0  0.56543240981E+02  0.13903625224E+03  0.45799972333E+03  0.49793432162E+03  0.12508646825E+03 0.  0.
         24    2    1    2    0    0 -0.43533645875E+02 -0.15155459579E+03  0.86094730369E+03  0.87890602783E+03  0.79884743244E+02 0.  0.
        -13    1    5    5    0    0 -0.40782023803E+02 -0.41983872316E+02  0.44199935945E+03  0.44585788403E+03  0.00000000000E+00 0.  1.
         14    1    5    5    0    0 -0.27516220719E+01 -0.10957072347E+03  0.41894794424E+03  0.43304814380E+03  0.00000000000E+00 0. -1.
         11    1    3    3    0    0  0.18065394951E+02  0.84996362892E+01 -0.28246814275E+02  0.34590241810E+02  0.00000000000E+00 0. -1.
        -12    1    3    3    0    0 -0.31074990058E+02  0.40187072588E+01 -0.40468888419E+03  0.40590010840E+03  0.00000000000E+00 0.  1.
          5    1    4    4  501    0 -0.28081153902E+02  0.34804426761E+02  0.44754017172E+02  0.63405786642E+02  0.41800000000E+01 0.  1.
         -5    1    4    4    0  501  0.84624394883E+02  0.10423182548E+03  0.41324570616E+03  0.43452853498E+03  0.41800000000E+01 0.  1.
</event>
<event>
11    1  0.8740515E-009  0.1471719E+03  0.7561462E-02  0.1099804E+00
         22   -1    0    0    0    0  0.00000000000E+00  0.00000000000E+00  0.11357691669E+04  0.11357691669E+04  0.00000000000E+00 0.  1.
         22   -1    0    0    0    0 -0.00000000000E+00 -0.00000000000E+00 -0.42795102413E+03  0.42795102413E+03  0.00000000000E+00 0.  1.
        -24    2    1    2    0    0 -0.74900302460E+02 -0.68022679321E+01 -0.33054153775E+03  0.34824827809E+03  0.79767342047E+02 0.  0.
         25    2    1    2    0    0 -0.53216441646E+01 -0.20750078608E+01 -0.38588407390E+02  0.13103452209E+03  0.12509338608E+03 0.  0.
         24    2    1    2    0    0  0.80221946625E+02  0.88772757929E+01  0.10769480879E+04  0.10844373908E+04  0.98350921877E+02 0.  0.
        -13    1    5    5    0    0  0.87597635445E+02  0.55812364894E+01  0.51466787950E+03  0.52209914970E+03  0.00000000000E+00 0.  1.
         14    1    5    5    0    0 -0.73756888203E+01  0.32960393035E+01  0.56228020839E+03  0.56233824110E+03  0.00000000000E+00 0. -1.
         13    1    3    3    0    0 -0.51024091349E+02 -0.23502866220E+02 -0.91014308777E+02  0.10695535059E+03  0.00000000000E+00 0. -1.
        -14    1    3    3    0    0 -0.23876211111E+02  0.16700598288E+02 -0.23952722898E+03  0.24129292750E+03  0.00000000000E+00 0.  1.
          5    1    4    4  501    0  0.43601200481E+02 -0.42935063426E+02 -0.18056394190E+02  0.63937392235E+02  0.41800000000E+01 0. -1.
         -5    1    4    4    0  501 -0.48922844645E+02  0.40860055565E+02 -0.20532013200E+02  0.67097129857E+02  0.41800000000E+01 0. -1.
</event>
<event>
11    1  0.8039394E-009  0.1504267E+03  0.7561462E-02  0.1096444E+00
         22   -1    0    0    0    0  0.00000000000E+00  0.00000000000E+00  0.78119415453E+03  0.78119415453E+03  0.00000000000E+00 0.  1.
         22   -1    0    0    0    0 -0.00000000000E+00 -0.00000000000E+00 -0.16202743001E+04  0.16202743001E+04  0.00000000000E+00 0. -1.
         24    2    1    2    0    0  0.26083946478E+02 -0.67848328137E+02 -0.15610388761E+04  0.15648127970E+04  0.80702844387E+02 0.  0.
         25    2    1    2    0    0 -0.24941842971E+02 -0.21914684190E+02  0.28312091149E+02  0.13248426463E+03  0.12509259352E+03 0.  0.
        -24    2    1    2    0    0 -0.11421035069E+01  0.89763012327E+02  0.69364663944E+03  0.70417139293E+03  0.81565847250E+02 0.  0.
        -11    1    3    3    0    0  0.27304996612E+02  0.11124345154E+01 -0.18098939683E+03  0.18304087554E+03  0.00000000000E+00 0.  1.
         12    1    3    3    0    0 -0.12210501344E+01 -0.68960762652E+02 -0.13800494793E+04  0.13817719215E+04  0.00000000000E+00 0. -1.
         13    1    5    5    0    0 -0.19694571616E+01  0.14809487267E+02  0.42502152897E+03  0.42528402246E+03  0.00000000000E+00 0. -1.
        -14    1    5    5    0    0  0.82735365475E+00  0.74953525060E+02  0.26862511047E+03  0.27888737047E+03  0.00000000000E+00 0.  1.
          5    1    4    4  501    0 -0.24512290535E+01 -0.68421879367E+02 -0.82061223358E+01  0.69082377954E+02  0.41800000000E+01 0. -1.
         -5    1    4    4    0  501 -0.22490613918E+02  0.46507195177E+02  0.36518213485E+02  0.63401886673E+02  0.41800000000E+01 0. -1.
</event>
<event>
11    1  0.8039394E-009  0.2510724E+03  0.7561462E-02  0.1023329E+00
         22   -1    0    0    0    0  0.00000000000E+00  0.00000000000E+00  0.87225416650E+03  0.87225416650E+03  0.00000000000E+00 0.  1.
         22   -1    0    0    0    0 -0.00000000000E+00 -0.00000000000E+00 -0.24045673740E+04  0.24045673740E+04  0.00000000000E+00 0.  1.
         24    2    1    2    0    0  0.59447733913E+02 -0.76590402666E+02 -0.22490015996E+04  0.22526287821E+04  0.83235279747E+02 0.  0.
         25    2    1    2    0    0 -0.26224248327E+03  0.12499048089E+03  0.49572057215E+02  0.32015552567E+03  0.12509369053E+03 0.  0.
        -24    2    1    2    0    0  0.20279474936E+03 -0.48400078225E+02  0.66711633494E+03  0.70403723275E+03  0.84592805937E+02 0.  0.
        -11    1    3    3    0    0  0.78020542523E+02 -0.75743080068E+02 -0.19819919148E+04  0.19849725866E+04  0.00000000000E+00 0.  1.
         12    1    3    3    0    0 -0.18572808610E+02 -0.84732259834E+00 -0.26700968485E+03  0.26765619548E+03  0.00000000000E+00 0. -1.
         11    1    5    5    0    0  0.11314499011E+03 -0.32822228423E+01  0.24095929612E+03  0.26622160724E+03  0.00000000000E+00 0. -1.
        -12    1    5    5    0    0  0.89649759251E+02 -0.45117855383E+02  0.42615703882E+03  0.43781562551E+03  0.00000000000E+00 0.  1.
          5    1    4    4  501    0 -0.49259139076E+02  0.56785415648E+02  0.59944195607E+02  0.96238376960E+02  0.41800000000E+01 0.  1.
         -5    1    4    4    0  501 -0.21298334420E+03  0.68205065243E+02 -0.10372138392E+02  0.22391714871E+03  0.41800000000E+01 0.  1.
</event>
<event>
11    1  0.8039394E-009  0.2347455E+03  0.7561462E-02  0.1032355E+00
         22   -1    0    0    0    0  0.00000000000E+00  0.00000000000E+00  0.31425960248E+03  0.31425960248E+03  0.00000000000E+00 0.  1.
         22   -1    0    0    0    0 -0.00000000000E+00 -0.00000000000E+00 -0.38372310453E+03  0.38372310453E+03  0.00000000000E+00 0.  1.
         24    2    1    2    0    0  0.72403343119E+02  0.17694602110E+03 -0.22219030644E+03  0.30402260680E+03  0.80678836701E+02 0.  0.
         25    2    1    2    0    0 -0.76728968622E+02 -0.21624736182E+03  0.66575189414E+02  0.26968697429E+03  0.12509417307E+03 0.  0.
        -24    2    1    2    0    0  0.43256255039E+01  0.39301340722E+02  0.86151614982E+02  0.12427312592E+03  0.80364187562E+02 0.  0.
        -11    1    3    3    0    0  0.36311440627E+02  0.12970413557E+03 -0.98752582972E+02  0.16701423936E+03  0.00000000000E+00 0.  1.
         12    1    3    3    0    0  0.36091902491E+02  0.47241885528E+02 -0.12343772347E+03  0.13700836744E+03  0.00000000000E+00 0. -1.
         13    1    5    5    0    0 -0.30680641732E+02  0.38677947458E+02  0.70143442756E+02  0.85775217623E+02  0.00000000000E+00 0. -1.
        -14    1    5    5    0    0  0.35006267236E+02  0.62339326363E+00  0.16008172226E+02  0.38497908293E+02  0.00000000000E+00 0.  1.
          5    1    4    4  501    0 -0.10231899683E+03 -0.20340702260E+03  0.41672168069E+02  0.23151163242E+03  0.41800000000E+01 0. -1.
         -5    1    4    4    0  501  0.25590028203E+02 -0.12840339220E+02  0.24903021345E+02  0.38175341870E+02  0.41800000000E+01 0.  1.
</event>
<event>
11    1  0.8039394E-009  0.1386114E+03  0.7561462E-02  0.1109119E+00
         22   -1    0    0    0    0  0.00000000000E+00  0.00000000000E+00  0.81039015280E+03  0.81039015280E+03  0.00000000000E+00 0. -1.
         22   -1    0    0    0    0 -0.00000000000E+00 -0.00000000000E+00 -0.78735406838E+03  0.78735406838E+03  0.00000000000E+00 0.  1.
        -24    2    1    2    0    0 -0.29750328999E+02  0.14166039030E+02 -0.62673450017E+03  0.63234244674E+03  0.77298625573E+02 0.  0.
         25    2    1    2    0    0 -0.28442154676E+02 -0.30014928997E+02 -0.12595062765E+03  0.18226137630E+03  0.12508315857E+03 0.  0.
         24    2    1    2    0    0  0.58192483676E+02  0.15848889967E+02  0.77572121224E+03  0.78314039814E+03  0.89038933119E+02 0.  0.
        -13    1    5    5    0    0 -0.17672005551E+02 -0.47309916109E+01  0.51252134856E+02  0.54419329186E+02  0.00000000000E+00 0.  1.
         14    1    5    5    0    0  0.75864489227E+02  0.20579881578E+02  0.72446907739E+03  0.72872106896E+03  0.00000000000E+00 0. -1.
         13    1    3    3    0    0  0.76843570589E+01 -0.75495570964E+01 -0.12157009112E+02  0.16243091649E+02  0.00000000000E+00 0. -1.
        -14    1    3    3    0    0 -0.37434686058E+02  0.21715596127E+02 -0.61457749106E+03  0.61609935510E+03  0.00000000000E+00 0.  1.
          5    1    4    4  501    0 -0.54559059100E+02  0.89611691525E+01 -0.12317124518E+03  0.13507635441E+03  0.41800000000E+01 0. -1.
         -5    1    4    4    0  501  0.26116904423E+02 -0.38976098150E+02 -0.27793824747E+01  0.47185021888E+02  0.41800000000E+01 0. -1.
</event>
<event>
11    1  0.8039394E-009  0.1356465E+03  0.7561462E-02  0.1112520E+00
         22   -1    0    0    0    0  0.00000000000E+00  0.00000000000E+00  0.25153007510E+03  0.25153007510E+03  0.00000000000E+00 0. -1.
         22   -1    0    0    0    0 -0.00000000000E+00 -0.00000000000E+00 -0.38497981906E+04  0.38497981906E+04  0.00000000000E+00 0.  1.
        -24    2    1    2    0    0 -0.47717636933E+02  0.25632984321E+02 -0.30559019602E+04  0.30573811930E+04  0.78159747117E+02 0.  0.
         25    2    1    2    0    0  0.97786297897E+02 -0.39111622878E+02 -0.77525162791E+03  0.79230886461E+03  0.12508545582E+03 0.  0.
         24    2    1    2    0    0 -0.50068660964E+02  0.13478638557E+02  0.23288547267E+03  0.25163820805E+03  0.79984997732E+02 0.  0.
        -13    1    5    5    0    0 -0.66414733699E+02  0.29000921277E+02  0.16861497756E+03  0.18352923730E+03  0.00000000000E+00 0.  1.
         14    1    5    5    0    0  0.16346072735E+02 -0.15522282720E+02  0.64270495105E+02  0.68108970744E+02  0.00000000000E+00 0. -1.
         11    1    3    3    0    0 -0.69078417369E+01  0.31639173936E+02 -0.45452927576E+03  0.45568148758E+03  0.00000000000E+00 0. -1.
        -12    1    3    3    0    0 -0.40809795196E+02 -0.60061896150E+01 -0.26013726845E+04  0.26016997054E+04  0.00000000000E+00 0.  1.
          5    1    4    4  501    0  0.11045144682E+03 -0.20940638282E+02 -0.37716791573E+03  0.39358752710E+03  0.41800000000E+01 0. -1.
         -5    1    4    4    0  501 -0.12665148919E+02 -0.18170984595E+02 -0.39808371218E+03  0.39872133751E+03  0.41800000000E+01 0. -1.
</event>
<event>
11    1  0.8039394E-009  0.2368746E+03  0.7561462E-02  0.1031133E+00
         22   -1    0    0    0    0  0.00000000000E+00  0.00000000000E+00  0.85788696990E+03  0.85788696990E+03  0.00000000000E+00 0.  1.
         22   -1    0    0    0    0 -0.00000000000E+00 -0.00000000000E+00 -0.93521806149E+03  0.93521806149E+03  0.00000000000E+00 0.  1.
        -24    2    1    2    0    0 -0.20814788036E+03  0.60149225479E+02 -0.58634564211E+03  0.63102650077E+03  0.86312010916E+02 0.  0.
         25    2    1    2    0    0  0.15655170442E+03 -0.85724666737E+02 -0.28624179606E+03  0.35977679376E+03  0.12509125017E+03 0.  0.
         24    2    1    2    0    0  0.51596175933E+02  0.25575441258E+02  0.79525634659E+03  0.80230173686E+03  0.89101916935E+02 0.  0.
        -13    1    5    5    0    0  0.35464492314E+02 -0.10633436996E+02  0.66775299517E+03  0.66877863510E+03  0.00000000000E+00 0.  1.
         14    1    5    5    0    0  0.16131683619E+02  0.36208878254E+02  0.12750335142E+03  0.13352310176E+03  0.00000000000E+00 0. -1.
         11    1    3    3    0    0 -0.14789927213E+03  0.17586724127E+02 -0.29473535184E+03  0.33023085135E+03  0.00000000000E+00 0. -1.
        -12    1    3    3    0    0 -0.60248608226E+02  0.42562501353E+02 -0.29161029028E+03  0.30079564942E+03  0.00000000000E+00 0.  1.
          5    1    4    4  501    0 -0.90500822497E+00  0.98594973641E+01  0.74495610385E+01  0.13076585480E+02  0.41800000000E+01 0. -1.
         -5    1    4    4    0  501  0.15745671265E+03 -0.95584164101E+02 -0.29369135710E+03  0.34670020828E+03  0.41800000000E+01 0. -1.
</event>
<event>
11    1  0.8039394E-009  0.1593551E+03  0.7561462E-02  0.1087685E+00
         22   -1    0    0    0    0  0.00000000000E+00  0.00000000000E+00  0.10034258346E+04  0.10034258346E+04  0.00000000000E+00 0. -1.
         22   -1    0    0    0    0 -0.00000000000E+00 -0.00000000000E+00 -0.13895257935E+04  0.13895257935E+04  0.00000000000E+00 0.  1.
         24    2    1    2    0    0  0.82136083209E+02 -0.55478176197E+02 -0.13155718565E+04  0.13217286809E+04  0.80082657410E+02 0.  0.
         25    2    1    2    0    0 -0.18983588591E+02  0.12053820390E+03  0.47280261677E+02  0.18103129828E+03  0.12508825915E+03 0.  0.
        -24    2    1    2    0    0 -0.63152494618E+02 -0.65060027701E+02  0.88219163595E+03  0.89019164900E+03  0.77188371097E+02 0.  0.
        -11    1    3    3    0    0  0.67779938276E+02 -0.30269366261E+02 -0.12090662198E+04  0.12113428410E+04  0.00000000000E+00 0.  1.
         12    1    3    3    0    0  0.14356144933E+02 -0.25208809935E+02 -0.10650563666E+03  0.11038583983E+03  0.00000000000E+00 0. -1.
         11    1    5    5    0    0 -0.73564368242E+02 -0.73526006239E+02  0.81991783677E+03  0.82648838402E+03  0.00000000000E+00 0. -1.
        -12    1    5    5    0    0  0.10411873624E+02  0.84659785379E+01  0.62273799184E+02  0.63703264985E+02  0.00000000000E+00 0.  1.
          5    1    4    4  501    0  0.17611222899E+02 -0.64600858515E+01 -0.24051320779E+02  0.30786787952E+02  0.41800000000E+01 0. -1.
         -5    1    4    4    0  501 -0.36594811490E+02  0.12699828975E+03  0.71331582455E+02  0.15024451033E+03  0.41800000000E+01 0. -1.
</event>
<event>
11    1  0.8039394E-009  0.2356555E+03  0.7561462E-02  0.1031831E+00
         22   -1    0    0    0    0  0.00000000000E+00  0.00000000000E+00  0.70532509122E+03  0.70532509122E+03  0.00000000000E+00 0. -1.
         22   -1    0    0    0    0 -0.00000000000E+00 -0.00000000000E+00 -0.31305981907E+03  0.31305981907E+03  0.00000000000E+00 0. -1.
        -24    2    1    2    0    0  0.17901727097E+02  0.15419354768E+02 -0.69593761454E+02  0.10849635909E+03  0.79811903678E+02 0.  0.
         25    2    1    2    0    0  0.18237895754E+03  0.51174291417E+01 -0.14568872422E+03  0.26488014524E+03  0.12509202510E+03 0.  0.
         24    2    1    2    0    0 -0.20028068464E+03 -0.20536783910E+02  0.60754775782E+03  0.64500840595E+03  0.79921546340E+02 0.  0.
        -11    1    5    5    0    0 -0.10991656792E+03  0.13653116472E+02  0.22979176167E+03  0.25509275416E+03  0.00000000000E+00 0.  1.
         12    1    5    5    0    0 -0.90364116725E+02 -0.34189900381E+02  0.37775599615E+03  0.38991565179E+03  0.00000000000E+00 0. -1.
         13    1    3    3    0    0 -0.29912392905E+02 -0.42060737885E+01 -0.16582745096E+02  0.34459102439E+02  0.00000000000E+00 0. -1.
        -14    1    3    3    0    0  0.47814120002E+02  0.19625428556E+02 -0.53011016359E+02  0.74037256655E+02  0.00000000000E+00 0.  1.
          5    1    4    4  501    0 -0.30393315524E+01 -0.15857589239E+02  0.11992774182E+02  0.20542631413E+02  0.41800000000E+01 0. -1.
         -5    1    4    4    0  501  0.18541828910E+03  0.20975018381E+02 -0.15768149840E+03  0.24433751383E+03  0.41800000000E+01 0. -1.
</event>
<event>
11    1  0.8039394E-009  0.1318076E+03  0.7561462E-02  0.1117068E+00
         22   -1    0    0    0    0  0.00000000000E+00  0.00000000000E+00  0.10336470210E+03  0.10336470210E+03  0.00000000000E+00 0. -1.
         22   -1    0    0    0    0 -0.00000000000E+00 -0.00000000000E+00 -0.46006018956E+03  0.46006018956E+03  0.00000000000E+00 0. -1.
        -24    2    1    2    0    0  0.11927131558E+02  0.42369495828E+02 -0.29040241826E+03  0.30468740340E+03  0.81014928339E+02 0.  0.
         25    2    1    2    0    0 -0.35999121488E+02 -0.19112138550E+02 -0.99721402309E+02  0.16509330929E+03  0.12510088772E+03 0.  0.
         24    2    1    2    0    0  0.24071989930E+02 -0.23257357279E+02  0.33428333103E+02  0.93644178967E+02  0.80817160514E+02 0.  0.
        -11    1    5    5    0    0  0.31935558383E+02 -0.48466444714E+02  0.11168566754E+02  0.59106793482E+02  0.00000000000E+00 0.  1.
         12    1    5    5    0    0 -0.78635684529E+01  0.25209087435E+02  0.22259766350E+02  0.34537385484E+02  0.00000000000E+00 0. -1.
         11    1    3    3    0    0  0.23167102889E+02  0.34572894984E+02 -0.28776165180E+03  0.29075551237E+03  0.00000000000E+00 0. -1.
        -12    1    3    3    0    0 -0.11239971331E+02  0.77966008442E+01 -0.26407664597E+01  0.13931891032E+02  0.00000000000E+00 0.  1.
          5    1    4    4  501    0 -0.65133173874E+02 -0.13572986900E+02 -0.11388693629E+03  0.13196311216E+03  0.41800000000E+01 0. -1.
         -5    1    4    4    0  501  0.29134052386E+02 -0.55391516496E+01  0.14165533981E+02  0.33130197138E+02  0.41800000000E+01 0. -1.
</event>
<event>
11    1  0.8039394E-009  0.1498208E+03  0.7561462E-02  0.1097062E+00
         22   -1    0    0    0    0  0.00000000000E+00  0.00000000000E+00  0.17257267968E+03  0.17257267968E+03  0.00000000000E+00 0. -1.
         22   -1    0    0    0    0 -0.00000000000E+00 -0.00000000000E+00 -0.49759702451E+03  0.49759702451E+03  0.00000000000E+00 0.  1.
         24    2    1    2    0    0 -0.39188876236E+02 -0.12390057082E+01 -0.33802618365E+03  0.34987471852E+03  0.81322288884E+02 0.  0.
         25    2    1    2    0    0  0.30629387848E+02 -0.81418239080E+02 -0.80342966693E+02  0.17224992987E+03  0.12509179425E+03 0.  0.
        -24    2    1    2    0    0  0.85594883879E+01  0.82657244788E+02  0.93344805518E+02  0.14804505580E+03  0.79363725161E+02 0.  0.
        -11    1    3    3    0    0 -0.32479659578E+02  0.11912449748E+02 -0.33220995485E+03  0.33400642037E+03  0.00000000000E+00 0.  1.
         12    1    3    3    0    0 -0.67092166588E+01 -0.13151455456E+02 -0.58162288020E+01  0.15868298152E+02  0.00000000000E+00 0. -1.
         11    1    5    5    0    0 -0.16601562936E+02  0.86912266332E+02  0.79809982008E+02  0.11915950302E+03  0.00000000000E+00 0. -1.
        -12    1    5    5    0    0  0.25161051324E+02 -0.42550215432E+01  0.13534823509E+02  0.28885552781E+02  0.00000000000E+00 0.  1.
          5    1    4    4  501    0 -0.23673698910E+02  0.99293988965E+01 -0.58016379921E+02  0.63579947481E+02  0.41800000000E+01 0. -1.
         -5    1    4    4    0  501  0.54303086759E+02 -0.91347637977E+02 -0.22326586772E+02  0.10866998239E+03  0.41800000000E+01 0. -1.
</event>
<event>
11    1  0.8039394E-009  0.3124699E+03  0.7561462E-02  0.9950476E-01
         22   -1    0    0    0    0  0.00000000000E+00  0.00000000000E+00  0.69050430179E+03  0.69050430179E+03  0.00000000000E+00 0.  1.
         22   -1    0    0    0    0 -0.00000000000E+00 -0.00000000000E+00 -0.16575918508E+04  0.16575918508E+04  0.00000000000E+00 0. -1.
         24    2    1    2    0    0  0.79970698339E+02  0.27600242434E+03 -0.15503832645E+04  0.15791612412E+04  0.86540787248E+02 0.  0.
         25    2    1    2    0    0 -0.10223760062E+03 -0.25001915930E+03  0.16227644966E+03  0.33903160313E+03  0.12508666919E+03 0.  0.
        -24    2    1    2    0    0  0.22266902281E+02 -0.25983265042E+02  0.42101926589E+03  0.42990330826E+03  0.79929263741E+02 0.  0.
        -13    1    3    3    0    0 -0.14239407189E+02  0.90531591417E+02 -0.43595147725E+03  0.44547998864E+03  0.00000000000E+00 0.  1.
         14    1    3    3    0    0  0.94210105529E+02  0.18547083292E+03 -0.11144317873E+04  0.11336812525E+04  0.00000000000E+00 0. -1.
         11    1    5    5    0    0 -0.20323202529E+02 -0.15824396492E+02  0.49383804441E+02  0.55697434648E+02  0.00000000000E+00 0. -1.
        -12    1    5    5    0    0  0.42590104811E+02 -0.10158868550E+02  0.37163546145E+03  0.37420587361E+03  0.00000000000E+00 0.  1.
          5    1    4    4  501    0 -0.86588767848E+02 -0.21923794979E+03  0.78762260831E+02  0.24856359242E+03  0.41800000000E+01 0. -1.
         -5    1    4    4    0  501 -0.15648832773E+02 -0.30781209507E+02  0.83514188830E+02  0.90468010710E+02  0.41800000000E+01 0. -1.
</event>
<event>
11    1  0.8039394E-009  0.1312243E+03  0.7561462E-02  0.1117774E+00
         22   -1    0    0    0    0  0.00000000000E+00  0.00000000000E+00  0.17588239369E+03  0.17588239369E+03  0.00000000000E+00 0.  1.
         22   -1    0    0    0    0 -0.00000000000E+00 -0.00000000000E+00 -0.23567967369E+04  0.23567967369E+04  0.00000000000E+00 0.  1.
        -24    2    1    2    0    0 -0.41083931790E+01  0.37882727955E+02 -0.21712665302E+04  0.21730357232E+04  0.78955235740E+02 0.  0.
         25    2    1    2    0    0  0.23414678745E+01  0.44894461988E+01 -0.14837968188E+03  0.19413816191E+03  0.12508980101E+03 0.  0.
         24    2    1    2    0    0  0.17669253044E+01 -0.42372174153E+02  0.13873186891E+03  0.16550524542E+03  0.79667632352E+02 0.  0.
        -13    1    5    5    0    0  0.13128825461E+02 -0.57963261790E+02  0.13252235335E+03  0.14523869978E+03  0.00000000000E+00 0.  1.
         14    1    5    5    0    0 -0.11361900157E+02  0.15591087637E+02  0.62095155524E+01  0.20266545642E+02  0.00000000000E+00 0. -1.
         13    1    3    3    0    0  0.12978309893E+02 -0.11948835830E+02 -0.14284017216E+03  0.14392541814E+03  0.00000000000E+00 0. -1.
        -14    1    3    3    0    0 -0.17086703072E+02  0.49831563785E+02 -0.20284263580E+04  0.20291103051E+04  0.00000000000E+00 0.  1.
          5    1    4    4  501    0 -0.30124750802E+02 -0.88003548420E+01  0.89411063303E+01  0.32899280214E+02  0.41800000000E+01 0. -1.
         -5    1    4    4    0  501  0.32466218676E+02  0.13289801041E+02 -0.15732078821E+03  0.16123888170E+03  0.41800000000E+01 0. -1.
</event>
<event>
11    1  0.8039394E-009  0.1896004E+03  0.7561462E-02  0.1062131E+00
         22   -1    0    0    0    0  0.00000000000E+00  0.00000000000E+00  0.62457131720E+03  0.62457131720E+03  0.00000000000E+00 0. -1.
         22   -1    0    0    0    0 -0.00000000000E+00 -0.00000000000E+00 -0.15548484756E+03  0.15548484756E+03  0.00000000000E+00 0. -1.
         24    2    1    2    0    0 -0.91606060665E+02 -0.11985104312E+03 -0.60500348069E+02  0.18222538425E+03  0.82400580461E+02 0.  0.
         25    2    1    2    0    0  0.74749723757E+02  0.78455902452E+02  0.22486845474E+03  0.27920636905E+03  0.12509006656E+03 0.  0.
        -24    2    1    2    0    0  0.16856336908E+02  0.41395140668E+02  0.30471836297E+03  0.31862441146E+03  0.81673380486E+02 0.  0.
        -11    1    3    3    0    0 -0.60899913974E+02 -0.20567313819E+02 -0.41684585903E+02  0.76612131035E+02  0.00000000000E+00 0.  1.
         12    1    3    3    0    0 -0.30706146691E+02 -0.99283729300E+02 -0.18815762166E+02  0.10561325321E+03  0.00000000000E+00 0. -1.
         13    1    5    5    0    0 -0.25531578496E+02  0.61696427775E+01  0.37515349953E+02  0.45796588023E+02  0.00000000000E+00 0. -1.
        -14    1    5    5    0    0  0.42387915404E+02  0.35225497890E+02  0.26720301302E+03  0.27282782343E+03  0.00000000000E+00 0.  1.
          5    1    4    4  501    0  0.45719863199E+02 -0.92230457738E+01  0.15882954361E+03  0.16558884862E+03  0.41800000000E+01 0. -1.
         -5    1    4    4    0  501  0.29029860558E+02  0.87678948225E+02  0.66038911129E+02  0.11361752043E+03  0.41800000000E+01 0. -1.
</event>
<event>
11    1  0.8039394E-009  0.1651076E+03  0.7561462E-02  0.1082369E+00
         22   -1    0    0    0    0  0.00000000000E+00  0.00000000000E+00  0.59437496408E+03  0.59437496408E+03  0.00000000000E+00 0. -1.
         22   -1    0    0    0    0 -0.00000000000E+00 -0.00000000000E+00 -0.15444395738E+04  0.15444395738E+04  0.00000000000E+00 0.  1.
        -24    2    1    2    0    0 -0.94135195630E+02 -0.48890352260E+02 -0.13539081694E+04  0.13602364245E+04  0.76968161070E+02 0.  0.
         25    2    1    2    0    0  0.12872394155E+03  0.38205999452E+02 -0.13807980428E+03  0.22966401955E+03  0.12509987211E+03 0.  0.
         24    2    1    2    0    0 -0.34588745921E+02  0.10684352808E+02  0.54192336398E+03  0.54891409380E+03  0.79468315763E+02 0.  0.
        -11    1    5    5    0    0  0.24087988774E+02  0.12733740341E+02  0.12974130391E+03  0.13257143465E+03  0.00000000000E+00 0.  1.
         12    1    5    5    0    0 -0.58676734695E+02 -0.20493875328E+01  0.41218206007E+03  0.41634265915E+03  0.00000000000E+00 0. -1.
         13    1    3    3    0    0  0.75143109625E+01  0.10802051860E+02 -0.12943881129E+03  0.13010593785E+03  0.00000000000E+00 0. -1.
        -14    1    3    3    0    0 -0.10164950659E+03 -0.59692404120E+02 -0.12244693581E+04  0.12301304866E+04  0.00000000000E+00 0.  1.
          5    1    4    4  501    0  0.36298279352E+02 -0.44571892948E+02 -0.58958516053E+02  0.82448758268E+02  0.41800000000E+01 0. -1.
         -5    1    4    4    0  501  0.92425662199E+02  0.82777892400E+02 -0.79121288232E+02  0.14721526128E+03  0.41800000000E+01 0. -1.
</event>
<event>
11    1  0.8039394E-009  0.1739460E+03  0.7561462E-02  0.1074648E+00
         22   -1    0    0    0    0  0.00000000000E+00  0.00000000000E+00  0.82617266988E+03  0.82617266988E+03  0.00000000000E+00 0. -1.
         22   -1    0    0    0    0 -0.00000000000E+00 -0.00000000000E+00 -0.19517940760E+03  0.19517940760E+03  0.00000000000E+00 0. -1.
        -24    2    1    2    0    0 -0.57566941038E+02 -0.51949693010E+02 -0.13322752955E+03  0.17407015047E+03  0.80858638074E+02 0.  0.
         25    2    1    2    0    0 -0.76203994741E+02  0.54018909617E+02  0.16130274109E+03  0.22448265255E+03  0.12509514619E+03 0.  0.
         24    2    1    2    0    0  0.13377093578E+03 -0.20692166067E+01  0.60291805074E+03  0.62279927447E+03  0.80435163053E+02 0.  0.
        -13    1    5    5    0    0  0.38949618070E+01 -0.18578829165E+02  0.33311391569E+02  0.38340480290E+02  0.00000000000E+00 0.  1.
         14    1    5    5    0    0  0.12987597397E+03  0.16509612558E+02  0.56960665917E+03  0.58445879418E+03  0.00000000000E+00 0. -1.
         13    1    3    3    0    0 -0.44973346558E+02 -0.72204064770E+01 -0.11580867880E+03  0.12444430985E+03  0.00000000000E+00 0. -1.
        -14    1    3    3    0    0 -0.12593594479E+02 -0.44729286533E+02 -0.17418850757E+02  0.49625840621E+02  0.00000000000E+00 0.  1.
          5    1    4    4  501    0 -0.10237487273E+03  0.79252380597E+01  0.11142867047E+03  0.15158246919E+03  0.41800000000E+01 0. -1.
         -5    1    4    4    0  501  0.26170877987E+02  0.46093671557E+02  0.49874070624E+02  0.72900183352E+02  0.41800000000E+01 0. -1.
</event>
<event>
11    1  0.8039394E-009  0.1950111E+03  0.7561462E-02  0.1058109E+00
         22   -1    0    0    0    0  0.00000000000E+00  0.00000000000E+00  0.15086994297E+04  0.15086994297E+04  0.00000000000E+00 0.  1.
         22   -1    0    0    0    0 -0.00000000000E+00 -0.00000000000E+00 -0.34477977124E+03  0.34477977124E+03  0.00000000000E+00 0.  1.
        -24    2    1    2    0    0 -0.35874595686E+02 -0.76635957189E+01 -0.28739209078E+03  0.30054358780E+03  0.79915686854E+02 0.  0.
         25    2    1    2    0    0  0.15018857064E+03  0.98484305262E+02  0.21945928686E+03  0.30994078585E+03  0.12508056210E+03 0.  0.
         24    2    1    2    0    0 -0.11431397495E+03 -0.90820709543E+02  0.12318524624E+04  0.12429948273E+04  0.79117415575E+02 0.  0.
        -11    1    5    5    0    0 -0.11373633471E+03 -0.59128815040E+02  0.10971527561E+04  0.11046159246E+04  0.00000000000E+00 0.  1.
         12    1    5    5    0    0 -0.57764023860E+00 -0.31691894503E+02  0.13469970630E+03  0.13837890274E+03  0.00000000000E+00 0. -1.
         11    1    3    3    0    0 -0.45355817656E+01  0.25436573372E+02 -0.32064737606E+02  0.41179341478E+02  0.00000000000E+00 0. -1.
        -12    1    3    3    0    0 -0.31339013921E+02 -0.33100169090E+02 -0.25532735318E+03  0.25936424632E+03  0.00000000000E+00 0.  1.
          5    1    4    4  501    0  0.13388287150E+03  0.57181522532E+02  0.85801275621E+02  0.16903751388E+03  0.41800000000E+01 0.  1.
         -5    1    4    4    0  501  0.16305699139E+02  0.41302782729E+02  0.13365801124E+03  0.14090327198E+03  0.41800000000E+01 0.  1.
</event>
<event>
11    1  0.8039394E-009  0.1886118E+03  0.7561462E-02  0.1062882E+00
         22   -1    0    0    0    0  0.00000000000E+00  0.00000000000E+00  0.74639932744E+03  0.74639932744E+03  0.00000000000E+00 0. -1.
         22   -1    0    0    0    0 -0.00000000000E+00 -0.00000000000E+00 -0.25093161420E+03  0.25093161420E+03  0.00000000000E+00 0.  1.
         24    2    1    2    0    0 -0.68373807558E+02  0.49588560754E+02 -0.17203902415E+03  0.20769990921E+03  0.80048882162E+02 0.  0.
         25    2    1    2    0    0  0.15396449064E+03  0.60376589211E+02  0.17711698993E+03  0.27270271419E+03  0.12508375316E+03 0.  0.
        -24    2    1    2    0    0 -0.85590683083E+02 -0.10996514997E+03  0.49038974746E+03  0.51692831824E+03  0.85525917396E+02 0.  0.
        -13    1    3    3    0    0 -0.76051431419E+02  0.64419761339E+02 -0.14759415304E+03  0.17809480588E+03  0.00000000000E+00 0.  1.
         14    1    3    3    0    0  0.76776238616E+01 -0.14831200584E+02 -0.24444871115E+02  0.29605103323E+02  0.00000000000E+00 0. -1.
         13    1    5    5    0    0 -0.57175785019E+02 -0.11210469325E+03  0.45154223715E+03  0.46875038621E+03  0.00000000000E+00 0. -1.
        -14    1    5    5    0    0 -0.28414898064E+02  0.21395432802E+01  0.38847510306E+02  0.48177932027E+02  0.00000000000E+00 0.  1.
          5    1    4    4  501    0  0.15955173842E+03  0.14491406967E+02  0.14624367152E+03  0.21695953993E+03  0.41800000000E+01 0.  1.
         -5    1    4    4    0  501 -0.55872477763E+01  0.45885182244E+02  0.30873318407E+02  0.55743174261E+02  0.41800000000E+01 0.  1.
</event>
<event>
11    1  0.8039394E-009  0.1662293E+03  0.7561462E-02  0.1081360E+00
         22   -1    0    0    0    0  0.00000000000E+00  0.00000000000E+00  0.23660160858E+03  0.23660160858E+03  0.00000000000E+00 0. -1.
         22   -1    0    0    0    0 -0.00000000000E+00 -0.00000000000E+00 -0.11966920127E+04  0.11966920127E+04  0.00000000000E+00 0. -1.
        -24    2    1    2    0    0  0.16800760719E+02  0.63407992650E+02 -0.78794924565E+03  0.79468797008E+03  0.79762879775E+02 0.  0.
         25    2    1    2    0    0 -0.86620830615E+02 -0.14366479341E+03 -0.35558108197E+03  0.41258601238E+03  0.12508625261E+03 0.  0.
         24    2    1    2    0    0  0.69820069896E+02  0.80256800765E+02  0.18343992354E+03  0.22601963877E+03  0.78221961975E+02 0.  0.
        -13    1    5    5    0    0  0.37801366828E+01  0.63048268061E+02  0.77154935960E+02  0.99710870430E+02  0.00000000000E+00 0.  1.
         14    1    5    5    0    0  0.66039933213E+02  0.17208532704E+02  0.10628498758E+03  0.12630876834E+03  0.00000000000E+00 0. -1.
         11    1    3    3    0    0 -0.97354048246E+00  0.75279663461E+02 -0.46717052646E+03  0.47319792508E+03  0.00000000000E+00 0. -1.
        -12    1    3    3    0    0  0.17774301202E+02 -0.11871670811E+02 -0.32077871919E+03  0.32149004500E+03  0.00000000000E+00 0.  1.
          5    1    4    4  501    0 -0.70789067670E+02 -0.15222922658E+02 -0.18287565185E+03  0.19673282877E+03  0.41800000000E+01 0. -1.
         -5    1    4    4    0  501 -0.15831762945E+02 -0.12844187076E+03 -0.17270543012E+03  0.21585318361E+03  0.41800000000E+01 0. -1.
</event>
<event>
11    1  0.8039394E-009  0.1618317E+03  0.7561462E-02  0.1085367E+00
         22   -1    0    0    0    0  0.00000000000E+00  0.00000000000E+00  0.72474376624E+03  0.72474376624E+03  0.00000000000E+00 0.  1.
         22   -1    0    0    0    0 -0.00000000000E+00 -0.00000000000E+00 -0.38060592531E+03  0.38060592531E+03  0.00000000000E+00 0. -1.
         24    2    1    2    0    0 -0.28181586481E+02 -0.53249621204E+02 -0.33479716077E+03  0.34925596069E+03  0.79125616896E+02 0.  0.
         25    2    1    2    0    0  0.53467211368E+02 -0.56695406487E+02  0.15344815302E+03  0.21275876258E+03  0.12508734380E+03 0.  0.
        -24    2    1    2    0    0 -0.25285624888E+02  0.10994502769E+03  0.52548684868E+03  0.54333496828E+03  0.79681790133E+02 0.  0.
        -11    1    3    3    0    0 -0.22535254223E+02 -0.64910468247E+01 -0.19611964893E+02  0.30571237115E+02  0.00000000000E+00 0.  1.
         12    1    3    3    0    0 -0.56463322575E+01 -0.46758574380E+02 -0.31518519587E+03  0.31868472358E+03  0.00000000000E+00 0. -1.
         11    1    5    5    0    0  0.11329084546E+02 -0.44183793266E+01  0.17252887906E+02  0.21107637803E+02  0.00000000000E+00 0. -1.
        -12    1    5    5    0    0 -0.36614709434E+02  0.11436340702E+03  0.50823396077E+03  0.52222733048E+03  0.00000000000E+00 0.  1.
          5    1    4    4  501    0 -0.13021180671E+01 -0.82899972278E+02  0.11077614165E+03  0.13843022385E+03  0.41800000000E+01 0.  1.
         -5    1    4    4    0  501  0.54769329435E+02  0.26204565792E+02  0.42672011371E+02  0.74328538729E+02  0.41800000000E+01 0.  1.
</event>
<event>
11    1  0.8039394E-009  0.2090626E+03  0.7561462E-02  0.1048294E+00
         22   -1    0    0    0    0  0.00000000000E+00  0.00000000000E+00  0.74226829733E+02  0.74226829733E+02  0.00000000000E+00 0.  1.
         22   -1    0    0    0    0 -0.00000000000E+00 -0.00000000000E+00 -0.39941413745E+04  0.39941413745E+04  0.00000000000E+00 0. -1.
         24    2    1    2    0    0 -0.43800377418E+02  0.14304109930E+03 -0.24593267872E+04  0.24651583498E+04  0.79612899632E+02 0.  0.
         25    2    1    2    0    0  0.10618077300E+03 -0.23039568643E+03 -0.14397376855E+04  0.14672600661E+04  0.12510383556E+03 0.  0.
        -24    2    1    2    0    0 -0.62380395582E+02  0.87354587135E+02 -0.20850071980E+02  0.13594978832E+03  0.80780454292E+02 0.  0.
        -11    1    3    3    0    0 -0.14053927725E+02 -0.71069248662E+01 -0.30012472294E+03  0.30053763589E+03  0.00000000000E+00 0.  1.
         12    1    3    3    0    0 -0.29746449693E+02  0.15014802417E+03 -0.21592020643E+04  0.21646207139E+04  0.00000000000E+00 0. -1.
         13    1    5    5    0    0 -0.27940180447E+02  0.62615739737E+01 -0.36579376522E+02  0.46453329039E+02  0.00000000000E+00 0. -1.
        -14    1    5    5    0    0 -0.34440215135E+02  0.81093013162E+02  0.15729304542E+02  0.89496459279E+02  0.00000000000E+00 0.  1.
          5    1    4    4  501    0  0.87516896648E+02 -0.12648739662E+03 -0.11199588480E+04  0.11304793507E+04  0.41800000000E+01 0.  1.
         -5    1    4    4    0  501  0.18663876353E+02 -0.10390828981E+03 -0.31977883751E+03  0.33678071544E+03  0.41800000000E+01 0.  1.
</event>
<event>
11    1  0.8039394E-009  0.1892640E+03  0.7561462E-02  0.1062386E+00
         22   -1    0    0    0    0  0.00000000000E+00  0.00000000000E+00  0.27219116118E+03  0.27219116118E+03  0.00000000000E+00 0. -1.
         22   -1    0    0    0    0 -0.00000000000E+00 -0.00000000000E+00 -0.66960642863E+03  0.66960642863E+03  0.00000000000E+00 0. -1.
         24    2    1    2    0    0 -0.12870611169E+03 -0.25535335164E+02 -0.40936688133E+03  0.43722341004E+03  0.79785651772E+02 0.  0.
         25    2    1    2    0    0  0.16837155924E+03  0.10256141320E+03 -0.16836743857E+03  0.28788410225E+03  0.12514725932E+03 0.  0.
        -24    2    1    2    0    0 -0.39665447556E+02 -0.77026078035E+02  0.18031905246E+03  0.21669007752E+03  0.83266227195E+02 0.  0.
        -13    1    3    3    0    0 -0.55668921652E+02 -0.51074971849E+02 -0.18225100477E+03  0.19728940754E+03  0.00000000000E+00 0.  1.
         14    1    3    3    0    0 -0.73037190037E+02  0.25539636685E+02 -0.22711587656E+03  0.23993400250E+03  0.00000000000E+00 0. -1.
         11    1    5    5    0    0  0.75045149007E+01 -0.49433900503E+02  0.14033702604E+03  0.14897821700E+03  0.00000000000E+00 0. -1.
        -12    1    5    5    0    0 -0.47169962457E+02 -0.27592177532E+02  0.39982026415E+02  0.67711860522E+02  0.00000000000E+00 0.  1.
          5    1    4    4  501    0  0.27793652539E+02 -0.29390341503E+02 -0.29202027896E+02  0.50065058957E+02  0.41800000000E+01 0.  1.
         -5    1    4    4    0  501  0.14057790671E+03  0.13195175470E+03 -0.13916541068E+03  0.23781904329E+03  0.41800000000E+01 0.  1.
</event>
<event>
11    1  0.8039394E-009  0.1408933E+03  0.7561462E-02  0.1106565E+00
         22   -1    0    0    0    0  0.00000000000E+00  0.00000000000E+00  0.80023776743E+03  0.80023776743E+03  0.00000000000E+00 0. -1.
         22   -1    0    0    0    0 -0.00000000000E+00 -0.00000000000E+00 -0.10794271558E+04  0.10794271558E+04  0.00000000000E+00 0.  1.
         24    2    1    2    0    0  0.45816926565E+02 -0.45168020864E+02 -0.97573961008E+03  0.98126858652E+03  0.81736842003E+02 0.  0.
         25    2    1    2    0    0 -0.39818715119E+02  0.66649082289E+02 -0.43600294716E+02  0.15353322395E+03  0.12507531696E+03 0.  0.
        -24    2    1    2    0    0 -0.59982114458E+01 -0.21481061426E+02  0.74015051639E+03  0.74486311280E+03  0.80627882008E+02 0.  0.
        -13    1    3    3    0    0  0.21519137701E+02 -0.66752904962E+02 -0.58766828898E+03  0.59183869549E+03  0.00000000000E+00 0.  1.
         14    1    3    3    0    0  0.24297788864E+02  0.21584884098E+02 -0.38807132110E+03  0.38942989103E+03  0.00000000000E+00 0. -1.
         13    1    5    5    0    0  0.20782141136E+02 -0.40247468354E+02  0.55513274325E+03  0.55697766448E+03  0.00000000000E+00 0. -1.
        -14    1    5    5    0    0 -0.26780352582E+02  0.18766406929E+02  0.18501777314E+03  0.18788544832E+03  0.00000000000E+00 0.  1.
          5    1    4    4  501    0 -0.14191332624E+01  0.94115030923E+02 -0.85911245341E+01  0.94609369545E+02  0.41800000000E+01 0.  1.
         -5    1    4    4    0  501 -0.38399581857E+02 -0.27465948634E+02 -0.35009170182E+02  0.58923854405E+02  0.41800000000E+01 0.  1.
</event>
<event>
11    1  0.8039394E-009  0.1347377E+03  0.7561462E-02  0.1113581E+00
         22   -1    0    0    0    0  0.00000000000E+00  0.00000000000E+00  0.10448922703E+03  0.10448922703E+03  0.00000000000E+00 0.  1.
         22   -1    0    0    0    0 -0.00000000000E+00 -0.00000000000E+00 -0.22034602407E+04  0.22034602407E+04  0.00000000000E+00 0.  1.
         24    2    1    2    0    0 -0.22233456413E+02 -0.15483905021E+02 -0.20015343957E+04  0.20032652945E+04  0.78726265909E+02 0.  0.
         25    2    1    2    0    0  0.50338425369E+02  0.49208490522E+02 -0.12040325968E+03  0.18735154615E+03  0.12509286268E+03 0.  0.
        -24    2    1    2    0    0 -0.28104968956E+02 -0.33724585501E+02  0.22966641754E+02  0.11733262708E+03  0.10635902311E+03 0.  0.
        -11    1    3    3    0    0  0.23247618655E+02 -0.15808156147E+02 -0.12742724031E+04  0.12745824833E+04  0.00000000000E+00 0.  1.
         12    1    3    3    0    0 -0.45481075068E+02  0.32425112574E+00 -0.72726199262E+03  0.72868281113E+03  0.00000000000E+00 0. -1.
         11    1    5    5    0    0 -0.48344856990E+02 -0.33667072077E+02 -0.25964584943E+02  0.64380560816E+02  0.00000000000E+00 0. -1.
        -12    1    5    5    0    0  0.20239888035E+02 -0.57513423588E-01  0.48931226697E+02  0.52952066263E+02  0.00000000000E+00 0.  1.
          5    1    4    4  501    0  0.62988315993E+02  0.84690975689E+02 -0.87670057404E+02  0.13727199525E+03  0.41800000000E+01 0.  1.
         -5    1    4    4    0  501 -0.12649890625E+02 -0.35482485167E+02 -0.32733202278E+02  0.50079550895E+02  0.41800000000E+01 0.  1.
</event>
<event>
11    1  0.8039394E-009  0.1482298E+03  0.7561462E-02  0.1098701E+00
         22   -1    0    0    0    0  0.00000000000E+00  0.00000000000E+00  0.82175966243E+02  0.82175966243E+02  0.00000000000E+00 0.  1.
         22   -1    0    0    0    0 -0.00000000000E+00 -0.00000000000E+00 -0.16686624641E+04  0.16686624641E+04  0.00000000000E+00 0. -1.
         24    2    1    2    0    0 -0.51178906249E+02 -0.17855418932E+01 -0.81024557744E+03  0.81586712406E+03  0.80739084394E+02 0.  0.
         25    2    1    2    0    0  0.12594316901E+03  0.18789635202E+02 -0.79719339201E+03  0.81693280390E+03  0.12508864700E+03 0.  0.
        -24    2    1    2    0    0 -0.74764262757E+02 -0.17004093309E+02  0.20952471574E+02  0.11803850241E+03  0.87265387246E+02 0.  0.
        -11    1    3    3    0    0 -0.35249234803E+02  0.91510141853E+01 -0.12125819015E+03  0.12660883972E+03  0.00000000000E+00 0.  1.
         12    1    3    3    0    0 -0.15929671445E+02 -0.10936556079E+02 -0.68898738729E+03  0.68925828434E+03  0.00000000000E+00 0. -1.
         13    1    5    5    0    0  0.23753028363E+01  0.72734633371E+01 -0.24225432079E+02  0.25405056424E+02  0.00000000000E+00 0. -1.
        -14    1    5    5    0    0 -0.77139565593E+02 -0.24277556646E+02  0.45177903653E+02  0.92633445985E+02  0.00000000000E+00 0.  1.
          5    1    4    4  501    0  0.55205342875E+02  0.17347539699E+02 -0.96023054377E+02  0.11218942191E+03  0.41800000000E+01 0. -1.
         -5    1    4    4    0  501  0.70737826131E+02  0.14420955035E+01 -0.70117033763E+03  0.70474338199E+03  0.41800000000E+01 0. -1.
</event>
<event>
11    1  0.8039394E-009  0.1817801E+03  0.7561462E-02  0.1068212E+00
         22   -1    0    0    0    0  0.00000000000E+00  0.00000000000E+00  0.85084101727E+03  0.85084101727E+03  0.00000000000E+00 0.  1.
         22   -1    0    0    0    0 -0.00000000000E+00 -0.00000000000E+00 -0.18898269208E+03  0.18898269208E+03  0.00000000000E+00 0. -1.
         24    2    1    2    0    0 -0.85792373870E+02  0.96114744719E+02 -0.10583987469E+03  0.18485138779E+03  0.79809654345E+02 0.  0.
         25    2    1    2    0    0  0.52757270925E+02 -0.15612696430E+03  0.24117629869E+03  0.31776069591E+03  0.12508754615E+03 0.  0.
        -24    2    1    2    0    0  0.33035102945E+02  0.60012219576E+02  0.52652190119E+03  0.53721162564E+03  0.81720461115E+02 0.  0.
        -11    1    3    3    0    0 -0.10911541894E+02 -0.27283198488E+01 -0.45642574544E+02  0.47007978968E+02  0.00000000000E+00 0.  1.
         12    1    3    3    0    0 -0.74880831976E+02  0.98843064568E+02 -0.60197300148E+02  0.13784340882E+03  0.00000000000E+00 0. -1.
         11    1    5    5    0    0  0.50684350826E+01  0.65174119351E+02  0.22366176977E+03  0.23301918832E+03  0.00000000000E+00 0. -1.
        -12    1    5    5    0    0  0.27966667863E+02 -0.51618997746E+01  0.30286013142E+03  0.30419243732E+03  0.00000000000E+00 0.  1.
          5    1    4    4  501    0 -0.15459886718E+01 -0.13198713291E+03  0.21581105605E+03  0.25301161564E+03  0.41800000000E+01 0. -1.
         -5    1    4    4    0  501  0.54303259597E+02 -0.24139831382E+02  0.25365242639E+02  0.64749080273E+02  0.41800000000E+01 0. -1.
</event>
<event>
11    1  0.8039394E-009  0.1459998E+03  0.7561462E-02  0.1101038E+00
         22   -1    0    0    0    0  0.00000000000E+00  0.00000000000E+00  0.13268778308E+04  0.13268778308E+04  0.00000000000E+00 0. -1.
         22   -1    0    0    0    0 -0.00000000000E+00 -0.00000000000E+00 -0.67888034987E+03  0.67888034987E+03  0.00000000000E+00 0. -1.
         24    2    1    2    0    0 -0.10259983287E+02 -0.74569178831E+02 -0.65629613726E+03  0.66524716616E+03  0.78506959071E+02 0.  0.
         25    2    1    2    0    0  0.15652356382E+02  0.74870378320E+02  0.31238472285E+03  0.34508374788E+03  0.12509199882E+03 0.  0.
        -24    2    1    2    0    0 -0.53923730943E+01 -0.30119948922E+00  0.99190889537E+03  0.99542726666E+03  0.83444700742E+02 0.  0.
        -13    1    3    3    0    0 -0.17762800346E+02  0.34534945622E+01 -0.38988311278E+02  0.42982928205E+02  0.00000000000E+00 0.  1.
         14    1    3    3    0    0  0.75028170586E+01 -0.78022673393E+02 -0.61730782598E+03  0.62226423796E+03  0.00000000000E+00 0. -1.
         13    1    5    5    0    0 -0.27008690848E+02 -0.29419947456E+02  0.72052966227E+03  0.72163563999E+03  0.00000000000E+00 0. -1.
        -14    1    5    5    0    0  0.21616317754E+02  0.29118747967E+02  0.27137923310E+03  0.27379162667E+03  0.00000000000E+00 0.  1.
          5    1    4    4  501    0 -0.21857746482E+02 -0.28190992384E+02  0.95014236964E+02  0.10157593592E+03  0.41800000000E+01 0.  1.
         -5    1    4    4    0  501  0.37510102864E+02  0.10306137070E+03  0.21737048589E+03  0.24350781196E+03  0.41800000000E+01 0.  1.
</event>
<event>
11    1  0.8039394E-009  0.1574715E+03  0.7561462E-02  0.1089480E+00
         22   -1    0    0    0    0  0.00000000000E+00  0.00000000000E+00  0.30062724249E+03  0.30062724249E+03  0.00000000000E+00 0. -1.
         22   -1    0    0    0    0 -0.00000000000E+00 -0.00000000000E+00 -0.10489556540E+04  0.10489556540E+04  0.00000000000E+00 0. -1.
         24    2    1    2    0    0  0.89188278405E-01  0.56567531964E+02 -0.91327337622E+03  0.91834430599E+03  0.78026348220E+02 0.  0.
         25    2    1    2    0    0 -0.92874702940E+02 -0.72978508695E+02 -0.54006222583E+02  0.18032220946E+03  0.12509138247E+03 0.  0.
        -24    2    1    2    0    0  0.92785514661E+02  0.16410976731E+02  0.21895118725E+03  0.25091638107E+03  0.78364124468E+02 0.  0.
        -11    1    3    3    0    0 -0.29845263385E+02  0.29198025061E+02 -0.22265643463E+03  0.22653730884E+03  0.00000000000E+00 0.  1.
         12    1    3    3    0    0  0.29934451663E+02  0.27369506903E+02 -0.69061694159E+03  0.69180699715E+03  0.00000000000E+00 0. -1.
         13    1    5    5    0    0  0.40290261706E+02  0.39880534593E+02  0.63255243360E+02  0.84941085702E+02  0.00000000000E+00 0. -1.
        -14    1    5    5    0    0  0.52495252955E+02 -0.23469557861E+02  0.15569594389E+03  0.16597529537E+03  0.00000000000E+00 0.  1.
          5    1    4    4  501    0 -0.11229618064E+03 -0.81358157966E+02 -0.68116901597E+02  0.15455409000E+03  0.41800000000E+01 0.  1.
         -5    1    4    4    0  501  0.19421477700E+02  0.83796492711E+01  0.14110679014E+02  0.25768119453E+02  0.41800000000E+01 0.  1.
</event>
<event>
11    1  0.8039394E-009  0.2414049E+03  0.7561462E-02  0.1028580E+00
         22   -1    0    0    0    0  0.00000000000E+00  0.00000000000E+00  0.89306707127E+03  0.89306707127E+03  0.00000000000E+00 0. -1.
         22   -1    0    0    0    0 -0.00000000000E+00 -0.00000000000E+00 -0.24391006448E+03  0.24391006448E+03  0.00000000000E+00 0.  1.
         24    2    1    2    0    0  0.37272054533E+02  0.23183218999E+02 -0.12199887797E+03  0.15253659988E+03  0.80355587140E+02 0.  0.
         25    2    1    2    0    0 -0.23541930876E+03 -0.50384145345E+02  0.11611161697E+03  0.29510986233E+03  0.12508840958E+03 0.  0.
        -24    2    1    2    0    0  0.19814725423E+03  0.27200926345E+02  0.65504426779E+03  0.68933067353E+03  0.78048446258E+02 0.  0.
        -11    1    3    3    0    0  0.12141556629E+02  0.51898840627E+01 -0.12088976275E+03  0.12160874571E+03  0.00000000000E+00 0.  1.
         12    1    3    3    0    0  0.25130497904E+02  0.17993334937E+02 -0.11091152145E+01  0.30927854171E+02  0.00000000000E+00 0. -1.
         11    1    5    5    0    0  0.20522677065E+03  0.26913621664E+02  0.64117385440E+03  0.67375535767E+03  0.00000000000E+00 0. -1.
        -12    1    5    5    0    0 -0.70795164228E+01  0.28730468102E+00  0.13870413383E+02  0.15575315862E+02  0.00000000000E+00 0.  1.
          5    1    4    4  501    0 -0.24319858705E+03 -0.31339155569E+02  0.89165389729E+02  0.26095140264E+03  0.41800000000E+01 0.  1.
         -5    1    4    4    0  501  0.77792782875E+01 -0.19044989776E+02  0.26946227239E+02  0.34158459694E+02  0.41800000000E+01 0.  1.
</event>
<event>
11    1  0.8039394E-009  0.1399262E+03  0.7561462E-02  0.1107641E+00
         22   -1    0    0    0    0  0.00000000000E+00  0.00000000000E+00  0.20168642044E+03  0.20168642044E+03  0.00000000000E+00 0.  1.
         22   -1    0    0    0    0 -0.00000000000E+00 -0.00000000000E+00 -0.22007977025E+04  0.22007977025E+04  0.00000000000E+00 0. -1.
         24    2    1    2    0    0  0.44689689088E+02 -0.49564562217E+02 -0.19712979729E+04  0.19751435715E+04  0.10355006452E+03 0.  0.
         25    2    1    2    0    0 -0.35356376389E+02 -0.37184543312E+01 -0.19501267748E+03  0.23439353211E+03  0.12508590353E+03 0.  0.
        -24    2    1    2    0    0 -0.93333126984E+01  0.53283016548E+02  0.16719936833E+03  0.19294701934E+03  0.79666385165E+02 0.  0.
        -13    1    3    3    0    0  0.24013504943E+02 -0.48977399427E+02 -0.39919807839E+03  0.40290760710E+03  0.00000000000E+00 0.  1.
         14    1    3    3    0    0  0.20676184145E+02 -0.58716279033E+00 -0.15720998945E+04  0.15722359643E+04  0.00000000000E+00 0. -1.
         13    1    5    5    0    0 -0.43903153943E+01  0.38239219627E+02  0.17276021897E+02  0.42189734765E+02  0.00000000000E+00 0. -1.
        -14    1    5    5    0    0 -0.49429973040E+01  0.15043796922E+02  0.14992334643E+03  0.15075728458E+03  0.00000000000E+00 0.  1.
          5    1    4    4  501    0 -0.63606843194E+02 -0.27365840200E+02 -0.18253559799E+03  0.19527272376E+03  0.41800000000E+01 0. -1.
         -5    1    4    4    0  501  0.28250466805E+02  0.23647385869E+02 -0.12477079493E+02  0.39120808348E+02  0.41800000000E+01 0. -1.
</event>
<event>
11    1  0.8039394E-009  0.1950363E+03  0.7561462E-02  0.1058090E+00
         22   -1    0    0    0    0  0.00000000000E+00  0.00000000000E+00  0.44137694014E+04  0.44137694014E+04  0.00000000000E+00 0.  1.
         22   -1    0    0    0    0 -0.00000000000E+00 -0.00000000000E+00 -0.31423965479E+03  0.31423965479E+03  0.00000000000E+00 0. -1.
        -24    2    1    2    0    0 -0.86079373795E+02 -0.12687759395E+03 -0.25103494747E+03  0.30550459596E+03  0.82504126331E+02 0.  0.
         25    2    1    2    0    0  0.13956563998E+03  0.39756243944E+02  0.22870214538E+03  0.29834869713E+03  0.12509255368E+03 0.  0.
         24    2    1    2    0    0 -0.53486266183E+02  0.87121350009E+02  0.41218625487E+04  0.41241557631E+04  0.91972700136E+02 0.  0.
        -11    1    5    5    0    0 -0.67482513385E+02  0.96163464321E+02  0.32262082781E+04  0.32283465048E+04  0.00000000000E+00 0.  1.
         12    1    5    5    0    0  0.13996247202E+02 -0.90421143115E+01  0.89565427058E+03  0.89580925826E+03  0.00000000000E+00 0. -1.
         11    1    3    3    0    0 -0.80826955027E+02 -0.89158673581E+02 -0.23532103213E+03  0.26430712040E+03  0.00000000000E+00 0. -1.
        -12    1    3    3    0    0 -0.52524187688E+01 -0.37718920373E+02 -0.15713915342E+02  0.41197475559E+02  0.00000000000E+00 0.  1.
          5    1    4    4  501    0  0.43000283044E+02 -0.44429502852E+02  0.57991423959E+02  0.84873333376E+02  0.41800000000E+01 0. -1.
         -5    1    4    4    0  501  0.96565356935E+02  0.84185746797E+02  0.17071072142E+03  0.21347536376E+03  0.41800000000E+01 0. -1.
</event>
<event>
11    1  0.8039394E-009  0.1280236E+03  0.7561462E-02  0.1121721E+00
         22   -1    0    0    0    0  0.00000000000E+00  0.00000000000E+00  0.39933663162E+03  0.39933663162E+03  0.00000000000E+00 0.  1.
         22   -1    0    0    0    0 -0.00000000000E+00 -0.00000000000E+00 -0.51163846139E+03  0.51163846139E+03  0.00000000000E+00 0. -1.
        -24    2    1    2    0    0  0.10961702530E+02  0.26363658401E+02 -0.41972193504E+03  0.42819556967E+03  0.79810661744E+02 0.  0.
         25    2    1    2    0    0 -0.29324998073E+02  0.41878802851E+00 -0.32481572860E+02  0.13252335317E+03  0.12508899098E+03 0.  0.
         24    2    1    2    0    0  0.18363295543E+02 -0.26782446430E+02  0.33990167812E+03  0.35025617017E+03  0.78049496414E+02 0.  0.
        -11    1    5    5    0    0  0.43575126295E+01  0.61672818893E+01  0.28252127573E+03  0.28262217627E+03  0.00000000000E+00 0.  1.
         12    1    5    5    0    0  0.14005782913E+02 -0.32949728319E+02  0.57380402396E+02  0.67633993897E+02  0.00000000000E+00 0. -1.
         11    1    3    3    0    0 -0.15685318890E+02  0.47374409877E+02 -0.27997001713E+03  0.28438279560E+03  0.00000000000E+00 0. -1.
        -12    1    3    3    0    0  0.26647021420E+02 -0.21010751476E+02 -0.13975191791E+03  0.14381277407E+03  0.00000000000E+00 0.  1.
          5    1    4    4  501    0 -0.49053784289E+02  0.43437843329E+02  0.12798464802E+02  0.66890904370E+02  0.41800000000E+01 0.  1.
         -5    1    4    4    0  501  0.19728786216E+02 -0.43019055301E+02 -0.45280037662E+02  0.65632448798E+02  0.41800000000E+01 0.  1.
</event>
<event>
11    1  0.8039394E-009  0.1642103E+03  0.7561462E-02  0.1083183E+00
         22   -1    0    0    0    0  0.00000000000E+00  0.00000000000E+00  0.75290252597E+03  0.75290252597E+03  0.00000000000E+00 0. -1.
         22   -1    0    0    0    0 -0.00000000000E+00 -0.00000000000E+00 -0.48535871533E+03  0.48535871533E+03  0.00000000000E+00 0.  1.
        -24    2    1    2    0    0  0.10913566536E+02 -0.59151434144E+02 -0.34837847327E+03  0.36267611875E+03  0.80922236637E+02 0.  0.
         25    2    1    2    0    0  0.87305898155E+02  0.98356829726E+02 -0.56589555626E+02  0.19012169478E+03  0.12508994849E+03 0.  0.
         24    2    1    2    0    0 -0.98219464690E+02 -0.39205395581E+02  0.67251183954E+03  0.68546342776E+03  0.80023810196E+02 0.  0.
        -11    1    5    5    0    0 -0.30572590369E+02  0.84842348092E+01  0.64900593678E+02  0.72240934254E+02  0.00000000000E+00 0.  1.
         12    1    5    5    0    0 -0.67646874321E+02 -0.47689630391E+02  0.60761124586E+03  0.61322249351E+03  0.00000000000E+00 0. -1.
         11    1    3    3    0    0  0.33093101060E+02  0.38245083562E+01 -0.96028653108E+02  0.10164291623E+03  0.00000000000E+00 0. -1.
        -12    1    3    3    0    0 -0.22179534524E+02 -0.62975942501E+02 -0.25234982016E+03  0.26103320252E+03  0.00000000000E+00 0.  1.
          5    1    4    4  501    0 -0.29873048263E+02  0.30264747682E+01 -0.11472605887E+02  0.32413757077E+02  0.41800000000E+01 0. -1.
         -5    1    4    4    0  501  0.11717894642E+03  0.95330354958E+02 -0.45116949739E+02  0.15770793770E+03  0.41800000000E+01 0. -1.
</event>
<event>
11    1  0.8039394E-009  0.1659542E+03  0.7561462E-02  0.1081607E+00
         22   -1    0    0    0    0  0.00000000000E+00  0.00000000000E+00  0.14488583377E+04  0.14488583377E+04  0.00000000000E+00 0.  1.
         22   -1    0    0    0    0 -0.00000000000E+00 -0.00000000000E+00 -0.46021285721E+03  0.46021285721E+03  0.00000000000E+00 0.  1.
         24    2    1    2    0    0 -0.30778485250E+02 -0.10389079760E+03 -0.41972152398E+03  0.44101905499E+03  0.81185196884E+02 0.  0.
         25    2    1    2    0    0  0.41274926655E+01  0.13279072146E+03  0.26785685999E+03  0.32410562516E+03  0.12508695742E+03 0.  0.
        -24    2    1    2    0    0  0.26650992584E+02 -0.28899923860E+02  0.11405101445E+04  0.11439465148E+04  0.79402506098E+02 0.  0.
        -13    1    3    3    0    0 -0.33420308759E+02 -0.57825881628E+02 -0.35677570935E+03  0.36297335496E+03  0.00000000000E+00 0.  1.
         14    1    3    3    0    0  0.26418235098E+01 -0.46064915972E+02 -0.62945814627E+02  0.78045700035E+02  0.00000000000E+00 0. -1.
         11    1    5    5    0    0  0.17250687163E+02  0.25795300559E+02  0.53468108354E+03  0.53558084809E+03  0.00000000000E+00 0. -1.
        -12    1    5    5    0    0  0.94003054211E+01 -0.54695224420E+02  0.60582906098E+03  0.60836566672E+03  0.00000000000E+00 0.  1.
          5    1    4    4  501    0  0.35277264172E+02  0.14313278647E+03  0.23523855261E+03  0.27764388876E+03  0.41800000000E+01 0.  1.
         -5    1    4    4    0  501 -0.31149771507E+02 -0.10342065008E+02  0.32618307372E+02  0.46461736400E+02  0.41800000000E+01 0.  1.
</event>
<event>
11    1  0.8039394E-009  0.1440278E+03  0.7561462E-02  0.1103142E+00
         22   -1    0    0    0    0  0.00000000000E+00  0.00000000000E+00  0.87664405258E+03  0.87664405258E+03  0.00000000000E+00 0. -1.
         22   -1    0    0    0    0 -0.00000000000E+00 -0.00000000000E+00 -0.18461362691E+03  0.18461362691E+03  0.00000000000E+00 0.  1.
         24    2    1    2    0    0 -0.91685990366E+01 -0.73017938034E+02 -0.13977273968E+03  0.17814035138E+03  0.82352192138E+02 0.  0.
         25    2    1    2    0    0 -0.18920513098E+02 -0.84473512056E+01  0.17702511999E+03  0.21775204586E+03  0.12509483126E+03 0.  0.
        -24    2    1    2    0    0  0.28089112135E+02  0.81465289240E+02  0.65477804536E+03  0.66536528224E+03  0.80938733385E+02 0.  0.
        -13    1    3    3    0    0  0.31036003907E+01 -0.76636241034E+02 -0.14522331475E+03  0.16423323939E+03  0.00000000000E+00 0.  1.
         14    1    3    3    0    0 -0.12272199427E+02  0.36183030001E+01  0.54505750658E+01  0.13907111991E+02  0.00000000000E+00 0. -1.
         11    1    5    5    0    0  0.42991877046E+02  0.72811881902E+02  0.62699978978E+03  0.63267575267E+03  0.00000000000E+00 0. -1.
        -12    1    5    5    0    0 -0.14902764911E+02  0.86534073378E+01  0.27778255578E+02  0.32689529570E+02  0.00000000000E+00 0.  1.
          5    1    4    4  501    0 -0.26544073419E+02 -0.32628843034E+02  0.18583901024E+03  0.19058551718E+03  0.41800000000E+01 0.  1.
         -5    1    4    4    0  501  0.76235603213E+01  0.24181491829E+02 -0.88138902482E+01  0.27166528677E+02  0.41800000000E+01 0.  1.
</event>
<event>
11    1  0.8039394E-009  0.1903374E+03  0.7561462E-02  0.1061575E+00
         22   -1    0    0    0    0  0.00000000000E+00  0.00000000000E+00  0.45381007189E+03  0.45381007189E+03  0.00000000000E+00 0.  1.
         22   -1    0    0    0    0 -0.00000000000E+00 -0.00000000000E+00 -0.33787600776E+03  0.33787600776E+03  0.00000000000E+00 0. -1.
        -24    2    1    2    0    0 -0.39019086286E+02  0.14181832168E+03 -0.25111431879E+03  0.30335825645E+03  0.85632384060E+02 0.  0.
         25    2    1    2    0    0  0.11370582214E+03 -0.84482669566E+02  0.16506719819E+03  0.25091981260E+03  0.12508891634E+03 0.  0.
         24    2    1    2    0    0 -0.74686735853E+02 -0.57335652116E+02  0.20198118472E+03  0.23740801060E+03  0.81857675270E+02 0.  0.
        -11    1    5    5    0    0 -0.77545810087E+02 -0.35735230358E+02  0.19749537568E+03  0.21516222430E+03  0.00000000000E+00 0.  1.
         12    1    5    5    0    0  0.28590742342E+01 -0.21600421758E+02  0.44858090462E+01  0.22245786306E+02  0.00000000000E+00 0. -1.
         11    1    3    3    0    0 -0.54101658579E+02  0.54607968628E+02 -0.15299081657E+03  0.17121684979E+03  0.00000000000E+00 0. -1.
        -12    1    3    3    0    0  0.15082572293E+02  0.87210353054E+02 -0.98123502218E+02  0.13214140666E+03  0.00000000000E+00 0.  1.
          5    1    4    4  501    0  0.95355029428E+02  0.68836301953E+01  0.83138961008E+02  0.12676563114E+03  0.41800000000E+01 0.  1.
         -5    1    4    4    0  501  0.18350792711E+02 -0.91366299762E+02  0.81928237182E+02  0.12415418146E+03  0.41800000000E+01 0.  1.
</event>
<event>
11    1  0.8039394E-009  0.1265263E+03  0.7561462E-02  0.1123612E+00
         22   -1    0    0    0    0  0.00000000000E+00  0.00000000000E+00  0.68957865504E+03  0.68957865504E+03  0.00000000000E+00 0. -1.
         22   -1    0    0    0    0 -0.00000000000E+00 -0.00000000000E+00 -0.16511814544E+03  0.16511814544E+03  0.00000000000E+00 0.  1.
        -24    2    1    2    0    0  0.13602686887E+02 -0.99021975893E+01 -0.10559382785E+03  0.13531549787E+03  0.82928528720E+02 0.  0.
         25    2    1    2    0    0 -0.22443340284E+02  0.26628783719E+02  0.59318599922E+02  0.14275188143E+03  0.12508640098E+03 0.  0.
         24    2    1    2    0    0  0.88406533972E+01 -0.16726586130E+02  0.57073573754E+03  0.57662942118E+03  0.80026692008E+02 0.  0.
        -13    1    5    5    0    0 -0.34534643755E+02 -0.17089936403E+02  0.24310019124E+03  0.24613494374E+03  0.00000000000E+00 0.  1.
         14    1    5    5    0    0  0.43375297152E+02  0.36335027249E+00  0.32763554629E+03  0.33049447744E+03  0.00000000000E+00 0. -1.
         11    1    3    3    0    0 -0.24691036159E+02  0.41983771591E+01 -0.33996429669E+01  0.25275110478E+02  0.00000000000E+00 0. -1.
        -12    1    3    3    0    0  0.38293723046E+02 -0.14100574748E+02 -0.10219418488E+03  0.11004038739E+03  0.00000000000E+00 0.  1.
          5    1    4    4  501    0  0.39752137885E+02 -0.24110057138E+02  0.79183041429E+01  0.47346586594E+02  0.41800000000E+01 0. -1.
         -5    1    4    4    0  501 -0.62195478169E+02  0.50738840858E+02  0.51400295779E+02  0.95405294834E+02  0.41800000000E+01 0. -1.
</event>
<event>
11    1  0.8039394E-009  0.1413395E+03  0.7561462E-02  0.1106072E+00
         22   -1    0    0    0    0  0.00000000000E+00  0.00000000000E+00  0.11653753034E+04  0.11653753034E+04  0.00000000000E+00 0. -1.
         22   -1    0    0    0    0 -0.00000000000E+00 -0.00000000000E+00 -0.23399613948E+03  0.23399613948E+03  0.00000000000E+00 0. -1.
         24    2    1    2    0    0  0.33911986511E+02 -0.17667805109E+01 -0.12447045435E+03  0.15356139690E+03  0.83277033263E+02 0.  0.
         25    2    1    2    0    0 -0.93447692686E+02  0.27757255899E+02 -0.24493349386E+02  0.16046880612E+03  0.12508947618E+03 0.  0.
        -24    2    1    2    0    0  0.59535706175E+02 -0.25990475388E+02  0.10803429677E+04  0.10853412399E+04  0.81269145719E+02 0.  0.
        -11    1    3    3    0    0 -0.67645384037E+00 -0.78326822672E+00  0.12370307670E+02  0.12413525315E+02  0.00000000000E+00 0.  1.
         12    1    3    3    0    0  0.34588440351E+02 -0.98351228416E+00 -0.13684076202E+03  0.14114787159E+03  0.00000000000E+00 0. -1.
         13    1    5    5    0    0 -0.56072407238E+00 -0.15777505281E+02  0.69725240238E+03  0.69743111252E+03  0.00000000000E+00 0. -1.
        -14    1    5    5    0    0  0.60096430247E+02 -0.10212970107E+02  0.38309056531E+03  0.38791012737E+03  0.00000000000E+00 0.  1.
          5    1    4    4  501    0 -0.30700765591E+02 -0.22862724765E+02 -0.60787560121E+02  0.71957216852E+02  0.41800000000E+01 0.  1.
         -5    1    4    4    0  501 -0.62746927095E+02  0.50619980664E+02  0.36294210735E+02  0.88511589270E+02  0.41800000000E+01 0.  1.
</event>
<event>
11    1  0.8039394E-009  0.1275247E+03  0.7561462E-02  0.1122348E+00
         22   -1    0    0    0    0  0.00000000000E+00  0.00000000000E+00  0.14713062376E+04  0.14713062376E+04  0.00000000000E+00 0.  1.
         22   -1    0    0    0    0 -0.00000000000E+00 -0.00000000000E+00 -0.88356736962E+02  0.88356736962E+02  0.00000000000E+00 0. -1.
        -24    2    1    2    0    0  0.60668665884E+00 -0.24017576973E+02 -0.56795632142E+02  0.10300812231E+03  0.82508892611E+02 0.  0.
         25    2    1    2    0    0 -0.23175097617E+01  0.51494333778E+02  0.80388441130E+03  0.81519032246E+03  0.12509227733E+03 0.  0.
         24    2    1    2    0    0  0.17108231029E+01 -0.27476756805E+02  0.63586072145E+03  0.64146452976E+03  0.79999917303E+02 0.  0.
        -11    1    5    5    0    0  0.37470062929E+01 -0.28576952267E+02  0.63779644737E+03  0.63844732793E+03  0.00000000000E+00 0.  1.
         12    1    5    5    0    0 -0.20361831900E+01  0.11001954619E+01 -0.19357259196E+01  0.30172018285E+01  0.00000000000E+00 0. -1.
         13    1    3    3    0    0  0.33547843167E+02 -0.23391633893E+02 -0.56884999124E+02  0.70060898101E+02  0.00000000000E+00 0. -1.
        -14    1    3    3    0    0 -0.32941156509E+02 -0.62594307991E+00  0.89366982531E-01  0.32947224213E+02  0.00000000000E+00 0.  1.
          5    1    4    4  501    0 -0.22967766571E+02 -0.32841040229E+02  0.40188337149E+03  0.40389821602E+03  0.41800000000E+01 0.  1.
         -5    1    4    4    0  501  0.20650256809E+02  0.84335374006E+02  0.40200103981E+03  0.41129210644E+03  0.41800000000E+01 0.  1.
</event>
<event>
11    1  0.8039394E-009  0.1513403E+03  0.7561462E-02  0.1095517E+00
         22   -1    0    0    0    0  0.00000000000E+00  0.00000000000E+00  0.40269549981E+03  0.40269549981E+03  0.00000000000E+00 0. -1.
         22   -1    0    0    0    0 -0.00000000000E+00 -0.00000000000E+00 -0.52411611559E+03  0.52411611559E+03  0.00000000000E+00 0.  1.
        -24    2    1    2    0    0  0.28020903408E+02 -0.82340923246E+02 -0.39309457275E+03  0.41041562780E+03  0.79702231774E+02 0.  0.
         25    2    1    2    0    0 -0.55229039079E+01  0.77608166312E+02 -0.71261672492E+02  0.16364411138E+03  0.12509052433E+03 0.  0.
         24    2    1    2    0    0 -0.22497999500E+02  0.47327569339E+01  0.34293562946E+03  0.35275187623E+03  0.79375570937E+02 0.  0.
        -11    1    5    5    0    0  0.17115594084E+02  0.11409951564E+00  0.16120415693E+02  0.23512217710E+02  0.00000000000E+00 0.  1.
         12    1    5    5    0    0 -0.39613593584E+02  0.46186574182E+01  0.32681521376E+03  0.32923965852E+03  0.00000000000E+00 0. -1.
         13    1    3    3    0    0  0.94981266767E+01 -0.13289969790E+02 -0.70237652531E+01  0.17781197533E+02  0.00000000000E+00 0. -1.
        -14    1    3    3    0    0  0.18522776731E+02 -0.69050953456E+02 -0.38607080749E+03  0.39263443026E+03  0.00000000000E+00 0.  1.
          5    1    4    4  501    0 -0.43275839546E+02  0.80029250245E+02 -0.10138042980E+02  0.91639137374E+02  0.41800000000E+01 0. -1.
         -5    1    4    4    0  501  0.37752935638E+02 -0.24210839333E+01 -0.61123629511E+02  0.72004974004E+02  0.41800000000E+01 0. -1.
</event>
<event>
11    1  0.8039394E-009  0.2566491E+03  0.7561462E-02  0.1020416E+00
         22   -1    0    0    0    0  0.00000000000E+00  0.00000000000E+00  0.16816470686E+04  0.16816470686E+04  0.00000000000E+00 0.  1.
         22   -1    0    0    0    0 -0.00000000000E+00 -0.00000000000E+00 -0.10784785048E+03  0.10784785048E+03  0.00000000000E+00 0. -1.
        -24    2    1    2    0    0 -0.19026156464E+02 -0.30663710881E+02 -0.22602988001E+02  0.90487919346E+02  0.79843037807E+02 0.  0.
         25    2    1    2    0    0 -0.57581755480E+02  0.23584382750E+03  0.43002305879E+03  0.50941646649E+03  0.12508931092E+03 0.  0.
         24    2    1    2    0    0  0.76607911944E+02 -0.20518011662E+03  0.11663791473E+04  0.11895905332E+04  0.81961387443E+02 0.  0.
        -13    1    5    5    0    0 -0.14983421436E+02 -0.62562623897E+02  0.31372783799E+03  0.32025574336E+03  0.00000000000E+00 0.  1.
         14    1    5    5    0    0  0.91591333380E+02 -0.14261749272E+03  0.85265130932E+03  0.86933478987E+03  0.00000000000E+00 0. -1.
         13    1    3    3    0    0 -0.62609551895E+01 -0.22064255846E+02 -0.52261892041E+02  0.57073078642E+02  0.00000000000E+00 0. -1.
        -14    1    3    3    0    0 -0.12765201274E+02 -0.85994550353E+01  0.29658904040E+02  0.33414840705E+02  0.00000000000E+00 0.  1.
          5    1    4    4  501    0 -0.34757433090E+02  0.11816258991E+03  0.10141841649E+03  0.15960465034E+03  0.41800000000E+01 0.  1.
         -5    1    4    4    0  501 -0.22824322391E+02  0.11768123759E+03  0.32860464230E+03  0.34981181614E+03  0.41800000000E+01 0.  1.
</event>
<event>
11    1  0.8039394E-009  0.1343906E+03  0.7561462E-02  0.1113989E+00
         22   -1    0    0    0    0  0.00000000000E+00  0.00000000000E+00  0.42996366035E+03  0.42996366035E+03  0.00000000000E+00 0.  1.
         22   -1    0    0    0    0 -0.00000000000E+00 -0.00000000000E+00 -0.39464000502E+03  0.39464000502E+03  0.00000000000E+00 0. -1.
        -24    2    1    2    0    0  0.29823612473E+02  0.17145067520E+01 -0.22741830511E+03  0.24356144730E+03  0.81918897205E+02 0.  0.
         25    2    1    2    0    0  0.19729910841E+02  0.64067424267E+01 -0.12730662663E+03  0.17967086949E+03  0.12507728982E+03 0.  0.
         24    2    1    2    0    0 -0.49553523314E+02 -0.81212491787E+01  0.39004858707E+03  0.40137134859E+03  0.80246824456E+02 0.  0.
        -11    1    5    5    0    0 -0.47369398677E+02  0.77396278263E+01  0.37874128203E+03  0.38177050761E+03  0.00000000000E+00 0.  1.
         12    1    5    5    0    0 -0.21841246367E+01 -0.15860877005E+02  0.11307305037E+02  0.19600840977E+02  0.00000000000E+00 0. -1.
         13    1    3    3    0    0 -0.50605455156E+01  0.19117022952E+02 -0.18459514743E+03  0.18565138875E+03  0.00000000000E+00 0. -1.
        -14    1    3    3    0    0  0.34884157989E+02 -0.17402516200E+02 -0.42823157674E+02  0.57910058555E+02  0.00000000000E+00 0.  1.
          5    1    4    4  501    0  0.33318661077E+02  0.45409338818E+02 -0.12852256725E+02  0.57920584690E+02  0.41800000000E+01 0.  1.
         -5    1    4    4    0  501 -0.13588750236E+02 -0.39002596391E+02 -0.11445436990E+03  0.12175028480E+03  0.41800000000E+01 0.  1.
</event>
<event>
11    1  0.8039394E-009  0.1306687E+03  0.7561462E-02  0.1118450E+00
         22   -1    0    0    0    0  0.00000000000E+00  0.00000000000E+00  0.55944931037E+02  0.55944931037E+02  0.00000000000E+00 0.  1.
         22   -1    0    0    0    0 -0.00000000000E+00 -0.00000000000E+00 -0.12365492060E+04  0.12365492060E+04  0.00000000000E+00 0. -1.
         24    2    1    2    0    0 -0.27226409128E+02  0.24334952464E+02 -0.59307015692E+03  0.59963929107E+03  0.80632506529E+02 0.  0.
         25    2    1    2    0    0  0.42105832914E+02 -0.11347544335E+02 -0.59603139251E+03  0.61057575558E+03  0.12509062521E+03 0.  0.
        -24    2    1    2    0    0 -0.14879423787E+02 -0.12987408129E+02  0.84972744691E+01  0.82279090379E+02  0.79420243126E+02 0.  0.
        -11    1    3    3    0    0  0.19232411326E+02 -0.11043919760E+02 -0.72827298367E+02  0.76129292631E+02  0.00000000000E+00 0.  1.
         12    1    3    3    0    0 -0.46458820454E+02  0.35378872224E+02 -0.52024285855E+03  0.52350999844E+03  0.00000000000E+00 0. -1.
         13    1    5    5    0    0  0.15558443058E+02 -0.51720477043E+01 -0.29024970361E+02  0.33335628572E+02  0.00000000000E+00 0. -1.
        -14    1    5    5    0    0 -0.30437866845E+02 -0.78153604246E+01  0.37522244830E+02  0.48943461807E+02  0.00000000000E+00 0.  1.
          5    1    4    4  501    0 -0.86949104700E+01  0.46800367203E+02 -0.13741644248E+03  0.14548754896E+03  0.41800000000E+01 0.  1.
         -5    1    4    4    0  501  0.50800743384E+02 -0.58147911537E+02 -0.45861495003E+03  0.46508820662E+03  0.41800000000E+01 0.  1.
</event>
<event>
11    1  0.8039394E-009  0.9559365E+03  0.7561462E-02  0.8722092E-01
         22   -1    0    0    0    0  0.00000000000E+00  0.00000000000E+00  0.49635434856E+03  0.49635434856E+03  0.00000000000E+00 0. -1.
         22   -1    0    0    0    0 -0.00000000000E+00 -0.00000000000E+00 -0.46026323247E+03  0.46026323247E+03  0.00000000000E+00 0. -1.
        -24    2    1    2    0    0  0.15204634671E+03  0.68411039230E+02  0.13443390463E+01  0.18452951790E+03  0.79064365514E+02 0.  0.
         25    2    1    2    0    0 -0.41438898104E+03 -0.18650177343E+03  0.35746721774E+00  0.47132633974E+03  0.12508897494E+03 0.  0.
         24    2    1    2    0    0  0.26234263433E+03  0.11809073420E+03  0.34389309819E+02  0.30076172338E+03  0.80659223452E+02 0.  0.
        -11    1    5    5    0    0  0.38217686359E+02  0.23431222184E+02 -0.23585712044E+02  0.50654708925E+02  0.00000000000E+00 0.  1.
         12    1    5    5    0    0  0.22412494798E+03  0.94659512020E+02  0.57975021863E+02  0.25010701446E+03  0.00000000000E+00 0. -1.
         11    1    3    3    0    0  0.64218935911E+02  0.56219482765E+02 -0.30020469062E+02  0.90476132402E+02  0.00000000000E+00 0. -1.
        -12    1    3    3    0    0  0.87827410796E+02  0.12191556465E+02  0.31364808108E+02  0.94053385499E+02  0.00000000000E+00 0.  1.
          5    1    4    4  501    0 -0.39835001189E+03 -0.14339357846E+03  0.12479404911E+02  0.42357721641E+03  0.41800000000E+01 0.  1.
         -5    1    4    4    0  501 -0.16038969151E+02 -0.43108194978E+02 -0.12121937693E+02  0.47749123334E+02  0.41800000000E+01 0.  1.
</event>
<event>
11    1  0.8039394E-009  0.1368570E+03  0.7561462E-02  0.1111120E+00
         22   -1    0    0    0    0  0.00000000000E+00  0.00000000000E+00  0.48579365624E+03  0.48579365624E+03  0.00000000000E+00 0. -1.
         22   -1    0    0    0    0 -0.00000000000E+00 -0.00000000000E+00 -0.17936047806E+03  0.17936047806E+03  0.00000000000E+00 0.  1.
        -24    2    1    2    0    0 -0.38097692210E+00 -0.56330944193E+02 -0.11153174186E+03  0.14878389040E+03  0.80771258390E+02 0.  0.
         25    2    1    2    0    0  0.11869448504E+02  0.50543121493E+02  0.64570769167E+02  0.15004308742E+03  0.12509217767E+03 0.  0.
         24    2    1    2    0    0 -0.11488471582E+02  0.57878227001E+01  0.35339415088E+03  0.36632715648E+03  0.95617340650E+02 0.  0.
        -11    1    5    5    0    0 -0.12894326165E+02  0.47661816980E+02  0.13047748976E+03  0.13950730368E+03  0.00000000000E+00 0.  1.
         12    1    5    5    0    0  0.14058545832E+01 -0.41873994280E+02  0.22291666111E+03  0.22681985280E+03  0.00000000000E+00 0. -1.
         13    1    3    3    0    0 -0.95837146213E+01 -0.36229794833E+02 -0.25282646212E+01  0.37561120079E+02  0.00000000000E+00 0. -1.
        -14    1    3    3    0    0  0.92027376992E+01 -0.20101149360E+02 -0.10900347724E+03  0.11122277032E+03  0.00000000000E+00 0.  1.
          5    1    4    4  501    0 -0.47102009300E+02 -0.40391176746E+01  0.48755561889E+02  0.68040362776E+02  0.41800000000E+01 0.  1.
         -5    1    4    4    0  501  0.58971457803E+02  0.54582239167E+02  0.15815207278E+02  0.82002724645E+02  0.41800000000E+01 0.  1.
</event>
<event>
11    1  0.8039394E-009  0.1656101E+03  0.7561462E-02  0.1081916E+00
         22   -1    0    0    0    0  0.00000000000E+00  0.00000000000E+00  0.30607820669E+03  0.30607820669E+03  0.00000000000E+00 0.  1.
         22   -1    0    0    0    0 -0.00000000000E+00 -0.00000000000E+00 -0.15710053707E+04  0.15710053707E+04  0.00000000000E+00 0. -1.
        -24    2    1    2    0    0 -0.37578937338E+02  0.23658132668E+02 -0.14924549740E+04  0.14952395945E+04  0.79672528759E+02 0.  0.
         25    2    1    2    0    0 -0.61905600351E+02 -0.81889258942E+02  0.89020448946E+02  0.18469191514E+03  0.12509320166E+03 0.  0.
         24    2    1    2    0    0  0.99484537689E+02  0.58231126274E+02  0.13850736106E+03  0.19715206771E+03  0.79978818629E+02 0.  0.
        -11    1    5    5    0    0  0.10183646925E+03  0.49235537728E+02  0.81563172192E+02  0.13945377622E+03  0.00000000000E+00 0.  1.
         12    1    5    5    0    0 -0.23519315586E+01  0.89955885464E+01  0.56944188867E+02  0.57698291492E+02  0.00000000000E+00 0. -1.
         11    1    3    3    0    0 -0.56486420361E+02  0.23394568647E+02 -0.13670990941E+04  0.13684655475E+04  0.00000000000E+00 0. -1.
        -12    1    3    3    0    0  0.18907483024E+02  0.26356402132E+00 -0.12535587990E+03  0.12677404705E+03  0.00000000000E+00 0.  1.
          5    1    4    4  501    0  0.12720420256E+02  0.26033981417E+02  0.25633556166E+02  0.38911809025E+02  0.41800000000E+01 0. -1.
         -5    1    4    4    0  501 -0.74626020607E+02 -0.10792324036E+03  0.63386892780E+02  0.14578010611E+03  0.41800000000E+01 0. -1.
</event>
<event>
11    1  0.8039394E-009  0.1631071E+03  0.7561462E-02  0.1084191E+00
         22   -1    0    0    0    0  0.00000000000E+00  0.00000000000E+00  0.27397330526E+04  0.27397330526E+04  0.00000000000E+00 0. -1.
         22   -1    0    0    0    0 -0.00000000000E+00 -0.00000000000E+00 -0.51573045566E+03  0.51573045566E+03  0.00000000000E+00 0. -1.
         24    2    1    2    0    0  0.46558284341E+02  0.81869337787E+02 -0.48375690930E+03  0.49905026976E+03  0.78486700414E+02 0.  0.
         25    2    1    2    0    0 -0.27059358585E+02  0.27960121020E+02  0.16877258572E+03  0.21364545653E+03  0.12508484381E+03 0.  0.
        -24    2    1    2    0    0 -0.19498925756E+02 -0.10982945881E+03  0.25389869205E+04  0.25427677820E+04  0.82284216762E+02 0.  0.
        -13    1    3    3    0    0 -0.20833008000E+02  0.23453009581E+02 -0.16971956640E+03  0.17259429046E+03  0.00000000000E+00 0.  1.
         14    1    3    3    0    0  0.67391292341E+02  0.58416328206E+02 -0.31403734290E+03  0.32645597930E+03  0.00000000000E+00 0. -1.
         11    1    5    5    0    0  0.24196571160E+01 -0.98815357993E+02  0.13861017446E+04  0.13896216666E+04  0.00000000000E+00 0. -1.
        -12    1    5    5    0    0 -0.21918582872E+02 -0.11014100813E+02  0.11528851759E+04  0.11531461154E+04  0.00000000000E+00 0.  1.
          5    1    4    4  501    0 -0.40694759873E+02  0.45783859652E+02  0.17855064666E+03  0.18881215826E+03  0.41800000000E+01 0. -1.
         -5    1    4    4    0  501  0.13635401287E+02 -0.17823738632E+02 -0.97780609374E+01  0.24833298267E+02  0.41800000000E+01 0. -1.
</event>
<event>
11    1  0.8039394E-009  0.1444809E+03  0.7561462E-02  0.1102655E+00
         22   -1    0    0    0    0  0.00000000000E+00  0.00000000000E+00  0.14338264742E+04  0.14338264742E+04  0.00000000000E+00 0.  1.
         22   -1    0    0    0    0 -0.00000000000E+00 -0.00000000000E+00 -0.11983271848E+04  0.11983271848E+04  0.00000000000E+00 0. -1.
         24    2    1    2    0    0  0.17517282682E+02  0.11172140691E+02 -0.10098687170E+04  0.10133878840E+04  0.81783286789E+02 0.  0.
         25    2    1    2    0    0 -0.88485885929E+02 -0.23771738010E+02 -0.15197677799E+03  0.21711579849E+03  0.12508989315E+03 0.  0.
        -24    2    1    2    0    0  0.70968603247E+02  0.12599597319E+02  0.13973447844E+04  0.14016499765E+04  0.82794430791E+02 0.  0.
        -11    1    3    3    0    0 -0.16392356430E+01 -0.21441928008E+02 -0.82770486606E+02  0.85518400495E+02  0.00000000000E+00 0.  1.
         12    1    3    3    0    0  0.19156518325E+02  0.32614068699E+02 -0.92709823038E+03  0.92786948352E+03  0.00000000000E+00 0. -1.
         11    1    5    5    0    0  0.22586932598E+02 -0.35029680296E+02  0.57332013126E+03  0.57483321141E+03  0.00000000000E+00 0. -1.
        -12    1    5    5    0    0  0.48381670649E+02  0.47629277615E+02  0.82402465310E+03  0.82681676511E+03  0.00000000000E+00 0.  1.
          5    1    4    4  501    0  0.12097812754E+02 -0.48789103405E+02 -0.39154056050E+02  0.63853317765E+02  0.41800000000E+01 0. -1.
         -5    1    4    4    0  501 -0.10058369868E+03  0.25017365395E+02 -0.11282272194E+03  0.15326248072E+03  0.41800000000E+01 0. -1.
</event>
<event>
11    1  0.8039394E-009  0.1354691E+03  0.7561462E-02  0.1112726E+00
         22   -1    0    0    0    0  0.00000000000E+00  0.00000000000E+00  0.10626199724E+04  0.10626199724E+04  0.00000000000E+00 0.  1.
         22   -1    0    0    0    0 -0.00000000000E+00 -0.00000000000E+00 -0.17298591629E+03  0.17298591629E+03  0.00000000000E+00 0.  1.
         24    2    1    2    0    0  0.53184146708E+00 -0.53177910941E+02 -0.11633699566E+03  0.14869811361E+03  0.75819914040E+02 0.  0.
         25    2    1    2    0    0  0.20461357072E+02  0.43339442700E+02  0.78278325447E+02  0.15514615287E+03  0.12508340453E+03 0.  0.
        -24    2    1    2    0    0 -0.20993198539E+02  0.98384682409E+01  0.92769272636E+03  0.93176162225E+03  0.83835650603E+02 0.  0.
        -11    1    3    3    0    0  0.33546499498E+02 -0.37716094331E+02 -0.91773776800E+02  0.10473918803E+03  0.00000000000E+00 0.  1.
         12    1    3    3    0    0 -0.33014658031E+02 -0.15461816609E+02 -0.24563218856E+02  0.43958925582E+02  0.00000000000E+00 0. -1.
         11    1    5    5    0    0 -0.39232545414E+02  0.15457094985E+02  0.23160970862E+03  0.23541701623E+03  0.00000000000E+00 0. -1.
        -12    1    5    5    0    0  0.18239346876E+02 -0.56186267439E+01  0.69608301774E+03  0.69634460601E+03  0.00000000000E+00 0.  1.
          5    1    4    4  501    0  0.23677351834E+02 -0.41942894730E+02  0.31954201875E+02  0.57951417806E+02  0.41800000000E+01 0. -1.
         -5    1    4    4    0  501 -0.32159947626E+01  0.85282337430E+02  0.46324123571E+02  0.97194735066E+02  0.41800000000E+01 0. -1.
</event>
<event>
11    1  0.8039394E-009  0.1791454E+03  0.7561462E-02  0.1070336E+00
         22   -1    0    0    0    0  0.00000000000E+00  0.00000000000E+00  0.53519802373E+03  0.53519802373E+03  0.00000000000E+00 0.  1.
         22   -1    0    0    0    0 -0.00000000000E+00 -0.00000000000E+00 -0.16437316620E+04  0.16437316620E+04  0.00000000000E+00 0.  1.
         24    2    1    2    0    0  0.15105169984E+02 -0.78833027582E+01 -0.13831821716E+04  0.13856268408E+04  0.80489189502E+02 0.  0.
         25    2    1    2    0    0 -0.97314254541E+02 -0.90319253506E+02 -0.21399466886E+03  0.28119287458E+03  0.12509229682E+03 0.  0.
        -24    2    1    2    0    0  0.82209084557E+02  0.98202556264E+02  0.48864320221E+03  0.51210997028E+03  0.84156799846E+02 0.  0.
        -13    1    3    3    0    0  0.47649481874E+02 -0.30285760268E+01 -0.94856566310E+03  0.94976653058E+03  0.00000000000E+00 0.  1.
         14    1    3    3    0    0 -0.32544311890E+02 -0.48547267315E+01 -0.43461650849E+03  0.43586031026E+03  0.00000000000E+00 0. -1.
         11    1    5    5    0    0  0.59229756507E+01 -0.15311150312E+02  0.47964147750E+02  0.50695881823E+02  0.00000000000E+00 0. -1.
        -12    1    5    5    0    0  0.76286108906E+02  0.11351370658E+03  0.44067905446E+03  0.46141408846E+03  0.00000000000E+00 0.  1.
          5    1    4    4  501    0 -0.11709682086E+03 -0.35104283601E+02 -0.12828906271E+03  0.17725555618E+03  0.41800000000E+01 0. -1.
         -5    1    4    4    0  501  0.19782566324E+02 -0.55214969904E+02 -0.85705606143E+02  0.10393731840E+03  0.41800000000E+01 0. -1.
</event>
<event>
11    1  0.8039394E-009  0.1408276E+03  0.7561462E-02  0.1106638E+00
         22   -1    0    0    0    0  0.00000000000E+00  0.00000000000E+00  0.27830677312E+03  0.27830677312E+03  0.00000000000E+00 0.  1.
         22   -1    0    0    0    0 -0.00000000000E+00 -0.00000000000E+00 -0.12698611180E+04  0.12698611180E+04  0.00000000000E+00 0.  1.
         24    2    1    2    0    0  0.13856045573E+02  0.18573591644E+01 -0.12082214495E+04  0.12117227300E+04  0.90980567111E+02 0.  0.
         25    2    1    2    0    0 -0.65427528843E+02 -0.34784031617E+02  0.78436881545E+02  0.16519413712E+03  0.12508424428E+03 0.  0.
        -24    2    1    2    0    0  0.51571483270E+02  0.32926672452E+02  0.13823022308E+03  0.17125102400E+03  0.80470708967E+02 0.  0.
        -13    1    3    3    0    0 -0.15182882818E+02  0.30137165109E+02 -0.92500722775E+03  0.92562256889E+03  0.00000000000E+00 0.  1.
         14    1    3    3    0    0  0.29038928392E+02 -0.28279805945E+02 -0.28321422172E+03  0.28610016108E+03  0.00000000000E+00 0. -1.
         11    1    5    5    0    0  0.24146226071E+02 -0.15726027440E+02  0.98716810231E+02  0.10283655379E+03  0.00000000000E+00 0. -1.
        -12    1    5    5    0    0  0.27425257198E+02  0.48652699892E+02  0.39513412850E+02  0.68414470211E+02  0.00000000000E+00 0.  1.
          5    1    4    4  501    0 -0.15511313428E+02 -0.33239646163E+01 -0.34221984390E+02  0.37950839261E+02  0.41800000000E+01 0.  1.
         -5    1    4    4    0  501 -0.49916215415E+02 -0.31460067000E+02  0.11265886593E+03  0.12724329786E+03  0.41800000000E+01 0.  1.
</event>
<event>
11    1  0.8039394E-009  0.1937078E+03  0.7561462E-02  0.1059065E+00
         22   -1    0    0    0    0  0.00000000000E+00  0.00000000000E+00  0.27731819749E+04  0.27731819749E+04  0.00000000000E+00 0.  1.
         22   -1    0    0    0    0 -0.00000000000E+00 -0.00000000000E+00 -0.74954309778E+02  0.74954309778E+02  0.00000000000E+00 0. -1.
         24    2    1    2    0    0 -0.13844489972E+03  0.52256098129E+02  0.56082375174E+02  0.17760684779E+03  0.80630450382E+02 0.  0.
         25    2    1    2    0    0  0.14933207961E+03 -0.20334074398E+02  0.69720787414E+03  0.72419620020E+03  0.12509105500E+03 0.  0.
        -24    2    1    2    0    0 -0.10887179898E+02 -0.31922023731E+02  0.19449374158E+04  0.19463332367E+04  0.65528394786E+02 0.  0.
        -11    1    3    3    0    0 -0.14805225015E+02  0.41909877840E+02  0.14822477857E+02  0.46854438404E+02  0.00000000000E+00 0.  1.
         12    1    3    3    0    0 -0.12363967470E+03  0.10346220289E+02  0.41259897317E+02  0.13075240939E+03  0.00000000000E+00 0. -1.
         11    1    5    5    0    0 -0.10685850882E+01 -0.26092232660E+02  0.25052745890E+03  0.25188480332E+03  0.00000000000E+00 0. -1.
        -12    1    5    5    0    0 -0.98185948099E+01 -0.58297910714E+01  0.16944099569E+04  0.16944484334E+04  0.00000000000E+00 0.  1.
          5    1    4    4  501    0  0.27601125575E+02  0.39232183867E+01  0.17380160773E+02  0.33117309130E+02  0.41800000000E+01 0. -1.
         -5    1    4    4    0  501  0.12173095404E+03 -0.24257292784E+02  0.67982771337E+03  0.69107889107E+03  0.41800000000E+01 0. -1.
</event>
<event>
11    1  0.8039394E-009  0.1654791E+03  0.7561462E-02  0.1082034E+00
         22   -1    0    0    0    0  0.00000000000E+00  0.00000000000E+00  0.15810564272E+04  0.15810564272E+04  0.00000000000E+00 0.  1.
         22   -1    0    0    0    0 -0.00000000000E+00 -0.00000000000E+00 -0.22687395997E+03  0.22687395997E+03  0.00000000000E+00 0. -1.
        -24    2    1    2    0    0 -0.31125337537E+02 -0.53326707445E+02 -0.19337712023E+03  0.21838103350E+03  0.80517332308E+02 0.  0.
         25    2    1    2    0    0  0.34273183603E+02  0.15075019404E+03  0.56940340390E+03  0.60313635867E+03  0.12511178469E+03 0.  0.
         24    2    1    2    0    0 -0.31478460665E+01 -0.97423486593E+02  0.97815618356E+03  0.98641299500E+03  0.81974585036E+02 0.  0.
        -13    1    5    5    0    0 -0.25683789683E+02 -0.72350715851E+02  0.86341977229E+03  0.86682638764E+03  0.00000000000E+00 0.  1.
         14    1    5    5    0    0  0.22535943617E+02 -0.25072770742E+02  0.11473641128E+03  0.11958660736E+03  0.00000000000E+00 0. -1.
         11    1    3    3    0    0 -0.45138582259E+02 -0.67688014680E+02 -0.15761769754E+03  0.17737671075E+03  0.00000000000E+00 0. -1.
        -12    1    3    3    0    0  0.14013244723E+02  0.14361307235E+02 -0.35759422693E+02  0.41004322754E+02  0.00000000000E+00 0.  1.
          5    1    4    4  501    0  0.16912625766E+02  0.16796923799E+03  0.43829201725E+03  0.46969891059E+03  0.41800000000E+01 0.  1.
         -5    1    4    4    0  501  0.17360557837E+02 -0.17219043956E+02  0.13111138664E+03  0.13343744808E+03  0.41800000000E+01 0.  1.
</event>
<event>
11    1  0.8039394E-009  0.1273318E+03  0.7561462E-02  0.1122591E+00
         22   -1    0    0    0    0  0.00000000000E+00  0.00000000000E+00  0.71403535017E+03  0.71403535017E+03  0.00000000000E+00 0.  1.
         22   -1    0    0    0    0 -0.00000000000E+00 -0.00000000000E+00 -0.10303613985E+03  0.10303613985E+03  0.00000000000E+00 0. -1.
        -24    2    1    2    0    0  0.73131810470E+00 -0.90169321158E+01 -0.50796599007E+02  0.94890634576E+02  0.79637291320E+02 0.  0.
         25    2    1    2    0    0 -0.24398813454E+02  0.95061200299E+01  0.12703657954E+03  0.18019598741E+03  0.12508650175E+03 0.  0.
         24    2    1    2    0    0  0.23667495350E+02 -0.48918791412E+00  0.53475922978E+03  0.54198486803E+03  0.84969251452E+02 0.  0.
        -13    1    5    5    0    0 -0.95061993859E+01  0.62694406363E+01  0.45740143287E+03  0.45754316136E+03  0.00000000000E+00 0.  1.
         14    1    5    5    0    0  0.33173694736E+02 -0.67586285505E+01  0.77357796909E+02  0.84441706667E+02  0.00000000000E+00 0. -1.
         13    1    3    3    0    0  0.39689612007E+02 -0.41827708780E+01 -0.33010172458E+02  0.51792203653E+02  0.00000000000E+00 0. -1.
        -14    1    3    3    0    0 -0.38958293903E+02 -0.48341612378E+01 -0.17786426549E+02  0.43098430923E+02  0.00000000000E+00 0.  1.
          5    1    4    4  501    0 -0.60638461812E+02  0.12430226630E+02  0.12941959658E+03  0.14352155923E+03  0.41800000000E+01 0.  1.
         -5    1    4    4    0  501  0.36239648357E+02 -0.29241065997E+01 -0.23830170328E+01  0.36674428184E+02  0.41800000000E+01 0.  1.
</event>
<event>
11    1  0.8039394E-009  0.1554334E+03  0.7561462E-02  0.1091453E+00
         22   -1    0    0    0    0  0.00000000000E+00  0.00000000000E+00  0.26425937257E+04  0.26425937257E+04  0.00000000000E+00 0.  1.
         22   -1    0    0    0    0 -0.00000000000E+00 -0.00000000000E+00 -0.16911195984E+03  0.16911195984E+03  0.00000000000E+00 0.  1.
         24    2    1    2    0    0  0.48396367001E+02 -0.86636701821E+02 -0.12909274174E+03  0.18155061444E+03  0.80296719694E+02 0.  0.
         25    2    1    2    0    0 -0.96558191402E+00  0.62832961630E+01  0.31189695561E+03  0.33610893628E+03  0.12509633874E+03 0.  0.
        -24    2    1    2    0    0 -0.47430785087E+02  0.80353405658E+02  0.22906775520E+04  0.22940461348E+04  0.82083325422E+02 0.  0.
        -13    1    3    3    0    0  0.50454220749E+02 -0.10104170698E+03 -0.11716993961E+03  0.16273859312E+03  0.00000000000E+00 0.  1.
         14    1    3    3    0    0 -0.20578537472E+01  0.14405005162E+02 -0.11922802121E+02  0.18812021321E+02  0.00000000000E+00 0. -1.
         13    1    5    5    0    0  0.10051452808E+02  0.35140004420E+02  0.33238318343E+03  0.33438665081E+03  0.00000000000E+00 0. -1.
        -14    1    5    5    0    0 -0.57482237895E+02  0.45213401238E+02  0.19582943686E+04  0.19596594840E+04  0.00000000000E+00 0.  1.
          5    1    4    4  501    0  0.28720964168E+02 -0.49092271391E+02  0.19698849386E+03  0.20507775112E+03  0.41800000000E+01 0.  1.
         -5    1    4    4    0  501 -0.29686546082E+02  0.55375567554E+02  0.11490846175E+03  0.13103118515E+03  0.41800000000E+01 0.  1.
</event>
<event>
11    1  0.8039394E-009  0.1689741E+03  0.7561462E-02  0.1078928E+00
         22   -1    0    0    0    0  0.00000000000E+00  0.00000000000E+00  0.32163739697E+03  0.32163739697E+03  0.00000000000E+00 0.  1.
         22   -1    0    0    0    0 -0.00000000000E+00 -0.00000000000E+00 -0.46892548538E+03  0.46892548538E+03  0.00000000000E+00 0.  1.
         24    2    1    2    0    0 -0.10240518787E+03 -0.52966211995E+02 -0.33485342432E+03  0.36317115313E+03  0.80462591136E+02 0.  0.
         25    2    1    2    0    0  0.99104128809E+02  0.40010967302E+02 -0.54388615657E+02  0.17328601034E+03  0.12508962393E+03 0.  0.
        -24    2    1    2    0    0  0.33010590644E+01  0.12955244693E+02  0.24195395157E+03  0.25410571888E+03  0.76480496426E+02 0.  0.
        -13    1    3    3    0    0 -0.10524677065E+03 -0.23823453934E+02 -0.29171461659E+03  0.31103353070E+03  0.00000000000E+00 0.  1.
         14    1    3    3    0    0  0.28415827800E+01 -0.29142758061E+02 -0.43138807731E+02  0.52137622428E+02  0.00000000000E+00 0. -1.
         11    1    5    5    0    0 -0.27844497395E+01  0.28933212364E+02  0.31133824286E+02  0.42593414429E+02  0.00000000000E+00 0. -1.
        -12    1    5    5    0    0  0.60855088039E+01 -0.15977967670E+02  0.21082012728E+03  0.21151230445E+03  0.00000000000E+00 0.  1.
          5    1    4    4  501    0  0.63743416969E+02  0.26594853984E+02  0.33968997180E+02  0.77083556188E+02  0.41800000000E+01 0.  1.
         -5    1    4    4    0  501  0.35360711841E+02  0.13416113318E+02 -0.88357612837E+02  0.96202454151E+02  0.41800000000E+01 0.  1.
</event>
<event>
11    1  0.8039394E-009  0.1304327E+03  0.7561462E-02  0.1118738E+00
         22   -1    0    0    0    0  0.00000000000E+00  0.00000000000E+00  0.80800234560E+02  0.80800234560E+02  0.00000000000E+00 0. -1.
         22   -1    0    0    0    0 -0.00000000000E+00 -0.00000000000E+00 -0.12771050685E+04  0.12771050685E+04  0.00000000000E+00 0. -1.
        -24    2    1    2    0    0 -0.11515813934E+02 -0.31225434012E+02 -0.86547569809E+03  0.86973338004E+03  0.79248512106E+02 0.  0.
         25    2    1    2    0    0  0.36085358782E+02  0.48682666807E+02 -0.36962483942E+03  0.39489498209E+03  0.12508944718E+03 0.  0.
         24    2    1    2    0    0 -0.24569544848E+02 -0.17457232795E+02  0.38795703612E+02  0.93276940890E+02  0.79291005620E+02 0.  0.
        -13    1    5    5    0    0  0.59521816017E+01 -0.42099544452E+02  0.76785393325E+01  0.43206018969E+02  0.00000000000E+00 0.  1.
         14    1    5    5    0    0 -0.30521726450E+02  0.24642311657E+02  0.31117164279E+02  0.50070921921E+02  0.00000000000E+00 0. -1.
         11    1    3    3    0    0 -0.13737067054E+02  0.46174947744E+01 -0.71063603146E+03  0.71078379095E+03  0.00000000000E+00 0. -1.
        -12    1    3    3    0    0  0.22212531203E+01 -0.35842928787E+02 -0.15483966663E+03  0.15894958909E+03  0.00000000000E+00 0.  1.
          5    1    4    4  501    0 -0.12324468138E+02 -0.37377749662E+02 -0.12274663542E+03  0.12896975456E+03  0.41800000000E+01 0. -1.
         -5    1    4    4    0  501  0.48409826919E+02  0.86060416469E+02 -0.24687820400E+03  0.26592522753E+03  0.41800000000E+01 0. -1.
</event>
<event>
11    1  0.8039394E-009  0.1331502E+03  0.7561462E-02  0.1115458E+00
         22   -1    0    0    0    0  0.00000000000E+00  0.00000000000E+00  0.13456158842E+04  0.13456158842E+04  0.00000000000E+00 0. -1.
         22   -1    0    0    0    0 -0.00000000000E+00 -0.00000000000E+00 -0.29407744512E+03  0.29407744512E+03  0.00000000000E+00 0.  1.
         24    2    1    2    0    0  0.12322414705E+02 -0.21804325249E+02 -0.26438012133E+03  0.27743659901E+03  0.80292885199E+02 0.  0.
         25    2    1    2    0    0 -0.22401560706E+02  0.64247415591E+02  0.21737536478E+03  0.25986308120E+03  0.12508881414E+03 0.  0.
        -24    2    1    2    0    0  0.10079146001E+02 -0.42443090341E+02  0.10985431956E+04  0.11023936491E+04  0.81065404849E+02 0.  0.
        -11    1    3    3    0    0 -0.19290182481E+02 -0.48799270570E+01 -0.21753384216E+03  0.21844197699E+03  0.00000000000E+00 0.  1.
         12    1    3    3    0    0  0.31612597186E+02 -0.16924398192E+02 -0.46846279168E+02  0.58994622017E+02  0.00000000000E+00 0. -1.
         13    1    5    5    0    0  0.18267878182E+02 -0.64985175449E+02  0.86131377756E+03  0.86395498251E+03  0.00000000000E+00 0. -1.
        -14    1    5    5    0    0 -0.81887321806E+01  0.22542085108E+02  0.23722941808E+03  0.23843866661E+03  0.00000000000E+00 0.  1.
          5    1    4    4  501    0 -0.26778947699E+02  0.33183770833E+02  0.22354972450E+03  0.22761859856E+03  0.41800000000E+01 0. -1.
         -5    1    4    4    0  501  0.43773869924E+01  0.31063644757E+02 -0.61743597173E+01  0.32244482635E+02  0.41800000000E+01 0. -1.
</event>
<event>
11    1  0.8039394E-009  0.1406226E+03  0.7561462E-02  0.1106865E+00
         22   -1    0    0    0    0  0.00000000000E+00  0.00000000000E+00  0.63894443588E+03  0.63894443588E+03  0.00000000000E+00 0.  1.
         22   -1    0    0    0    0 -0.00000000000E+00 -0.00000000000E+00 -0.18460683469E+03  0.18460683469E+03  0.00000000000E+00 0. -1.
        -24    2    1    2    0    0 -0.18397339842E+02  0.52647460620E+02 -0.13631034485E+03  0.16749209779E+03  0.79767634318E+02 0.  0.
         25    2    1    2    0    0  0.68321352288E+02 -0.77659370832E+02  0.22497160815E+03  0.27741519599E+03  0.12509269138E+03 0.  0.
         24    2    1    2    0    0 -0.49924012446E+02  0.25011910212E+02  0.36567633789E+03  0.37864397679E+03  0.80833621657E+02 0.  0.
        -11    1    5    5    0    0 -0.34751767416E+02 -0.82588754832E+01  0.30988610780E+03  0.31193796525E+03  0.00000000000E+00 0.  1.
         12    1    5    5    0    0 -0.15172245030E+02  0.33270785695E+02  0.55790230098E+02  0.66706011531E+02  0.00000000000E+00 0. -1.
         11    1    3    3    0    0  0.79579285934E+01 -0.11389442110E+02 -0.70855236320E+02  0.72204657281E+02  0.00000000000E+00 0. -1.
        -12    1    3    3    0    0 -0.26355268435E+02  0.64036902730E+02 -0.65455108533E+02  0.95287440508E+02  0.00000000000E+00 0.  1.
          5    1    4    4  501    0  0.20837544134E+02  0.27286197172E+02  0.10713010628E+03  0.11257473905E+03  0.41800000000E+01 0.  1.
         -5    1    4    4    0  501  0.47483808154E+02 -0.10494556800E+03  0.11784150187E+03  0.16484045694E+03  0.41800000000E+01 0.  1.
</event>
<event>
11    1  0.8039394E-009  0.1666090E+03  0.7561462E-02  0.1081021E+00
         22   -1    0    0    0    0  0.00000000000E+00  0.00000000000E+00  0.11993673027E+04  0.11993673027E+04  0.00000000000E+00 0.  1.
         22   -1    0    0    0    0 -0.00000000000E+00 -0.00000000000E+00 -0.10886692427E+04  0.10886692427E+04  0.00000000000E+00 0.  1.
        -24    2    1    2    0    0 -0.35121699384E+01  0.10467976170E+03 -0.64833692700E+03  0.66164710394E+03  0.80411015421E+02 0.  0.
         25    2    1    2    0    0  0.16493389615E+02 -0.12380554892E+03 -0.41412217926E+03  0.45027167111E+03  0.12509017787E+03 0.  0.
         24    2    1    2    0    0 -0.12981219676E+02  0.19125787225E+02  0.11731571663E+04  0.11761177704E+04  0.80130925638E+02 0.  0.
        -13    1    5    5    0    0 -0.16285057603E+02  0.49270436448E+02  0.83138462829E+03  0.83300250849E+03  0.00000000000E+00 0.  1.
         14    1    5    5    0    0  0.33038379262E+01 -0.30144649223E+02  0.34177253799E+03  0.34311526189E+03  0.00000000000E+00 0. -1.
         11    1    3    3    0    0  0.29185315775E+02  0.20436745445E+02 -0.10585904226E+03  0.11169413614E+03  0.00000000000E+00 0. -1.
        -12    1    3    3    0    0 -0.32697485713E+02  0.84243016252E+02 -0.54247788474E+03  0.54995296780E+03  0.00000000000E+00 0.  1.
          5    1    4    4  501    0 -0.38937750914E+02 -0.74492340776E+02 -0.31700811936E+03  0.32798914223E+03  0.41800000000E+01 0.  1.
         -5    1    4    4    0  501  0.55431140529E+02 -0.49313208146E+02 -0.97114059906E+02  0.12228252888E+03  0.41800000000E+01 0.  1.
</event>
<event>
11    1  0.1483332E-008  0.1564447E+03  0.7561462E-02  0.1090470E+00
         22   -1    0    0    0    0  0.00000000000E+00  0.00000000000E+00  0.69309112306E+03  0.69309112306E+03  0.00000000000E+00 0.  1.
         22   -1    0    0    0    0 -0.00000000000E+00 -0.00000000000E+00 -0.13770308398E+04  0.13770308398E+04  0.00000000000E+00 0. -1.
         24    2    1    2    0    0  0.66530506349E+01  0.24336987520E+02 -0.10045106196E+04  0.10080204153E+04  0.80168701921E+02 0.  0.
         25    2    1    2    0    0 -0.93560977176E+02 -0.59397381419E+02 -0.34570595080E+03  0.38398065454E+03  0.12508730260E+03 0.  0.
        -24    2    1    2    0    0  0.86907926541E+02  0.35060393899E+02  0.66627685363E+03  0.67812089304E+03  0.84503733458E+02 0.  0.
        -11    1    3    3    0    0 -0.15431744573E+02  0.17199282601E+02 -0.81352556051E+02  0.84570635794E+02  0.00000000000E+00 0.  1.
         12    1    3    3    0    0  0.22084795208E+02  0.71377049191E+01 -0.92315806350E+03  0.92344977948E+03  0.00000000000E+00 0. -1.
         11    1    5    5    0    0  0.20975266773E+02 -0.38015783044E+01  0.27594288953E+02  0.34869163979E+02  0.00000000000E+00 0. -1.
        -12    1    5    5    0    0  0.65932659768E+02  0.38861972204E+02  0.63868256468E+03  0.64325172906E+03  0.00000000000E+00 0.  1.
          5    1    4    4  501    0  0.26561215454E+02 -0.34940125618E+02 -0.80467776868E+02  0.91754269975E+02  0.41800000000E+01 0. -1.
         -5    1    4    4    0  501 -0.12012219263E+03 -0.24457255801E+02 -0.26523817393E+03  0.29222638456E+03  0.41800000000E+01 0. -1.
</event>
<event>
11    1  0.8039394E-009  0.1508043E+03  0.7561462E-02  0.1096060E+00
         22   -1    0    0    0    0  0.00000000000E+00  0.00000000000E+00  0.42906608290E+03  0.42906608290E+03  0.00000000000E+00 0.  1.
         22   -1    0    0    0    0 -0.00000000000E+00 -0.00000000000E+00 -0.40763989817E+03  0.40763989817E+03  0.00000000000E+00 0.  1.
         24    2    1    2    0    0 -0.81273588327E+00  0.13553454095E+02 -0.35994220389E+03  0.36961994035E+03  0.82922575369E+02 0.  0.
         25    2    1    2    0    0 -0.83274980931E+02 -0.17131543375E+02  0.18681992122E+03  0.24036890515E+03  0.12508922964E+03 0.  0.
        -24    2    1    2    0    0  0.84087716815E+02  0.35780892796E+01  0.19454846739E+03  0.22671713557E+03  0.80423917791E+02 0.  0.
        -13    1    3    3    0    0  0.17514014555E+02  0.23302510318E+02 -0.33858185258E+03  0.33983439878E+03  0.00000000000E+00 0.  1.
         14    1    3    3    0    0 -0.18326750439E+02 -0.97490562228E+01 -0.21360351304E+02  0.29785541572E+02  0.00000000000E+00 0. -1.
         11    1    5    5    0    0  0.21674209100E+02  0.50662002274E+01  0.14585046806E+03  0.14753913636E+03  0.00000000000E+00 0. -1.
        -12    1    5    5    0    0  0.62413507715E+02 -0.14881109477E+01  0.48697999337E+02  0.79177999210E+02  0.00000000000E+00 0.  1.
          5    1    4    4  501    0 -0.71785045586E+02 -0.67322977306E+02  0.13578986744E+03  0.16775528768E+03  0.41800000000E+01 0.  1.
         -5    1    4    4    0  501 -0.11489935345E+02  0.50191433932E+02  0.51030053777E+02  0.72613617475E+02  0.41800000000E+01 0.  1.
</event>
<event>
11    1  0.8039394E-009  0.1420902E+03  0.7561462E-02  0.1105247E+00
         22   -1    0    0    0    0  0.00000000000E+00  0.00000000000E+00  0.13002384122E+04  0.13002384122E+04  0.00000000000E+00 0. -1.
         22   -1    0    0    0    0 -0.00000000000E+00 -0.00000000000E+00 -0.62271772890E+03  0.62271772890E+03  0.00000000000E+00 0.  1.
         24    2    1    2    0    0  0.64294543379E+02 -0.13261142690E+02 -0.55220462519E+03  0.56169790551E+03  0.79151391366E+02 0.  0.
         25    2    1    2    0    0 -0.10431248212E+03  0.19802949512E+02  0.41552557171E+02  0.16925593017E+03  0.12509078366E+03 0.  0.
        -24    2    1    2    0    0  0.40017938739E+02 -0.65418068225E+01  0.11881727513E+04  0.11920023054E+04  0.86433665347E+02 0.  0.
        -11    1    3    3    0    0  0.38024354338E+02  0.30620305557E+02 -0.33589014445E+03  0.33941956893E+03  0.00000000000E+00 0.  1.
         12    1    3    3    0    0  0.26270189041E+02 -0.43881448247E+02 -0.21631448074E+03  0.22227833658E+03  0.00000000000E+00 0. -1.
         13    1    5    5    0    0  0.29851598359E+02  0.13825131223E+02  0.11123484745E+04  0.11128348399E+04  0.00000000000E+00 0. -1.
        -14    1    5    5    0    0  0.10166340381E+02 -0.20366938046E+02  0.75824276794E+02  0.79167465499E+02  0.00000000000E+00 0.  1.
          5    1    4    4  501    0 -0.49340765005E+02  0.66304457816E+02  0.49926206371E+02  0.96648283483E+02  0.41800000000E+01 0.  1.
         -5    1    4    4    0  501 -0.54971717114E+02 -0.46501508304E+02 -0.83736492009E+01  0.72607646690E+02  0.41800000000E+01 0.  1.
</event>
<event>
11    1  0.8039394E-009  0.1501993E+03  0.7561462E-02  0.1096675E+00
         22   -1    0    0    0    0  0.00000000000E+00  0.00000000000E+00  0.38280460636E+04  0.38280460636E+04  0.00000000000E+00 0.  1.
         22   -1    0    0    0    0 -0.00000000000E+00 -0.00000000000E+00 -0.16953869193E+03  0.16953869193E+03  0.00000000000E+00 0.  1.
         24    2    1    2    0    0 -0.60121840406E+02 -0.60019915244E+02 -0.11874091891E+03  0.16589782625E+03  0.78775992601E+02 0.  0.
         25    2    1    2    0    0  0.59103444404E+02  0.37238118502E+02  0.16621935485E+03  0.21944631754E+03  0.12509163740E+03 0.  0.
        -24    2    1    2    0    0  0.10183960017E+01  0.22781796742E+02  0.36110289358E+04  0.36122406118E+04  0.90731554510E+02 0.  0.
        -11    1    3    3    0    0 -0.13221877353E+02 -0.65761067954E+02 -0.56162432441E+02  0.87484598170E+02  0.00000000000E+00 0.  1.
         12    1    3    3    0    0 -0.46899963052E+02  0.57411527108E+01 -0.62578486466E+02  0.78413228075E+02  0.00000000000E+00 0. -1.
         11    1    5    5    0    0  0.53207361414E+01  0.27956035598E+02  0.33550093603E+03  0.33670569973E+03  0.00000000000E+00 0. -1.
        -12    1    5    5    0    0 -0.43023401397E+01 -0.51742388559E+01  0.32755279998E+04  0.32755349121E+04  0.00000000000E+00 0.  1.
          5    1    4    4  501    0  0.73707798118E+02  0.66385480273E+02  0.15620288263E+03  0.18508561380E+03  0.41800000000E+01 0. -1.
         -5    1    4    4    0  501 -0.14604353714E+02 -0.29147361771E+02  0.10016472213E+02  0.34360703736E+02  0.41800000000E+01 0. -1.
</event>
<event>
11    1  0.8039394E-009  0.1431801E+03  0.7561462E-02  0.1104058E+00
         22   -1    0    0    0    0  0.00000000000E+00  0.00000000000E+00  0.83893641181E+03  0.83893641181E+03  0.00000000000E+00 0. -1.
         22   -1    0    0    0    0 -0.00000000000E+00 -0.00000000000E+00 -0.67869522206E+03  0.67869522206E+03  0.00000000000E+00 0.  1.
        -24    2    1    2    0    0 -0.43095324777E+02  0.74100798811E+01 -0.63631179609E+03  0.64281172175E+03  0.80013070685E+02 0.  0.
         25    2    1    2    0    0  0.10809505241E+03 -0.45720485350E+01  0.16082788011E+03  0.23069399095E+03  0.12509462999E+03 0.  0.
         24    2    1    2    0    0 -0.64999727636E+02 -0.28380313460E+01  0.63572510573E+03  0.64412592117E+03  0.80738920257E+02 0.  0.
        -13    1    5    5    0    0  0.83243159654E+01  0.18593836210E+00  0.31507985137E+03  0.31518985000E+03  0.00000000000E+00 0.  1.
         14    1    5    5    0    0 -0.73324043602E+02 -0.30239697081E+01  0.32064525437E+03  0.32893607116E+03  0.00000000000E+00 0. -1.
         13    1    3    3    0    0  0.51939174744E+01  0.34354689697E+02 -0.29668260419E+03  0.29871020925E+03  0.00000000000E+00 0. -1.
        -14    1    3    3    0    0 -0.48289242251E+02 -0.26944609816E+02 -0.33962919190E+03  0.34410151250E+03  0.00000000000E+00 0.  1.
          5    1    4    4  501    0  0.21905779851E+02  0.55565355347E+02  0.65524824750E+02  0.88760052750E+02  0.41800000000E+01 0. -1.
         -5    1    4    4    0  501  0.86189272562E+02 -0.60137403882E+02  0.95303055363E+02  0.14193393820E+03  0.41800000000E+01 0. -1.
</event>
<event>
11    1  0.8039394E-009  0.1387017E+03  0.7561462E-02  0.1109017E+00
         22   -1    0    0    0    0  0.00000000000E+00  0.00000000000E+00  0.48538555990E+03  0.48538555990E+03  0.00000000000E+00 0. -1.
         22   -1    0    0    0    0 -0.00000000000E+00 -0.00000000000E+00 -0.40250409852E+03  0.40250409852E+03  0.00000000000E+00 0.  1.
        -24    2    1    2    0    0  0.50498779225E+02  0.28936617538E+02 -0.31404859335E+03  0.32917478501E+03  0.79637086618E+02 0.  0.
         25    2    1    2    0    0 -0.80019129009E+02 -0.10089316278E+02 -0.36348947448E+01  0.14892813439E+03  0.12514600050E+03 0.  0.
         24    2    1    2    0    0  0.29520349783E+02 -0.18847301260E+02  0.40056494947E+03  0.40978673902E+03  0.79033036892E+02 0.  0.
        -13    1    5    5    0    0  0.19093359995E+02 -0.91153523550E+00  0.16761930221E+02  0.25423406481E+02  0.00000000000E+00 0.  1.
         14    1    5    5    0    0  0.10426989788E+02 -0.17935766025E+02  0.38380301925E+03  0.38436333254E+03  0.00000000000E+00 0. -1.
         11    1    3    3    0    0  0.13451156919E+01 -0.24660538829E+02 -0.10403048184E+03  0.10692189983E+03  0.00000000000E+00 0. -1.
        -12    1    3    3    0    0  0.49153663533E+02  0.53597156367E+02 -0.21001811151E+03  0.22225288518E+03  0.00000000000E+00 0.  1.
          5    1    4    4  501    0  0.11632040995E+02 -0.63705430143E+01  0.43533052646E+02  0.45699970117E+02  0.41800000000E+01 0.  1.
         -5    1    4    4    0  501 -0.91651170004E+02 -0.37187732637E+01 -0.47167947391E+02  0.10322816427E+03  0.41800000000E+01 0.  1.
</event>
<event>
11    1  0.8039394E-009  0.1870817E+03  0.7561462E-02  0.1064054E+00
         22   -1    0    0    0    0  0.00000000000E+00  0.00000000000E+00  0.13259312455E+04  0.13259312455E+04  0.00000000000E+00 0. -1.
         22   -1    0    0    0    0 -0.00000000000E+00 -0.00000000000E+00 -0.42708393283E+03  0.42708393283E+03  0.00000000000E+00 0. -1.
        -24    2    1    2    0    0  0.24733989793E+02 -0.13710573762E+03 -0.39358885185E+03  0.42553080979E+03  0.82185961341E+02 0.  0.
         25    2    1    2    0    0 -0.72820899404E+01  0.13277428081E+03  0.53037313908E+03  0.56091496142E+03  0.12509152175E+03 0.  0.
         24    2    1    2    0    0 -0.17451899853E+02  0.43314568084E+01  0.76206302547E+03  0.76656940714E+03  0.81026359035E+02 0.  0.
        -11    1    5    5    0    0  0.12667260141E+02  0.30536454457E+02  0.53521875685E+03  0.53623880148E+03  0.00000000000E+00 0.  1.
         12    1    5    5    0    0 -0.30119159993E+02 -0.26204997649E+02  0.22684426862E+03  0.23033060567E+03  0.00000000000E+00 0. -1.
         13    1    3    3    0    0  0.82227516226E+00 -0.10625051139E+03 -0.35531428577E+03  0.37086127997E+03  0.00000000000E+00 0. -1.
        -14    1    3    3    0    0  0.23911714631E+02 -0.30855226232E+02 -0.38274566074E+02  0.54669529818E+02  0.00000000000E+00 0.  1.
          5    1    4    4  501    0  0.45881979860E+02  0.11841705568E+03  0.38349798356E+03  0.40399991453E+03  0.41800000000E+01 0.  1.
         -5    1    4    4    0  501 -0.53164069800E+02  0.14357225138E+02  0.14687515552E+03  0.15691504689E+03  0.41800000000E+01 0.  1.
</event>
<event>
11    1  0.8039394E-009  0.1860454E+03  0.7561462E-02  0.1064855E+00
         22   -1    0    0    0    0  0.00000000000E+00  0.00000000000E+00  0.16072598372E+03  0.16072598372E+03  0.00000000000E+00 0. -1.
         22   -1    0    0    0    0 -0.00000000000E+00 -0.00000000000E+00 -0.20861196399E+04  0.20861196399E+04  0.00000000000E+00 0.  1.
         24    2    1    2    0    0 -0.13026196869E+03  0.44125904333E+02 -0.18863418892E+04  0.18936013359E+04  0.92331038812E+02 0.  0.
         25    2    1    2    0    0  0.14663021477E+03 -0.31205937560E+01 -0.12448674115E+03  0.22946633865E+03  0.12509074251E+03 0.  0.
        -24    2    1    2    0    0 -0.16368246081E+02 -0.41005310577E+02  0.85434974114E+02  0.12377794906E+03  0.77926188767E+02 0.  0.
        -11    1    3    3    0    0 -0.27943073560E+02  0.42644303260E+02 -0.10134891670E+04  0.10147707345E+04  0.00000000000E+00 0.  1.
         12    1    3    3    0    0 -0.10231889513E+03  0.14816010736E+01 -0.87285272216E+03  0.87883060144E+03  0.00000000000E+00 0. -1.
         13    1    5    5    0    0 -0.27894301496E+02  0.31995009187E+01  0.70224617906E+02  0.75629530093E+02  0.00000000000E+00 0. -1.
        -14    1    5    5    0    0  0.11526055415E+02 -0.44204811496E+02  0.15210356208E+02  0.48148418965E+02  0.00000000000E+00 0.  1.
          5    1    4    4  501    0  0.16233542907E+03  0.55039360778E+01 -0.13224613518E+03  0.20949844275E+03  0.41800000000E+01 0. -1.
         -5    1    4    4    0  501 -0.15705214298E+02 -0.86245298338E+01  0.77593940298E+01  0.19967895901E+02  0.41800000000E+01 0. -1.
</event>
<event>
11    1  0.8039394E-009  0.1334830E+03  0.7561462E-02  0.1115062E+00
         22   -1    0    0    0    0  0.00000000000E+00  0.00000000000E+00  0.51951288180E+03  0.51951288180E+03  0.00000000000E+00 0. -1.
         22   -1    0    0    0    0 -0.00000000000E+00 -0.00000000000E+00 -0.87619141645E+03  0.87619141645E+03  0.00000000000E+00 0. -1.
        -24    2    1    2    0    0 -0.37533826041E+02  0.14813246852E+01 -0.48531753608E+03  0.49305974195E+03  0.78509973152E+02 0.  0.
         25    2    1    2    0    0  0.36662780033E+02  0.45113226149E+02 -0.37031135211E+03  0.39516810441E+03  0.12509184875E+03 0.  0.
         24    2    1    2    0    0  0.87104600809E+00 -0.46594550834E+02  0.49895035354E+03  0.50747645191E+03  0.80056748957E+02 0.  0.
        -13    1    5    5    0    0 -0.13211837717E+02  0.19130482922E+02  0.85809305363E+02  0.88903120977E+02  0.00000000000E+00 0.  1.
         14    1    5    5    0    0  0.14082883725E+02 -0.65725033756E+02  0.41314104818E+03  0.41857333093E+03  0.00000000000E+00 0. -1.
         11    1    3    3    0    0 -0.14925333856E+02  0.21365919282E+02 -0.42348434315E+03  0.42428558424E+03  0.00000000000E+00 0. -1.
        -12    1    3    3    0    0 -0.22608492185E+02 -0.19884594596E+02 -0.61833192922E+02  0.68774157705E+02  0.00000000000E+00 0.  1.
          5    1    4    4  501    0  0.51120417795E+02 -0.10058554514E+02 -0.59749438011E+02  0.79384755319E+02  0.41800000000E+01 0.  1.
         -5    1    4    4    0  501 -0.14457637762E+02  0.55171780663E+02 -0.31056191410E+03  0.31578334909E+03  0.41800000000E+01 0.  1.
</event>
<event>
11    1  0.8039394E-009  0.1555181E+03  0.7561462E-02  0.1091370E+00
         22   -1    0    0    0    0  0.00000000000E+00  0.00000000000E+00  0.19515923900E+04  0.19515923900E+04  0.00000000000E+00 0. -1.
         22   -1    0    0    0    0 -0.00000000000E+00 -0.00000000000E+00 -0.14995652438E+03  0.14995652438E+03  0.00000000000E+00 0. -1.
        -24    2    1    2    0    0 -0.83003033337E+02  0.38052134963E+02 -0.11068799433E+03  0.16292949783E+03  0.77179794361E+02 0.  0.
         25    2    1    2    0    0  0.11630505907E+03 -0.33588629484E+02  0.64192710249E+03  0.66511111384E+03  0.12508927228E+03 0.  0.
         24    2    1    2    0    0 -0.33302025733E+02 -0.44635054785E+01  0.12703967575E+04  0.12735083028E+04  0.82380385401E+02 0.  0.
        -11    1    5    5    0    0 -0.15780636787E+02  0.22898963660E+01  0.41350016532E+02  0.44318122590E+02  0.00000000000E+00 0.  1.
         12    1    5    5    0    0 -0.17521388946E+02 -0.67534018444E+01  0.12290467410E+04  0.12291901802E+04  0.00000000000E+00 0. -1.
         13    1    3    3    0    0 -0.96690086723E+02  0.31037406934E+02 -0.82577689047E+02  0.13088685277E+03  0.00000000000E+00 0. -1.
        -14    1    3    3    0    0  0.13687053386E+02  0.70147280286E+01 -0.28110305281E+02  0.32042645064E+02  0.00000000000E+00 0.  1.
          5    1    4    4  501    0  0.32219838743E+02 -0.17550001963E+02  0.48418108665E+03  0.48558718851E+03  0.41800000000E+01 0.  1.
         -5    1    4    4    0  501  0.84085220327E+02 -0.16038627522E+02  0.15774601585E+03  0.17952392533E+03  0.41800000000E+01 0.  1.
</event>
<event>
11    1  0.8039394E-009  0.1385156E+03  0.7561462E-02  0.1109227E+00
         22   -1    0    0    0    0  0.00000000000E+00  0.00000000000E+00  0.71656889776E+03  0.71656889776E+03  0.00000000000E+00 0. -1.
         22   -1    0    0    0    0 -0.00000000000E+00 -0.00000000000E+00 -0.12987164122E+03  0.12987164122E+03  0.00000000000E+00 0. -1.
         24    2    1    2    0    0 -0.56392166991E+02 -0.16734985065E+02 -0.85619164073E+02  0.13110354759E+03  0.79983515239E+02 0.  0.
         25    2    1    2    0    0  0.57405627921E+02  0.44188966890E+02  0.29341665464E+03  0.32709900621E+03  0.12510937506E+03 0.  0.
        -24    2    1    2    0    0 -0.10134609307E+01 -0.27453981825E+02  0.37889976597E+03  0.38823798518E+03  0.80055932128E+02 0.  0.
        -13    1    3    3    0    0  0.20995976258E-01 -0.99618197548E+01  0.13545743582E+02  0.16814442092E+02  0.00000000000E+00 0.  1.
         14    1    3    3    0    0 -0.56413162967E+02 -0.67731653100E+01 -0.99164907655E+02  0.11428910549E+03  0.00000000000E+00 0. -1.
         11    1    5    5    0    0  0.54602220103E+01  0.97012377081E+01  0.30561665749E+03  0.30581934108E+03  0.00000000000E+00 0. -1.
        -12    1    5    5    0    0 -0.64736829409E+01 -0.37155219533E+02  0.73283108472E+02  0.82418644109E+02  0.00000000000E+00 0.  1.
          5    1    4    4  501    0  0.82806930372E+02  0.34878669222E+02  0.11209662794E+03  0.14372416526E+03  0.41800000000E+01 0.  1.
         -5    1    4    4    0  501 -0.25401302451E+02  0.93102976679E+01  0.18132002670E+03  0.18337484094E+03  0.41800000000E+01 0.  1.
</event>
<event>
11    1  0.8039394E-009  0.1380408E+03  0.7561462E-02  0.1109766E+00
         22   -1    0    0    0    0  0.00000000000E+00  0.00000000000E+00  0.28879547187E+03  0.28879547187E+03  0.00000000000E+00 0.  1.
         22   -1    0    0    0    0 -0.00000000000E+00 -0.00000000000E+00 -0.12348372273E+04  0.12348372273E+04  0.00000000000E+00 0. -1.
        -24    2    1    2    0    0  0.39822421167E+01 -0.12059273130E+02 -0.11782244806E+04  0.11813084439E+04  0.84353000806E+02 0.  0.
         25    2    1    2    0    0 -0.48425243821E+02 -0.27627909293E+02  0.72935905027E+02  0.15516280863E+03  0.12509014880E+03 0.  0.
         24    2    1    2    0    0  0.44443001705E+02  0.39687182423E+02  0.15924682007E+03  0.18716144666E+03  0.78227901464E+02 0.  0.
        -13    1    5    5    0    0  0.49506834693E+02  0.57781255559E+02  0.14437620931E+03  0.16319954041E+03  0.00000000000E+00 0.  1.
         14    1    5    5    0    0 -0.50638329878E+01 -0.18094073136E+02  0.14870610759E+02  0.23961906258E+02  0.00000000000E+00 0. -1.
         11    1    3    3    0    0  0.83919111553E+01 -0.18487186480E+01 -0.11594858476E+04  0.11595176897E+04  0.00000000000E+00 0. -1.
        -12    1    3    3    0    0 -0.44096690386E+01 -0.10210554482E+02 -0.18738632927E+02  0.21790754182E+02  0.00000000000E+00 0.  1.
          5    1    4    4  501    0 -0.42865771885E+02 -0.51035774201E+01  0.10601493061E+03  0.11454326176E+03  0.41800000000E+01 0. -1.
         -5    1    4    4    0  501 -0.55594719368E+01 -0.22524331873E+02 -0.33079025581E+02  0.40619546870E+02  0.41800000000E+01 0. -1.
</event>
<event>
11    1  0.8039394E-009  0.1675108E+03  0.7561462E-02  0.1080218E+00
         22   -1    0    0    0    0  0.00000000000E+00  0.00000000000E+00  0.47238799828E+03  0.47238799828E+03  0.00000000000E+00 0.  1.
         22   -1    0    0    0    0 -0.00000000000E+00 -0.00000000000E+00 -0.11005824179E+04  0.11005824179E+04  0.00000000000E+00 0.  1.
        -24    2    1    2    0    0 -0.10390594198E+03  0.25590787630E+02 -0.91937319189E+03  0.92893557285E+03  0.78885355671E+02 0.  0.
         25    2    1    2    0    0  0.16318413122E+03 -0.83644166386E+02 -0.94229793845E+02  0.24114960327E+03  0.12509384418E+03 0.  0.
         24    2    1    2    0    0 -0.59278189240E+02  0.58053378755E+02  0.38540856609E+03  0.40288524009E+03  0.83022017365E+02 0.  0.
        -13    1    5    5    0    0 -0.33368033857E+02 -0.29887476889E+01  0.24865423172E+03  0.25090094709E+03  0.00000000000E+00 0.  1.
         14    1    5    5    0    0 -0.25910155384E+02  0.61042126444E+02  0.13675433436E+03  0.15198429301E+03  0.00000000000E+00 0. -1.
         11    1    3    3    0    0 -0.63094426303E+02 -0.24185968724E+02 -0.52765630208E+03  0.53196526281E+03  0.00000000000E+00 0. -1.
        -12    1    3    3    0    0 -0.40811515682E+02  0.49776756355E+02 -0.39171688981E+03  0.39697031003E+03  0.00000000000E+00 0.  1.
          5    1    4    4  501    0  0.30455661662E+02 -0.80996502613E+02 -0.55152225080E+02  0.10269966453E+03  0.41800000000E+01 0.  1.
         -5    1    4    4    0  501  0.13272846956E+03 -0.26476637731E+01 -0.39077568765E+02  0.13844993874E+03  0.41800000000E+01 0.  1.
</event>
<event>
11    1  0.8039394E-009  0.1318821E+03  0.7561462E-02  0.1116978E+00
         22   -1    0    0    0    0  0.00000000000E+00  0.00000000000E+00  0.81173317312E+03  0.81173317312E+03  0.00000000000E+00 0. -1.
         22   -1    0    0    0    0 -0.00000000000E+00 -0.00000000000E+00 -0.73012657891E+03  0.73012657891E+03  0.00000000000E+00 0.  1.
         24    2    1    2    0    0 -0.34467517405E+02 -0.23569883397E+02 -0.69571111244E+03  0.70173341028E+03  0.81684012974E+02 0.  0.
         25    2    1    2    0    0  0.45018645160E+02  0.88633107888E+01  0.12487150608E+03  0.18261076333E+03  0.12509420915E+03 0.  0.
        -24    2    1    2    0    0 -0.10551127755E+02  0.14706572608E+02  0.65244620057E+03  0.65751557842E+03  0.79454903270E+02 0.  0.
        -11    1    3    3    0    0 -0.55065615773E+02 -0.35071148423E+02 -0.57846240844E+03  0.58213483445E+03  0.00000000000E+00 0.  1.
         12    1    3    3    0    0  0.20598098368E+02  0.11501265026E+02 -0.11724870399E+03  0.11959857583E+03  0.00000000000E+00 0. -1.
         11    1    5    5    0    0 -0.30967319175E+02  0.37452066900E+02  0.47245612090E+03  0.47494885867E+03  0.00000000000E+00 0. -1.
        -12    1    5    5    0    0  0.20416191420E+02 -0.22745494291E+02  0.17999007966E+03  0.18256671975E+03  0.00000000000E+00 0.  1.
          5    1    4    4  501    0 -0.21496018840E+02 -0.37092105388E+01  0.11123665062E+03  0.11343236712E+03  0.41800000000E+01 0.  1.
         -5    1    4    4    0  501  0.66514663999E+02  0.12572521328E+02  0.13634855462E+02  0.69178396215E+02  0.41800000000E+01 0.  1.
</event>
<event>
11    1  0.8039394E-009  0.1320819E+03  0.7561462E-02  0.1116737E+00
         22   -1    0    0    0    0  0.00000000000E+00  0.00000000000E+00  0.46378305961E+03  0.46378305961E+03  0.00000000000E+00 0.  1.
         22   -1    0    0    0    0 -0.00000000000E+00 -0.00000000000E+00 -0.14580790833E+03  0.14580790833E+03  0.00000000000E+00 0. -1.
        -24    2    1    2    0    0  0.37775199327E+02  0.19996101274E+02 -0.99228785526E+02  0.13471674172E+03  0.80470111664E+02 0.  0.
         25    2    1    2    0    0 -0.25284608228E+02 -0.33923337206E+02  0.17710733463E+03  0.22091905668E+03  0.12509243544E+03 0.  0.
         24    2    1    2    0    0 -0.12490591099E+02  0.13927235932E+02  0.24009660218E+03  0.25395516955E+03  0.80603145081E+02 0.  0.
        -11    1    5    5    0    0  0.16277805182E+02 -0.49543407214E+01  0.20161551557E+03  0.20233222322E+03  0.00000000000E+00 0.  1.
         12    1    5    5    0    0 -0.28768396281E+02  0.18881576653E+02  0.38481086607E+02  0.51622946332E+02  0.00000000000E+00 0. -1.
         11    1    3    3    0    0  0.25120770746E+02  0.71139043397E+01 -0.11042502963E+03  0.11346959032E+03  0.00000000000E+00 0. -1.
        -12    1    3    3    0    0  0.12654428581E+02  0.12882196934E+02  0.11196244103E+02  0.21247151400E+02  0.00000000000E+00 0.  1.
          5    1    4    4  501    0 -0.61338675482E+02  0.22408193685E+01  0.15175845069E+03  0.16375455455E+03  0.41800000000E+01 0. -1.
         -5    1    4    4    0  501  0.36054067254E+02 -0.36164156574E+02  0.25348883937E+02  0.57164502125E+02  0.41800000000E+01 0. -1.
</event>
<event>
11    1  0.8039394E-009  0.1539584E+03  0.7561462E-02  0.1092901E+00
         22   -1    0    0    0    0  0.00000000000E+00  0.00000000000E+00  0.35941965871E+03  0.35941965871E+03  0.00000000000E+00 0.  1.
         22   -1    0    0    0    0 -0.00000000000E+00 -0.00000000000E+00 -0.12070680340E+04  0.12070680340E+04  0.00000000000E+00 0. -1.
        -24    2    1    2    0    0  0.46243598409E+02  0.76337549091E+02 -0.11396098002E+04  0.11461024283E+04  0.82911926793E+02 0.  0.
         25    2    1    2    0    0 -0.34689011594E+02 -0.10642935883E+03  0.69082902704E+02  0.18152292081E+03  0.12509031693E+03 0.  0.
         24    2    1    2    0    0 -0.11554586815E+02  0.30091809734E+02  0.22287852221E+03  0.23886234362E+03  0.79632644382E+02 0.  0.
        -13    1    5    5    0    0  0.15940075130E+02  0.30740655336E+02  0.35924784257E+02  0.49896533042E+02  0.00000000000E+00 0.  1.
         14    1    5    5    0    0 -0.27494661945E+02 -0.64884560180E+00  0.18695373795E+03  0.18896581058E+03  0.00000000000E+00 0. -1.
         13    1    3    3    0    0  0.14124099487E+02  0.53449271318E+02 -0.98469995732E+03  0.98625063789E+03  0.00000000000E+00 0. -1.
        -14    1    3    3    0    0  0.32119498922E+02  0.22888277774E+02 -0.15490984289E+03  0.15985179040E+03  0.00000000000E+00 0.  1.
          5    1    4    4  501    0 -0.31597626153E+02 -0.11660800207E+03  0.94640747255E+02  0.15352582703E+03  0.41800000000E+01 0.  1.
         -5    1    4    4    0  501 -0.30913854404E+01  0.10178643240E+02 -0.25557844550E+02  0.27997093782E+02  0.41800000000E+01 0.  1.
</event>
<event>
11    1  0.8039394E-009  0.1288437E+03  0.7561462E-02  0.1120698E+00
         22   -1    0    0    0    0  0.00000000000E+00  0.00000000000E+00  0.18566001992E+04  0.18566001992E+04  0.00000000000E+00 0.  1.
         22   -1    0    0    0    0 -0.00000000000E+00 -0.00000000000E+00 -0.37101895955E+02  0.37101895955E+02  0.00000000000E+00 0. -1.
        -24    2    1    2    0    0 -0.75801828602E+01 -0.31144607085E+02  0.66031140090E+02  0.10856504203E+03  0.79992569446E+02 0.  0.
         25    2    1    2    0    0  0.29778662530E+02  0.78381103229E+01  0.27040267188E+03  0.29952244151E+03  0.12509149969E+03 0.  0.
         24    2    1    2    0    0 -0.22198479670E+02  0.23306496762E+02  0.14830644913E+04  0.14856146116E+04  0.80836400563E+02 0.  0.
        -13    1    5    5    0    0  0.15558205282E+02  0.30986066113E+02  0.11149911534E+04  0.11155301279E+04  0.00000000000E+00 0.  1.
         14    1    5    5    0    0 -0.37756684952E+02 -0.76795693510E+01  0.36807333790E+03  0.37008448376E+03  0.00000000000E+00 0. -1.
         11    1    3    3    0    0  0.88984761314E+01 -0.16053112822E+02 -0.15502286691E+02  0.24025116054E+02  0.00000000000E+00 0. -1.
        -12    1    3    3    0    0 -0.16478658992E+02 -0.15091494263E+02  0.81533426781E+02  0.84539925976E+02  0.00000000000E+00 0.  1.
          5    1    4    4  501    0  0.19338408992E+02  0.57666400853E+02  0.21790921708E+03  0.22627701416E+03  0.41800000000E+01 0.  1.
         -5    1    4    4    0  501  0.10440253538E+02 -0.49828290530E+02  0.52493454795E+02  0.73245427348E+02  0.41800000000E+01 0.  1.
</event>
<event>
11    1  0.8039394E-009  0.1408869E+03  0.7561462E-02  0.1106572E+00
         22   -1    0    0    0    0  0.00000000000E+00  0.00000000000E+00  0.29205427739E+03  0.29205427739E+03  0.00000000000E+00 0. -1.
         22   -1    0    0    0    0 -0.00000000000E+00 -0.00000000000E+00 -0.66137063339E+03  0.66137063339E+03  0.00000000000E+00 0. -1.
         24    2    1    2    0    0  0.33159898702E+01 -0.32293460006E+02 -0.57037959524E+03  0.57677106071E+03  0.79234528200E+02 0.  0.
         25    2    1    2    0    0 -0.55466612755E+02 -0.10076324863E+02 -0.13225123501E+02  0.13784245264E+03  0.12509020907E+03 0.  0.
        -24    2    1    2    0    0  0.52150622885E+02  0.42369784869E+02  0.21428836274E+03  0.23881139742E+03  0.81218809363E+02 0.  0.
        -13    1    3    3    0    0 -0.11359003389E+01 -0.34191938006E+01  0.16733526761E+01  0.39725640341E+01  0.00000000000E+00 0.  1.
         14    1    3    3    0    0  0.44518902091E+01 -0.28874266205E+02 -0.57205294792E+03  0.57279849668E+03  0.00000000000E+00 0. -1.
         11    1    5    5    0    0  0.30427023742E+02 -0.17301147838E+02  0.12099981708E+03  0.12596066538E+03  0.00000000000E+00 0. -1.
        -12    1    5    5    0    0  0.21723599143E+02  0.59670932706E+02  0.93288545663E+02  0.11285073204E+03  0.00000000000E+00 0.  1.
          5    1    4    4  501    0 -0.15542861346E+02 -0.60700195072E+02  0.19047286139E+02  0.65622905527E+02  0.41800000000E+01 0.  1.
         -5    1    4    4    0  501 -0.39923751409E+02  0.50623870209E+02 -0.32272409640E+02  0.72219547115E+02  0.41800000000E+01 0.  1.
</event>
<event>
11    1  0.8039394E-009  0.1490728E+03  0.7561462E-02  0.1097830E+00
         22   -1    0    0    0    0  0.00000000000E+00  0.00000000000E+00  0.68097863950E+03  0.68097863950E+03  0.00000000000E+00 0. -1.
         22   -1    0    0    0    0 -0.00000000000E+00 -0.00000000000E+00 -0.13813661626E+04  0.13813661626E+04  0.00000000000E+00 0.  1.
        -24    2    1    2    0    0 -0.55515693834E+02 -0.62615270323E+02 -0.11367277239E+04  0.11425602538E+04  0.79318037042E+02 0.  0.
         25    2    1    2    0    0  0.53780505550E+02  0.35717445411E+02 -0.21802812438E+03  0.25952301073E+03  0.12509137217E+03 0.  0.
         24    2    1    2    0    0  0.17351882836E+01  0.26897824912E+02  0.65436832514E+03  0.66026153758E+03  0.83790746480E+02 0.  0.
        -13    1    5    5    0    0  0.59814474499E+01  0.17624325323E+02  0.26903389563E+02  0.32713711601E+02  0.00000000000E+00 0.  1.
         14    1    5    5    0    0 -0.42462591663E+01  0.92734995891E+01  0.62746493558E+03  0.62754782598E+03  0.00000000000E+00 0. -1.
         13    1    3    3    0    0 -0.24888897345E+01  0.18157978014E+02 -0.21613576406E+03  0.21691144563E+03  0.00000000000E+00 0. -1.
        -14    1    3    3    0    0 -0.53026804099E+02 -0.80773248337E+02 -0.92059195980E+03  0.92564880816E+03  0.00000000000E+00 0.  1.
          5    1    4    4  501    0  0.10910142681E+01  0.33397976813E+02 -0.20120939395E+03  0.20400810715E+03  0.41800000000E+01 0.  1.
         -5    1    4    4    0  501  0.52689491282E+02  0.23194685976E+01 -0.16818730427E+02  0.55514903578E+02  0.41800000000E+01 0.  1.
</event>
<event>
11    1  0.8039394E-009  0.1714732E+03  0.7561462E-02  0.1076757E+00
         22   -1    0    0    0    0  0.00000000000E+00  0.00000000000E+00  0.15896396522E+04  0.15896396522E+04  0.00000000000E+00 0. -1.
         22   -1    0    0    0    0 -0.00000000000E+00 -0.00000000000E+00 -0.95209207043E+02  0.95209207043E+02  0.00000000000E+00 0.  1.
        -24    2    1    2    0    0 -0.60905994540E+02  0.11226403236E+03  0.29477077559E+02  0.15295471658E+03  0.78825719726E+02 0.  0.
         25    2    1    2    0    0 -0.41111740596E+02 -0.11266668065E+03  0.21946148635E+03  0.27963212626E+03  0.12508727314E+03 0.  0.
         24    2    1    2    0    0  0.10201773514E+03  0.40264829098E+00  0.12454918813E+04  0.12522620164E+04  0.80637156881E+02 0.  0.
        -11    1    5    5    0    0 -0.39221564148E+01 -0.20403174160E+02  0.14389644532E+03  0.14538865087E+03  0.00000000000E+00 0.  1.
         12    1    5    5    0    0  0.10593989155E+03  0.20805822451E+02  0.11015954360E+04  0.11068733656E+04  0.00000000000E+00 0. -1.
         13    1    3    3    0    0 -0.13459129412E+02  0.18116669879E+01 -0.18984639674E+02  0.23341954618E+02  0.00000000000E+00 0. -1.
        -14    1    3    3    0    0 -0.47446865128E+02  0.11045236537E+03  0.48461717233E+02  0.12961276196E+03  0.00000000000E+00 0.  1.
          5    1    4    4  501    0  0.41975534089E+02 -0.16548936654E+02  0.45920293584E+02  0.64513243054E+02  0.41800000000E+01 0. -1.
         -5    1    4    4    0  501 -0.83087274686E+02 -0.96117743992E+02  0.17354119276E+03  0.21511888320E+03  0.41800000000E+01 0. -1.
</event>
<event>
11    1  0.8039394E-009  0.1344761E+03  0.7561462E-02  0.1113888E+00
         22   -1    0    0    0    0  0.00000000000E+00  0.00000000000E+00  0.72091158596E+03  0.72091158596E+03  0.00000000000E+00 0. -1.
         22   -1    0    0    0    0 -0.00000000000E+00 -0.00000000000E+00 -0.10396076061E+04  0.10396076061E+04  0.00000000000E+00 0.  1.
         24    2    1    2    0    0  0.24287277148E+02  0.42777184007E+02 -0.10093216282E+04  0.10138330358E+04  0.81899426665E+02 0.  0.
         25    2    1    2    0    0 -0.56702570762E+02 -0.43630333649E+02  0.18751988527E+03  0.23649332646E+03  0.12508636434E+03 0.  0.
        -24    2    1    2    0    0  0.32415293614E+02  0.85314964246E+00  0.50310572280E+03  0.51019282975E+03  0.78293525227E+02 0.  0.
        -11    1    3    3    0    0  0.46035649898E+02  0.17687483535E+02 -0.82996150030E+03  0.83142541465E+03  0.00000000000E+00 0.  1.
         12    1    3    3    0    0 -0.21748372750E+02  0.25089700472E+02 -0.17936012790E+03  0.18240762119E+03  0.00000000000E+00 0. -1.
         11    1    5    5    0    0  0.32291575789E+02  0.99866108441E+01  0.49905890237E+03  0.50020222540E+03  0.00000000000E+00 0. -1.
        -12    1    5    5    0    0  0.12371782519E+00 -0.91334612017E+01  0.40468204249E+01  0.99906043448E+01  0.00000000000E+00 0.  1.
          5    1    4    4  501    0 -0.42746824717E+02  0.30187765529E+02  0.13468203742E+03  0.14455212145E+03  0.41800000000E+01 0. -1.
         -5    1    4    4    0  501 -0.13955746045E+02 -0.73818099179E+02  0.52837847855E+02  0.91941205017E+02  0.41800000000E+01 0. -1.
</event>
<event>
11    1  0.8039394E-009  0.1813805E+03  0.7561462E-02  0.1068532E+00
         22   -1    0    0    0    0  0.00000000000E+00  0.00000000000E+00  0.79250960066E+03  0.79250960066E+03  0.00000000000E+00 0.  1.
         22   -1    0    0    0    0 -0.00000000000E+00 -0.00000000000E+00 -0.10663911888E+04  0.10663911888E+04  0.00000000000E+00 0. -1.
         24    2    1    2    0    0 -0.65337988656E+02  0.11262961106E+03 -0.95976125737E+03  0.97198832351E+03  0.81640356670E+02 0.  0.
         25    2    1    2    0    0  0.83994763323E+02 -0.12437481291E+03  0.26592235537E+01  0.19539307862E+03  0.12508864597E+03 0.  0.
        -24    2    1    2    0    0 -0.18656774667E+02  0.11745201857E+02  0.68322044565E+03  0.69151938737E+03  0.10451249085E+03 0.  0.
        -11    1    3    3    0    0 -0.10508674387E+02  0.11978920468E+01 -0.11480485215E+02  0.15609891848E+02  0.00000000000E+00 0.  1.
         12    1    3    3    0    0 -0.54829314270E+02  0.11143171901E+03 -0.94828077215E+03  0.95637843166E+03  0.00000000000E+00 0. -1.
         11    1    5    5    0    0 -0.35736026760E+02 -0.15147445222E+02  0.97622445382E+02  0.10505546415E+03  0.00000000000E+00 0. -1.
        -12    1    5    5    0    0  0.17079252093E+02  0.26892647079E+02  0.58559800027E+03  0.58646392322E+03  0.00000000000E+00 0.  1.
          5    1    4    4  501    0  0.11304564360E+03 -0.84891605654E+02  0.20806938329E+02  0.14295559916E+03  0.41800000000E+01 0.  1.
         -5    1    4    4    0  501 -0.29050880281E+02 -0.39483207260E+02 -0.18147714775E+02  0.52437479460E+02  0.41800000000E+01 0.  1.
</event>
<event>
11    1  0.8039394E-009  0.1355947E+03  0.7561462E-02  0.1112580E+00
         22   -1    0    0    0    0  0.00000000000E+00  0.00000000000E+00  0.32172791104E+04  0.32172791104E+04  0.00000000000E+00 0. -1.
         22   -1    0    0    0    0 -0.00000000000E+00 -0.00000000000E+00 -0.20905800313E+03  0.20905800313E+03  0.00000000000E+00 0.  1.
         24    2    1    2    0    0 -0.32908808500E+02 -0.24578459538E+01 -0.15779329979E+03  0.18081323033E+03  0.81888143950E+02 0.  0.
         25    2    1    2    0    0  0.50166889661E+02 -0.46714198407E+02  0.91430956461E+02  0.16944482376E+03  0.12511193128E+03 0.  0.
        -24    2    1    2    0    0 -0.17258081161E+02  0.49172044361E+02  0.30745834507E+04  0.30760790595E+04  0.80518655368E+02 0.  0.
        -11    1    3    3    0    0  0.19783694032E+02  0.76279946377E+00 -0.69235461008E+01  0.20974076933E+02  0.00000000000E+00 0.  1.
         12    1    3    3    0    0 -0.52692502532E+02 -0.32206454176E+01 -0.15086975369E+03  0.15983915340E+03  0.00000000000E+00 0. -1.
         11    1    5    5    0    0 -0.22540606246E+02  0.81460989112E+01  0.24547054574E+04  0.24548224621E+04  0.00000000000E+00 0. -1.
        -12    1    5    5    0    0  0.52825250848E+01  0.41025945450E+02  0.61987799327E+03  0.62125659740E+03  0.00000000000E+00 0.  1.
          5    1    4    4  501    0  0.86022712368E+02 -0.41995273750E+01  0.47471810474E+02  0.98430626652E+02  0.41800000000E+01 0.  1.
         -5    1    4    4    0  501 -0.35855822707E+02 -0.42514671032E+02  0.43959145987E+02  0.71014197108E+02  0.41800000000E+01 0.  1.
</event>
<event>
11    1  0.8039394E-009  0.1334287E+03  0.7561462E-02  0.1115127E+00
         22   -1    0    0    0    0  0.00000000000E+00  0.00000000000E+00  0.13048665944E+03  0.13048665944E+03  0.00000000000E+00 0. -1.
         22   -1    0    0    0    0 -0.00000000000E+00 -0.00000000000E+00 -0.37669395931E+03  0.37669395931E+03  0.00000000000E+00 0.  1.
        -24    2    1    2    0    0 -0.22673112199E+02 -0.30454059862E+02 -0.16556126624E+03  0.18793174513E+03  0.80413233804E+02 0.  0.
         25    2    1    2    0    0  0.48037348231E+02  0.48483311045E+02 -0.15099259214E+03  0.20761575407E+03  0.12508924886E+03 0.  0.
         24    2    1    2    0    0 -0.25364236031E+02 -0.18029251183E+02  0.70346558513E+02  0.11163311955E+03  0.80900659559E+02 0.  0.
        -11    1    5    5    0    0  0.60959448523E+00 -0.21552430478E+02 -0.12373672716E+02  0.24859337107E+02  0.00000000000E+00 0.  1.
         12    1    5    5    0    0 -0.25973830517E+02  0.35231792941E+01  0.82720231229E+02  0.86773782438E+02  0.00000000000E+00 0. -1.
         11    1    3    3    0    0  0.80957937198E+01  0.23268520761E+02 -0.29408985618E+02  0.38364754260E+02  0.00000000000E+00 0. -1.
        -12    1    3    3    0    0 -0.30768905919E+02 -0.53722580623E+02 -0.13615228062E+03  0.14956699087E+03  0.00000000000E+00 0.  1.
          5    1    4    4  501    0  0.71243066412E+02 -0.90871461517E+00 -0.13130929396E+03  0.14945234476E+03  0.41800000000E+01 0.  1.
         -5    1    4    4    0  501 -0.23205718181E+02  0.49392025660E+02 -0.19683298179E+02  0.58163409308E+02  0.41800000000E+01 0.  1.
</event>
<event>
11    1  0.8039394E-009  0.2964806E+03  0.7561462E-02  0.1001692E+00
         22   -1    0    0    0    0  0.00000000000E+00  0.00000000000E+00  0.11350241719E+04  0.11350241719E+04  0.00000000000E+00 0. -1.
         22   -1    0    0    0    0 -0.00000000000E+00 -0.00000000000E+00 -0.12081017185E+04  0.12081017185E+04  0.00000000000E+00 0. -1.
        -24    2    1    2    0    0  0.18647967092E+02  0.41352297322E+02 -0.11320225656E+04  0.11357466437E+04  0.79922403154E+02 0.  0.
         25    2    1    2    0    0 -0.15230033104E+03 -0.25010713076E+03  0.59979919003E+03  0.67908431666E+03  0.12508986002E+03 0.  0.
         24    2    1    2    0    0  0.13365236395E+03  0.20875483344E+03  0.45914582902E+03  0.52829492997E+03  0.82698886656E+02 0.  0.
        -11    1    5    5    0    0 -0.11598116234E+02  0.17645538505E+02  0.32502326249E+02  0.38759289737E+02  0.00000000000E+00 0.  1.
         12    1    5    5    0    0  0.14525048018E+03  0.19110929493E+03  0.42664350277E+03  0.48953564023E+03  0.00000000000E+00 0. -1.
         11    1    3    3    0    0  0.26559272808E+02 -0.40996021395E+01 -0.80898663602E+03  0.80943287490E+03  0.00000000000E+00 0. -1.
        -12    1    3    3    0    0 -0.79113057158E+01  0.45451899461E+02 -0.32303592959E+03  0.32631376883E+03  0.00000000000E+00 0.  1.
          5    1    4    4  501    0 -0.30452583293E+02 -0.15771860643E+03  0.24851467665E+03  0.29593839824E+03  0.41800000000E+01 0. -1.
         -5    1    4    4    0  501 -0.12184774774E+03 -0.92388524325E+02  0.35128451339E+03  0.38314591842E+03  0.41800000000E+01 0. -1.
</event>
<event>
11    1  0.8039394E-009  0.1353858E+03  0.7561462E-02  0.1112823E+00
         22   -1    0    0    0    0  0.00000000000E+00  0.00000000000E+00  0.46573014863E+03  0.46573014863E+03  0.00000000000E+00 0.  1.
         22   -1    0    0    0    0 -0.00000000000E+00 -0.00000000000E+00 -0.35224268826E+03  0.35224268826E+03  0.00000000000E+00 0. -1.
         24    2    1    2    0    0  0.84903536672E+01  0.28470016802E+02 -0.31059657199E+03  0.32253528821E+03  0.81707733087E+02 0.  0.
         25    2    1    2    0    0 -0.51113026801E+02 -0.48582074427E+02  0.15825654019E+03  0.21369423002E+03  0.12508929597E+03 0.  0.
        -24    2    1    2    0    0  0.42622673134E+02  0.20112057624E+02  0.26582749217E+03  0.28174331866E+03  0.80584458104E+02 0.  0.
        -13    1    3    3    0    0  0.40706248706E+02  0.26323887294E+02 -0.12350047509E+03  0.13267370905E+03  0.00000000000E+00 0.  1.
         14    1    3    3    0    0 -0.32215895039E+02  0.21461295086E+01 -0.18709609691E+03  0.18986157917E+03  0.00000000000E+00 0. -1.
         11    1    5    5    0    0  0.45968783539E+02  0.11644280480E+02  0.63710340020E+02  0.79421192092E+02  0.00000000000E+00 0. -1.
        -12    1    5    5    0    0 -0.33461104047E+01  0.84677771438E+01  0.20211715215E+03  0.20232212657E+03  0.00000000000E+00 0.  1.
          5    1    4    4  501    0 -0.14682974746E+01  0.20083094403E+02  0.11802433316E+03  0.11980276372E+03  0.41800000000E+01 0.  1.
         -5    1    4    4    0  501 -0.49644729326E+02 -0.68665168830E+02  0.40232207033E+02  0.93891466295E+02  0.41800000000E+01 0.  1.
</event>
<event>
11    1  0.8039394E-009  0.2229010E+03  0.7561462E-02  0.1039415E+00
         22   -1    0    0    0    0  0.00000000000E+00  0.00000000000E+00  0.49174512896E+03  0.49174512896E+03  0.00000000000E+00 0. -1.
         22   -1    0    0    0    0 -0.00000000000E+00 -0.00000000000E+00 -0.22833785353E+03  0.22833785353E+03  0.00000000000E+00 0.  1.
         24    2    1    2    0    0 -0.34202461361E+02 -0.21966158604E+03 -0.62063264417E+02  0.24458394391E+03  0.80922407810E+02 0.  0.
         25    2    1    2    0    0  0.61300019254E+02  0.11532862693E+03  0.85505238972E+02  0.20004286520E+03  0.12509043718E+03 0.  0.
        -24    2    1    2    0    0 -0.27097557893E+02  0.10433295911E+03  0.23996530088E+03  0.27545617338E+03  0.81689129193E+02 0.  0.
        -13    1    3    3    0    0 -0.57164684854E+02 -0.11043994963E+03 -0.23922380339E+02  0.12663752978E+03  0.00000000000E+00 0.  1.
         14    1    3    3    0    0  0.22962223494E+02 -0.10922163641E+03 -0.38140884077E+02  0.11794641413E+03  0.00000000000E+00 0. -1.
         11    1    5    5    0    0 -0.93946336488E+01 -0.84263891346E+01  0.67310714357E+02  0.68483541398E+02  0.00000000000E+00 0. -1.
        -12    1    5    5    0    0 -0.17702924244E+02  0.11275934825E+03  0.17265458652E+03  0.20697263199E+03  0.00000000000E+00 0.  1.
          5    1    4    4  501    0  0.10496863625E+01  0.78613216794E+02 -0.11973434326E+02  0.79636519422E+02  0.41800000000E+01 0.  1.
         -5    1    4    4    0  501  0.60250332891E+02  0.36715410132E+02  0.97478673298E+02  0.12040634577E+03  0.41800000000E+01 0.  1.
</event>
<event>
11    1  0.8039394E-009  0.1401789E+03  0.7561462E-02  0.1107359E+00
         22   -1    0    0    0    0  0.00000000000E+00  0.00000000000E+00  0.44722753595E+03  0.44722753595E+03  0.00000000000E+00 0. -1.
         22   -1    0    0    0    0 -0.00000000000E+00 -0.00000000000E+00 -0.24459390423E+03  0.24459390423E+03  0.00000000000E+00 0.  1.
         24    2    1    2    0    0  0.20146796406E+02  0.62889164752E+02 -0.19441815188E+03  0.22051391062E+03  0.80417824819E+02 0.  0.
         25    2    1    2    0    0 -0.53792313259E+02 -0.11066518234E+02  0.13651930634E+03  0.19313447854E+03  0.12508926815E+03 0.  0.
        -24    2    1    2    0    0  0.33645516853E+02 -0.51822646518E+02  0.26053247726E+03  0.27817305102E+03  0.75402036521E+02 0.  0.
        -11    1    3    3    0    0  0.20643156771E+02  0.78816321035E+02 -0.18464295718E+03  0.20181965717E+03  0.00000000000E+00 0.  1.
         12    1    3    3    0    0 -0.49636036465E+00 -0.15927156283E+02 -0.97751947043E+01  0.18694253458E+02  0.00000000000E+00 0. -1.
         11    1    5    5    0    0  0.51555868366E+02 -0.43536480655E+02  0.24152264036E+03  0.25077204493E+03  0.00000000000E+00 0. -1.
        -12    1    5    5    0    0 -0.17910351514E+02 -0.82861658627E+01  0.19009836901E+02  0.27401006096E+02  0.00000000000E+00 0.  1.
          5    1    4    4  501    0 -0.63340097842E+02 -0.59461218363E+02  0.82879400664E+02  0.12014188253E+03  0.41800000000E+01 0. -1.
         -5    1    4    4    0  501  0.95477845833E+01  0.48394700128E+02  0.53639905680E+02  0.72992596010E+02  0.41800000000E+01 0. -1.
</event>
<event>
11    1  0.8039394E-009  0.3132143E+03  0.7561462E-02  0.9947487E-01
         22   -1    0    0    0    0  0.00000000000E+00  0.00000000000E+00  0.80345916572E+03  0.80345916572E+03  0.00000000000E+00 0. -1.
         22   -1    0    0    0    0 -0.00000000000E+00 -0.00000000000E+00 -0.17459641923E+03  0.17459641923E+03  0.00000000000E+00 0. -1.
         24    2    1    2    0    0  0.28530629662E+03  0.97818636315E+02  0.10597241864E+03  0.32930876511E+03  0.79031264494E+02 0.  0.
         25    2    1    2    0    0 -0.24954955593E+03 -0.73165021897E+02  0.36028156139E+03  0.46159959539E+03  0.12507310539E+03 0.  0.
        -24    2    1    2    0    0 -0.35756740689E+02 -0.24653614418E+02  0.16260876646E+03  0.18714722445E+03  0.81829869126E+02 0.  0.
        -11    1    3    3    0    0  0.52547234364E+02  0.44610569609E+02  0.21877278721E+01  0.68964490235E+02  0.00000000000E+00 0.  1.
         12    1    3    3    0    0  0.23275906225E+03  0.53208066706E+02  0.10378469077E+03  0.26034427488E+03  0.00000000000E+00 0. -1.
         11    1    5    5    0    0 -0.19698460473E+02  0.15833267347E+02  0.13078523211E+03  0.13320472454E+03  0.00000000000E+00 0. -1.
        -12    1    5    5    0    0 -0.16058280216E+02 -0.40486881765E+02  0.31823534345E+02  0.53942499913E+02  0.00000000000E+00 0.  1.
          5    1    4    4  501    0 -0.70360114925E+02 -0.71993617034E+02  0.18633372032E+03  0.21182859673E+03  0.41800000000E+01 0.  1.
         -5    1    4    4    0  501 -0.17918944100E+03 -0.11714048633E+01  0.17394784107E+03  0.24977099866E+03  0.41800000000E+01 0.  1.
</event>
<event>
11    1  0.8039394E-009  0.1370811E+03  0.7561462E-02  0.1110862E+00
         22   -1    0    0    0    0  0.00000000000E+00  0.00000000000E+00  0.82358614812E+03  0.82358614812E+03  0.00000000000E+00 0.  1.
         22   -1    0    0    0    0 -0.00000000000E+00 -0.00000000000E+00 -0.32193537867E+03  0.32193537867E+03  0.00000000000E+00 0. -1.
        -24    2    1    2    0    0 -0.99882328001E+01 -0.21653118955E+02 -0.26656078474E+03  0.28111725499E+03  0.86044388172E+02 0.  0.
         25    2    1    2    0    0  0.17631885393E+02  0.75625023537E+02  0.76236727748E+02  0.16579333008E+03  0.12508142178E+03 0.  0.
         24    2    1    2    0    0 -0.76436525931E+01 -0.53971904583E+02  0.69197482645E+03  0.69861094172E+03  0.79099276529E+02 0.  0.
        -11    1    5    5    0    0 -0.21901273466E+01 -0.66792540196E+02  0.66404225419E+03  0.66739655036E+03  0.00000000000E+00 0.  1.
         12    1    5    5    0    0 -0.54535252464E+01  0.12820635613E+02  0.27932572258E+02  0.31214391362E+02  0.00000000000E+00 0. -1.
         13    1    3    3    0    0 -0.88238027295E+01 -0.38354005278E+02 -0.26027658085E+03  0.26323523273E+03  0.00000000000E+00 0. -1.
        -14    1    3    3    0    0 -0.11644300705E+01  0.16700886323E+02 -0.62842038958E+01  0.17882022256E+02  0.00000000000E+00 0.  1.
          5    1    4    4  501    0 -0.25966262236E+02  0.94615532100E+02  0.40804763302E+02  0.10634306182E+03  0.41800000000E+01 0.  1.
         -5    1    4    4    0  501  0.43598147629E+02 -0.18990508562E+02  0.35431964446E+02  0.59450268264E+02  0.41800000000E+01 0.  1.
</event>
<event>
11    1  0.8039394E-009  0.1523903E+03  0.7561462E-02  0.1094461E+00
         22   -1    0    0    0    0  0.00000000000E+00  0.00000000000E+00  0.93512665486E+03  0.93512665486E+03  0.00000000000E+00 0.  1.
         22   -1    0    0    0    0 -0.00000000000E+00 -0.00000000000E+00 -0.71623801167E+03  0.71623801167E+03  0.00000000000E+00 0.  1.
         24    2    1    2    0    0  0.77701382591E+02 -0.38763526236E+02 -0.66326776327E+03  0.67346427423E+03  0.78037728322E+02 0.  0.
         25    2    1    2    0    0 -0.84284122239E+02  0.37491427788E+02  0.85739982287E+02  0.17750754779E+03  0.12509262384E+03 0.  0.
        -24    2    1    2    0    0  0.65827396479E+01  0.12720984481E+01  0.79641642417E+03  0.80039284452E+03  0.79401726505E+02 0.  0.
        -11    1    3    3    0    0  0.89416193160E+02 -0.27630746592E+02 -0.62433641956E+03  0.63131187106E+03  0.00000000000E+00 0.  1.
         12    1    3    3    0    0 -0.11714810569E+02 -0.11132779645E+02 -0.38931343712E+02  0.42152403164E+02  0.00000000000E+00 0. -1.
         11    1    5    5    0    0  0.15336566653E+02  0.26110118119E+02  0.13095114010E+03  0.13440665771E+03  0.00000000000E+00 0. -1.
        -12    1    5    5    0    0 -0.87538270056E+01 -0.24838019671E+02  0.66546528408E+03  0.66598618681E+03  0.00000000000E+00 0.  1.
          5    1    4    4  501    0  0.32526084466E+02  0.15530546356E+02  0.24028282282E+02  0.43519820659E+02  0.41800000000E+01 0. -1.
         -5    1    4    4    0  501 -0.11681020670E+03  0.21960881432E+02  0.61711700004E+02  0.13398772713E+03  0.41800000000E+01 0. -1.
</event>
<event>
11    1  0.8039394E-009  0.1358547E+03  0.7561462E-02  0.1112278E+00
         22   -1    0    0    0    0  0.00000000000E+00  0.00000000000E+00  0.13480579151E+04  0.13480579151E+04  0.00000000000E+00 0.  1.
         22   -1    0    0    0    0 -0.00000000000E+00 -0.00000000000E+00 -0.11343466844E+03  0.11343466844E+03  0.00000000000E+00 0.  1.
         24    2    1    2    0    0  0.12944120540E+02 -0.50943606595E+02 -0.45093429691E+02  0.10164914428E+03  0.74406517341E+02 0.  0.
         25    2    1    2    0    0 -0.11724918369E+02  0.53643040953E+02  0.81901402700E+02  0.15927972622E+03  0.12508853611E+03 0.  0.
        -24    2    1    2    0    0 -0.12192021719E+01 -0.26994343580E+01  0.11978152736E+04  0.12005637130E+04  0.81135848377E+02 0.  0.
        -13    1    3    3    0    0  0.43424093532E+02 -0.38696691237E+02 -0.30938211264E+02  0.65880640008E+02  0.00000000000E+00 0.  1.
         14    1    3    3    0    0 -0.30479972991E+02 -0.12246915358E+02 -0.14155218427E+02  0.35768504275E+02  0.00000000000E+00 0. -1.
         13    1    5    5    0    0 -0.14017719699E+01  0.29275617855E+01  0.55832261175E+00  0.32935249813E+01  0.00000000000E+00 0. -1.
        -14    1    5    5    0    0  0.18256979796E+00 -0.56269961435E+01  0.11972569510E+04  0.11972701880E+04  0.00000000000E+00 0.  1.
          5    1    4    4  501    0  0.31454828692E+02  0.66395673220E+02  0.98916150838E+01  0.74250307200E+02  0.41800000000E+01 0. -1.
         -5    1    4    4    0  501 -0.43179747061E+02 -0.12752632267E+02  0.72009787616E+02  0.85029419018E+02  0.41800000000E+01 0. -1.
</event>
<event>
11    1  0.8039394E-009  0.2342773E+03  0.7561462E-02  0.1032625E+00
         22   -1    0    0    0    0  0.00000000000E+00  0.00000000000E+00  0.53611775764E+03  0.53611775764E+03  0.00000000000E+00 0. -1.
         22   -1    0    0    0    0 -0.00000000000E+00 -0.00000000000E+00 -0.23228154766E+04  0.23228154766E+04  0.00000000000E+00 0. -1.
        -24    2    1    2    0    0 -0.18316058596E+02 -0.50802454767E+02 -0.20919862891E+04  0.20941059131E+04  0.77178845478E+02 0.  0.
         25    2    1    2    0    0  0.21382417816E+03  0.60966602627E+02 -0.12599304419E+03  0.28454185247E+03  0.12510840428E+03 0.  0.
         24    2    1    2    0    0 -0.19550811956E+03 -0.10164147860E+02  0.43128161429E+03  0.48028546868E+03  0.79646505818E+02 0.  0.
        -13    1    5    5    0    0 -0.11714188292E+03 -0.30081098237E+02  0.18460290727E+03  0.22069283309E+03  0.00000000000E+00 0.  1.
         14    1    5    5    0    0 -0.78366236646E+02  0.19916950376E+02  0.24667870702E+03  0.25959263560E+03  0.00000000000E+00 0. -1.
         13    1    3    3    0    0  0.17107483825E+02 -0.25250237401E+02 -0.15697559071E+04  0.15700521802E+04  0.00000000000E+00 0. -1.
        -14    1    3    3    0    0 -0.35423542421E+02 -0.25552217366E+02 -0.52223038199E+03  0.52405373297E+03  0.00000000000E+00 0.  1.
          5    1    4    4  501    0  0.70231409238E+02  0.83063017120E+02 -0.42013519279E+02  0.11668129181E+03  0.41800000000E+01 0.  1.
         -5    1    4    4    0  501  0.14359276892E+03 -0.22096414493E+02 -0.83979524907E+02  0.16786056066E+03  0.41800000000E+01 0.  1.
</event>
<event>
11    1  0.8039394E-009  0.1727913E+03  0.7561462E-02  0.1075628E+00
         22   -1    0    0    0    0  0.00000000000E+00  0.00000000000E+00  0.13976839996E+04  0.13976839996E+04  0.00000000000E+00 0.  1.
         22   -1    0    0    0    0 -0.00000000000E+00 -0.00000000000E+00 -0.11796835268E+04  0.11796835268E+04  0.00000000000E+00 0. -1.
        -24    2    1    2    0    0  0.13105290666E+02 -0.46246064630E+02 -0.11433400027E+04  0.11470758106E+04  0.79032312808E+02 0.  0.
         25    2    1    2    0    0 -0.33904140607E+02 -0.76953130971E+02  0.15991334440E+03  0.21973903069E+03  0.12506673729E+03 0.  0.
         24    2    1    2    0    0  0.20798849941E+02  0.12319919560E+03  0.12014271310E+04  0.12105526851E+04  0.80000114454E+02 0.  0.
        -13    1    5    5    0    0 -0.11090916889E+02  0.91939977884E+02  0.99771473403E+03  0.10020033226E+04  0.00000000000E+00 0.  1.
         14    1    5    5    0    0  0.31889766830E+02  0.31259217717E+02  0.20371239697E+03  0.20854936250E+03  0.00000000000E+00 0. -1.
         13    1    3    3    0    0 -0.10415631873E+02 -0.47800350138E+02 -0.10370525446E+04  0.10382058270E+04  0.00000000000E+00 0. -1.
        -14    1    3    3    0    0  0.23520922539E+02  0.15542855075E+01 -0.10628745808E+03  0.10886998368E+03  0.00000000000E+00 0.  1.
          5    1    4    4  501    0 -0.43141602994E+01  0.14190880331E+02  0.11100871505E+03  0.11207319162E+03  0.41800000000E+01 0. -1.
         -5    1    4    4    0  501 -0.29589980307E+02 -0.91144011302E+02  0.48904629349E+02  0.10766583907E+03  0.41800000000E+01 0. -1.
</event>
<event>
11    1  0.8039394E-009  0.1539756E+03  0.7561462E-02  0.1092884E+00
         22   -1    0    0    0    0  0.00000000000E+00  0.00000000000E+00  0.13108360927E+03  0.13108360927E+03  0.00000000000E+00 0. -1.
         22   -1    0    0    0    0 -0.00000000000E+00 -0.00000000000E+00 -0.20962155203E+04  0.20962155203E+04  0.00000000000E+00 0. -1.
         24    2    1    2    0    0  0.89865356999E+02  0.11567654206E+02 -0.15617477057E+04  0.15664121726E+04  0.79884950332E+02 0.  0.
         25    2    1    2    0    0 -0.84953306836E+02 -0.12557140299E+02 -0.50721911094E+03  0.52942739973E+03  0.12508956377E+03 0.  0.
        -24    2    1    2    0    0 -0.49120501635E+01  0.98948609346E+00  0.10383490562E+03  0.13145955721E+03  0.80466267708E+02 0.  0.
        -11    1    3    3    0    0  0.23280769012E+02  0.79037545468E+01 -0.10561025620E+04  0.10563886998E+04  0.00000000000E+00 0.  1.
         12    1    3    3    0    0  0.66584587987E+02  0.36638996591E+01 -0.50564514363E+03  0.51002347279E+03  0.00000000000E+00 0. -1.
         11    1    5    5    0    0  0.14868160381E+02  0.27613016199E+01  0.10971158311E+03  0.11074889818E+03  0.00000000000E+00 0. -1.
        -12    1    5    5    0    0 -0.19780210545E+02 -0.17718155265E+01 -0.58766774880E+01  0.20710659037E+02  0.00000000000E+00 0.  1.
          5    1    4    4  501    0 -0.43337481569E+02 -0.61269975134E+02 -0.37481606674E+03  0.38227830628E+03  0.41800000000E+01 0.  1.
         -5    1    4    4    0  501 -0.41615825267E+02  0.48712834835E+02 -0.13240304420E+03  0.14714909345E+03  0.41800000000E+01 0.  1.
</event>
<event>
11    1  0.8039394E-009  0.1671445E+03  0.7561462E-02  0.1080544E+00
         22   -1    0    0    0    0  0.00000000000E+00  0.00000000000E+00  0.44075570946E+03  0.44075570946E+03  0.00000000000E+00 0.  1.
         22   -1    0    0    0    0 -0.00000000000E+00 -0.00000000000E+00 -0.50502115383E+03  0.50502115383E+03  0.00000000000E+00 0.  1.
        -24    2    1    2    0    0  0.40591562572E+02  0.11622681485E+02 -0.40043101709E+03  0.41063808844E+03  0.80597013313E+02 0.  0.
         25    2    1    2    0    0  0.73339490856E+02 -0.32876210813E+02 -0.21994662881E+02  0.15030098043E+03  0.12508834225E+03 0.  0.
         24    2    1    2    0    0 -0.11393105343E+03  0.21253529328E+02  0.35816023560E+03  0.38483779442E+03  0.79933573731E+02 0.  0.
        -13    1    5    5    0    0 -0.84450883940E+02 -0.10571976421E+02  0.15240904188E+03  0.17456298156E+03  0.00000000000E+00 0.  1.
         14    1    5    5    0    0 -0.29480169488E+02  0.31825505749E+02  0.20575119372E+03  0.21027481287E+03  0.00000000000E+00 0. -1.
         11    1    3    3    0    0 -0.18712146332E+02  0.12816342618E+02 -0.46106461516E+02  0.51382962663E+02  0.00000000000E+00 0. -1.
        -12    1    3    3    0    0  0.59303708904E+02 -0.11936611330E+01 -0.35432455557E+03  0.35925512578E+03  0.00000000000E+00 0.  1.
          5    1    4    4  501    0  0.98859863610E+02  0.82187900693E+01 -0.22223810488E+02  0.10174571881E+03  0.41800000000E+01 0.  1.
         -5    1    4    4    0  501 -0.25520372754E+02 -0.41095000883E+02  0.22914760630E+00  0.48555261627E+02  0.41800000000E+01 0.  1.
</event>
<event>
11    1  0.8039394E-009  0.4265053E+03  0.7561462E-02  0.9574635E-01
         22   -1    0    0    0    0  0.00000000000E+00  0.00000000000E+00  0.14454016255E+03  0.14454016255E+03  0.00000000000E+00 0. -1.
         22   -1    0    0    0    0 -0.00000000000E+00 -0.00000000000E+00 -0.20927621586E+04  0.20927621586E+04  0.00000000000E+00 0.  1.
         24    2    1    2    0    0  0.40431605963E+03  0.11838896682E+03 -0.13482714880E+04  0.14149452029E+04  0.82137069586E+02 0.  0.
         25    2    1    2    0    0 -0.32040592615E+03 -0.21718094470E+03 -0.40472096569E+03  0.57382498793E+03  0.12509411040E+03 0.  0.
        -24    2    1    2    0    0 -0.83910133478E+02  0.98791977878E+02 -0.19522954240E+03  0.24853213039E+03  0.82782124994E+02 0.  0.
        -11    1    3    3    0    0 -0.22624905643E+01 -0.29043869313E+01 -0.46834665147E+01  0.59572800501E+01  0.00000000000E+00 0.  1.
         12    1    3    3    0    0  0.40657855020E+03  0.12129335375E+03 -0.13435880215E+04  0.14089879228E+04  0.00000000000E+00 0. -1.
         13    1    5    5    0    0  0.32680316979E+01  0.33383811511E+02 -0.93921438961E+02  0.99731617849E+02  0.00000000000E+00 0. -1.
        -14    1    5    5    0    0 -0.87178165176E+02  0.65408166368E+02 -0.10130810344E+03  0.14880051254E+03  0.00000000000E+00 0.  1.
          5    1    4    4  501    0 -0.31500646289E+02 -0.75600139664E+02 -0.55781325066E+02  0.99180141459E+02  0.41800000000E+01 0. -1.
         -5    1    4    4    0  501 -0.28890527987E+03 -0.14158080503E+03 -0.34893964062E+03  0.47464484647E+03  0.41800000000E+01 0. -1.
</event>
<event>
11    1  0.8039394E-009  0.1726281E+03  0.7561462E-02  0.1075767E+00
         22   -1    0    0    0    0  0.00000000000E+00  0.00000000000E+00  0.56629121769E+03  0.56629121769E+03  0.00000000000E+00 0.  1.
         22   -1    0    0    0    0 -0.00000000000E+00 -0.00000000000E+00 -0.28667118377E+03  0.28667118377E+03  0.00000000000E+00 0. -1.
        -24    2    1    2    0    0  0.11054041159E+03 -0.42636326185E+02 -0.22841705226E+03  0.26960321782E+03  0.80464317523E+02 0.  0.
         25    2    1    2    0    0 -0.11258007661E+03  0.54663593046E+02  0.21171477149E+03  0.27592219370E+03  0.12509008936E+03 0.  0.
         24    2    1    2    0    0  0.20396650249E+01 -0.12027266861E+02  0.29632231468E+03  0.30743698994E+03  0.81004772831E+02 0.  0.
        -13    1    5    5    0    0  0.98057950038E+01 -0.39804337289E+02  0.24635796841E+03  0.24974544537E+03  0.00000000000E+00 0.  1.
         14    1    5    5    0    0 -0.77661299789E+01  0.27777070429E+02  0.49964346272E+02  0.57691544570E+02  0.00000000000E+00 0. -1.
         11    1    3    3    0    0  0.63718917040E+02 -0.28276284875E+00 -0.17719206148E+03  0.18830084172E+03  0.00000000000E+00 0. -1.
        -12    1    3    3    0    0  0.46821494548E+02 -0.42353563336E+02 -0.51224990780E+02  0.81302376099E+02  0.00000000000E+00 0.  1.
          5    1    4    4  501    0 -0.18267620797E+02  0.40840108312E+02  0.13763203176E+01  0.44955389823E+02  0.41800000000E+01 0. -1.
         -5    1    4    4    0  501 -0.94312455816E+02  0.13823484733E+02  0.21033845117E+03  0.23096680388E+03  0.41800000000E+01 0. -1.
</event>
<event>
11    1  0.8039394E-009  0.1278047E+03  0.7561462E-02  0.1121996E+00
         22   -1    0    0    0    0  0.00000000000E+00  0.00000000000E+00  0.67115376202E+03  0.67115376202E+03  0.00000000000E+00 0.  1.
         22   -1    0    0    0    0 -0.00000000000E+00 -0.00000000000E+00 -0.31489297988E+03  0.31489297988E+03  0.00000000000E+00 0.  1.
        -24    2    1    2    0    0  0.25779502113E+02 -0.36665040343E+01 -0.28794939885E+03  0.29955526604E+03  0.78361183830E+02 0.  0.
         25    2    1    2    0    0 -0.27745875240E+02  0.29392136108E+01  0.21626179647E+03  0.25139872084E+03  0.12511466605E+03 0.  0.
         24    2    1    2    0    0  0.19663731270E+01  0.72729042344E+00  0.42794838452E+03  0.43509275502E+03  0.78495159606E+02 0.  0.
        -11    1    5    5    0    0 -0.31737866657E+02  0.21613404519E+02  0.23443976109E+03  0.23756353469E+03  0.00000000000E+00 0.  1.
         12    1    5    5    0    0  0.33704239784E+02 -0.20886114096E+02  0.19350862343E+03  0.19752922033E+03  0.00000000000E+00 0. -1.
         13    1    3    3    0    0 -0.17520995566E+02  0.22627383468E+02 -0.66695303046E+02  0.72575803245E+02  0.00000000000E+00 0. -1.
        -14    1    3    3    0    0  0.43300497679E+02 -0.26293887502E+02 -0.22125409580E+03  0.22697946279E+03  0.00000000000E+00 0.  1.
          5    1    4    4  501    0 -0.69328344672E+02  0.31353135844E+02  0.14799850918E+03  0.16646461973E+03  0.41800000000E+01 0. -1.
         -5    1    4    4    0  501  0.41582469432E+02 -0.28413922233E+02  0.68263287290E+02  0.84934101116E+02  0.41800000000E+01 0. -1.
</event>
<event>
11    1  0.8039394E-009  0.1753829E+03  0.7561462E-02  0.1073440E+00
         22   -1    0    0    0    0  0.00000000000E+00  0.00000000000E+00  0.36044182909E+03  0.36044182909E+03  0.00000000000E+00 0.  1.
         22   -1    0    0    0    0 -0.00000000000E+00 -0.00000000000E+00 -0.12960254325E+04  0.12960254325E+04  0.00000000000E+00 0. -1.
         24    2    1    2    0    0  0.42537234144E+01 -0.12006638832E+03 -0.11012518905E+04  0.11115256955E+04  0.91102215913E+02 0.  0.
         25    2    1    2    0    0  0.65825902851E+02  0.15798495963E+03 -0.11554536658E+03  0.24143312342E+03  0.12508766682E+03 0.  0.
        -24    2    1    2    0    0 -0.70079626265E+02 -0.37918571307E+02  0.28121365370E+03  0.30350844260E+03  0.81775813279E+02 0.  0.
        -13    1    3    3    0    0  0.27084628994E+02 -0.80428522891E+02 -0.40623093950E+03  0.41500108510E+03  0.00000000000E+00 0.  1.
         14    1    3    3    0    0 -0.22830905579E+02 -0.39637865431E+02 -0.69502095101E+03  0.69652461045E+03  0.00000000000E+00 0. -1.
         13    1    5    5    0    0  0.17139323105E+02  0.14870604317E+01  0.61359460493E+02  0.63725592483E+02  0.00000000000E+00 0. -1.
        -14    1    5    5    0    0 -0.87218949370E+02 -0.39405631738E+02  0.21985419321E+03  0.23978285012E+03  0.00000000000E+00 0.  1.
          5    1    4    4  501    0  0.18256203306E+02 -0.14633905164E+02  0.65731646279E+01  0.24660069600E+02  0.41800000000E+01 0.  1.
         -5    1    4    4    0  501  0.47569699545E+02  0.17261886479E+03 -0.12211853121E+03  0.21677305382E+03  0.41800000000E+01 0.  1.
</event>
<event>
11    1  0.8039394E-009  0.1584895E+03  0.7561462E-02  0.1088507E+00
         22   -1    0    0    0    0  0.00000000000E+00  0.00000000000E+00  0.23460526449E+03  0.23460526449E+03  0.00000000000E+00 0. -1.
         22   -1    0    0    0    0 -0.00000000000E+00 -0.00000000000E+00 -0.59635376004E+03  0.59635376004E+03  0.00000000000E+00 0. -1.
         24    2    1    2    0    0  0.85734734312E+02  0.30684804825E+02 -0.28453630191E+03  0.31035682786E+03  0.84074083899E+02 0.  0.
         25    2    1    2    0    0 -0.10255547327E+03 -0.36315744666E+02 -0.26672941012E+03  0.31405189014E+03  0.12509017973E+03 0.  0.
        -24    2    1    2    0    0  0.16820738959E+02  0.56309398410E+01  0.18951721648E+03  0.20655030653E+03  0.80197313191E+02 0.  0.
        -11    1    3    3    0    0  0.40662210141E+02 -0.28404700301E+02 -0.11655489030E+03  0.12666998376E+03  0.00000000000E+00 0.  1.
         12    1    3    3    0    0  0.45072524171E+02  0.59089505126E+02 -0.16798141160E+03  0.18368684410E+03  0.00000000000E+00 0. -1.
         13    1    5    5    0    0  0.21503310530E+02  0.50186107712E+01  0.19671018808E+03  0.19794564130E+03  0.00000000000E+00 0. -1.
        -14    1    5    5    0    0 -0.46825715711E+01  0.61232906981E+00 -0.71929715927E+01  0.86046652312E+01  0.00000000000E+00 0.  1.
          5    1    4    4  501    0 -0.23110654402E+02 -0.38337096870E+02 -0.21380242972E+03  0.21847834377E+03  0.41800000000E+01 0.  1.
         -5    1    4    4    0  501 -0.79444818868E+02  0.20213522044E+01 -0.52926980402E+02  0.95573546362E+02  0.41800000000E+01 0.  1.
</event>
<event>
11    1  0.8039394E-009  0.1649368E+03  0.7561462E-02  0.1082524E+00
         22   -1    0    0    0    0  0.00000000000E+00  0.00000000000E+00  0.10692657396E+04  0.10692657396E+04  0.00000000000E+00 0.  1.
         22   -1    0    0    0    0 -0.00000000000E+00 -0.00000000000E+00 -0.99114752422E+02  0.99114752422E+02  0.00000000000E+00 0.  1.
         24    2    1    2    0    0  0.79159039308E+02  0.10082998880E+02 -0.10361036653E+02  0.11838329442E+03  0.86829908130E+02 0.  0.
         25    2    1    2    0    0 -0.15211296114E+03 -0.72125564136E+02  0.35337896068E+03  0.41092974900E+03  0.12508444672E+03 0.  0.
        -24    2    1    2    0    0  0.72953921833E+02  0.62042565256E+02  0.62713306318E+03  0.63906744863E+03  0.77069905653E+02 0.  0.
        -13    1    3    3    0    0  0.56104144917E+02  0.47591679746E+02 -0.10763509055E+02  0.74353857903E+02  0.00000000000E+00 0.  1.
         14    1    3    3    0    0  0.23054894391E+02 -0.37508680866E+02  0.40247240208E+00  0.44029436514E+02  0.00000000000E+00 0. -1.
         13    1    5    5    0    0 -0.11184339689E+02 -0.12340669241E+01  0.15175972562E+03  0.15217630136E+03  0.00000000000E+00 0. -1.
        -14    1    5    5    0    0  0.84138261522E+02  0.63276632180E+02  0.47537333756E+03  0.48689114728E+03  0.00000000000E+00 0.  1.
          5    1    4    4  501    0 -0.93686760370E+02 -0.75056191017E+02  0.32355846963E+03  0.34513504103E+03  0.41800000000E+01 0. -1.
         -5    1    4    4    0  501 -0.58426200771E+02  0.29306268817E+01  0.29820491057E+02  0.65794707974E+02  0.41800000000E+01 0. -1.
</event>
<event>
11    1  0.8039394E-009  0.1423295E+03  0.7561462E-02  0.1104985E+00
         22   -1    0    0    0    0  0.00000000000E+00  0.00000000000E+00  0.19936706370E+03  0.19936706370E+03  0.00000000000E+00 0. -1.
         22   -1    0    0    0    0 -0.00000000000E+00 -0.00000000000E+00 -0.11167098235E+04  0.11167098235E+04  0.00000000000E+00 0.  1.
         24    2    1    2    0    0 -0.31629512632E+02  0.53215300663E+02 -0.74181202035E+03  0.74877743963E+03  0.80933838776E+02 0.  0.
         25    2    1    2    0    0  0.76365429144E+02 -0.68737302559E+02 -0.34115915152E+03  0.37761729563E+03  0.12509500293E+03 0.  0.
        -24    2    1    2    0    0 -0.44735916512E+02  0.15522001896E+02  0.16562841208E+03  0.18968215194E+03  0.79399704712E+02 0.  0.
        -13    1    3    3    0    0 -0.54297796630E+02  0.35788342824E+02 -0.63076231044E+03  0.63410578650E+03  0.00000000000E+00 0.  1.
         14    1    3    3    0    0  0.22668283999E+02  0.17426957838E+02 -0.11104970991E+03  0.11467165312E+03  0.00000000000E+00 0. -1.
         11    1    5    5    0    0 -0.28880459560E+02  0.11256182012E+02  0.16990969192E+03  0.17271388475E+03  0.00000000000E+00 0. -1.
        -12    1    5    5    0    0 -0.15855456952E+02  0.42658198846E+01 -0.42812798386E+01  0.16968267192E+02  0.00000000000E+00 0.  1.
          5    1    4    4  501    0  0.99905620016E+02 -0.13690655430E+02 -0.23309627118E+03  0.25400769869E+03  0.41800000000E+01 0.  1.
         -5    1    4    4    0  501 -0.23540190872E+02 -0.55046647129E+02 -0.10806288035E+03  0.12360959694E+03  0.41800000000E+01 0.  1.
</event>
<event>
11    1  0.8039394E-009  0.1364248E+03  0.7561462E-02  0.1111618E+00
         22   -1    0    0    0    0  0.00000000000E+00  0.00000000000E+00  0.44562069251E+02  0.44562069251E+02  0.00000000000E+00 0. -1.
         22   -1    0    0    0    0 -0.00000000000E+00 -0.00000000000E+00 -0.21937600337E+04  0.21937600337E+04  0.00000000000E+00 0.  1.
        -24    2    1    2    0    0  0.57201437711E+02 -0.17689563028E+01 -0.16000646031E+04  0.16030369354E+04  0.79028783297E+02 0.  0.
         25    2    1    2    0    0 -0.33425341763E+02  0.46293457078E+02 -0.51340989855E+03  0.53150492151E+03  0.12508964790E+03 0.  0.
         24    2    1    2    0    0 -0.23776095948E+02 -0.44524500775E+02 -0.35723462826E+02  0.10378024604E+03  0.83345304393E+02 0.  0.
        -11    1    5    5    0    0 -0.12605827113E+02 -0.41708325869E+02 -0.61601744213E+02  0.75453735587E+02  0.00000000000E+00 0.  1.
         12    1    5    5    0    0 -0.11170268835E+02 -0.28161749066E+01  0.25878281388E+02  0.28326510454E+02  0.00000000000E+00 0. -1.
         13    1    3    3    0    0 -0.20598743047E+01  0.19953271547E+02 -0.12304400232E+03  0.12466837063E+03  0.00000000000E+00 0. -1.
        -14    1    3    3    0    0  0.59261312016E+02 -0.21722227850E+02 -0.14770206008E+04  0.14783685648E+04  0.00000000000E+00 0.  1.
          5    1    4    4  501    0 -0.58335349873E+02  0.26546481631E+02 -0.11430111289E+03  0.13111043262E+03  0.41800000000E+01 0. -1.
         -5    1    4    4    0  501  0.24910008109E+02  0.19746975447E+02 -0.39910878566E+03  0.40039448889E+03  0.41800000000E+01 0. -1.
</event>
<event>
11    1  0.8039394E-009  0.3073947E+03  0.7561462E-02  0.9971093E-01
         22   -1    0    0    0    0  0.00000000000E+00  0.00000000000E+00  0.61919642800E+03  0.61919642800E+03  0.00000000000E+00 0. -1.
         22   -1    0    0    0    0 -0.00000000000E+00 -0.00000000000E+00 -0.65124943125E+03  0.65124943125E+03  0.00000000000E+00 0.  1.
        -24    2    1    2    0    0 -0.29575968243E+03  0.44345338154E+02 -0.50184887141E+03  0.58975600558E+03  0.80743777570E+02 0.  0.
         25    2    1    2    0    0  0.18974874934E+03 -0.11367866508E+03  0.86481808536E+02  0.26842733472E+03  0.12508678607E+03 0.  0.
         24    2    1    2    0    0  0.10601093309E+03  0.69333326923E+02  0.38331405962E+03  0.41226251894E+03  0.83578035779E+02 0.  0.
        -11    1    5    5    0    0  0.25575923513E+02  0.43366319758E+02  0.61220841207E+02  0.79263843907E+02  0.00000000000E+00 0.  1.
         12    1    5    5    0    0  0.80435009581E+02  0.25967007166E+02  0.32209321841E+03  0.33299867504E+03  0.00000000000E+00 0. -1.
         13    1    3    3    0    0 -0.19370572499E+03 -0.87149626553E+01 -0.29354860052E+03  0.35180767378E+03  0.00000000000E+00 0. -1.
        -14    1    3    3    0    0 -0.10205395745E+03  0.53060300810E+02 -0.20830027089E+03  0.23794833180E+03  0.00000000000E+00 0.  1.
          5    1    4    4  501    0  0.10314329835E+03 -0.44418116804E+02 -0.20558319729E+02  0.11424371319E+03  0.41800000000E+01 0.  1.
         -5    1    4    4    0  501  0.86605450995E+02 -0.69260548273E+02  0.10704012827E+03  0.15418362153E+03  0.41800000000E+01 0.  1.
</event>
<event>
11    1  0.8039394E-009  0.2207601E+03  0.7561462E-02  0.1040742E+00
         22   -1    0    0    0    0  0.00000000000E+00  0.00000000000E+00  0.35984007388E+03  0.35984007388E+03  0.00000000000E+00 0.  1.
         22   -1    0    0    0    0 -0.00000000000E+00 -0.00000000000E+00 -0.25616380995E+04  0.25616380995E+04  0.00000000000E+00 0. -1.
        -24    2    1    2    0    0  0.43442146364E+02  0.40952493717E+02 -0.23867825593E+04  0.23888275423E+04  0.78750967407E+02 0.  0.
         25    2    1    2    0    0 -0.15364918552E+03 -0.16934256073E+03 -0.12407195406E+02  0.26093354470E+03  0.12508957258E+03 0.  0.
         24    2    1    2    0    0  0.11020703916E+03  0.12839006701E+03  0.19739172907E+03  0.27171708636E+03  0.78975182985E+02 0.  0.
        -13    1    5    5    0    0  0.69241789091E+02  0.11411569394E+03  0.10563462812E+03  0.17022188936E+03  0.00000000000E+00 0.  1.
         14    1    5    5    0    0  0.40965250067E+02  0.14274373074E+02  0.91757100942E+02  0.10149519699E+03  0.00000000000E+00 0. -1.
         11    1    3    3    0    0  0.40086969756E+02  0.28552558435E+02 -0.23334785156E+04  0.23339974714E+04  0.00000000000E+00 0. -1.
        -12    1    3    3    0    0  0.33551766077E+01  0.12399935281E+02 -0.53304043699E+02  0.54830070944E+02  0.00000000000E+00 0.  1.
          5    1    4    4  501    0 -0.14226963737E+03 -0.68065941101E+02  0.28758628634E+01  0.15779532643E+03  0.41800000000E+01 0.  1.
         -5    1    4    4    0  501 -0.11379548152E+02 -0.10127661962E+03 -0.15283058269E+02  0.10313821827E+03  0.41800000000E+01 0.  1.
</event>
<event>
11    1  0.8039394E-009  0.2394255E+03  0.7561462E-02  0.1029688E+00
         22   -1    0    0    0    0  0.00000000000E+00  0.00000000000E+00  0.21088696340E+04  0.21088696340E+04  0.00000000000E+00 0. -1.
         22   -1    0    0    0    0 -0.00000000000E+00 -0.00000000000E+00 -0.58370626254E+03  0.58370626254E+03  0.00000000000E+00 0.  1.
        -24    2    1    2    0    0  0.14910884808E+03  0.13796801039E+03 -0.45927590955E+03  0.50865823898E+03  0.80809792256E+02 0.  0.
         25    2    1    2    0    0 -0.10755122701E+03 -0.19191328905E+03  0.64638684672E+02  0.26119677146E+03  0.12509043497E+03 0.  0.
         24    2    1    2    0    0 -0.41557621068E+02  0.53945278655E+02  0.19198005963E+04  0.19227208861E+04  0.81142758027E+02 0.  0.
        -13    1    5    5    0    0  0.89458381028E+01  0.13508680532E+02  0.72528354355E+02  0.74316045741E+02  0.00000000000E+00 0.  1.
         14    1    5    5    0    0 -0.50503459171E+02  0.40436598122E+02  0.18472722420E+04  0.18484048403E+04  0.00000000000E+00 0. -1.
         13    1    3    3    0    0  0.18585043846E+02 -0.10174853186E+02 -0.44077344116E+02  0.48905457327E+02  0.00000000000E+00 0. -1.
        -14    1    3    3    0    0  0.13052380423E+03  0.14814286358E+03 -0.41519856543E+03  0.45975278165E+03  0.00000000000E+00 0.  1.
          5    1    4    4  501    0 -0.10786005495E+02 -0.66794218008E+02  0.76878974539E+02  0.10249709557E+03  0.41800000000E+01 0.  1.
         -5    1    4    4    0  501 -0.96765221517E+02 -0.12511907104E+03 -0.12240289867E+02  0.15869967589E+03  0.41800000000E+01 0.  1.
</event>
<event>
11    1  0.8039394E-009  0.2056203E+03  0.7561462E-02  0.1050619E+00
         22   -1    0    0    0    0  0.00000000000E+00  0.00000000000E+00  0.18309066699E+03  0.18309066699E+03  0.00000000000E+00 0. -1.
         22   -1    0    0    0    0 -0.00000000000E+00 -0.00000000000E+00 -0.73293430921E+03  0.73293430921E+03  0.00000000000E+00 0. -1.
        -24    2    1    2    0    0 -0.26121127103E+02  0.10784460346E+03 -0.39621521506E+03  0.41936510775E+03  0.81042119729E+02 0.  0.
         25    2    1    2    0    0 -0.14055535479E+03 -0.59496900943E+02 -0.21871510905E+03  0.29458090217E+03  0.12508365208E+03 0.  0.
         24    2    1    2    0    0  0.16667648189E+03 -0.48347702518E+02  0.65086681895E+02  0.20207896628E+03  0.80505170621E+02 0.  0.
        -13    1    5    5    0    0  0.17843103458E+02  0.15015436714E+02  0.27412032408E+02  0.35989709660E+02  0.00000000000E+00 0.  1.
         14    1    5    5    0    0  0.14883337844E+03 -0.63363139232E+02  0.37674649487E+02  0.16608925662E+03  0.00000000000E+00 0. -1.
         11    1    3    3    0    0 -0.31042573439E+01  0.11362834099E+03 -0.32890933319E+03  0.34799768066E+03  0.00000000000E+00 0. -1.
        -12    1    3    3    0    0 -0.23016869759E+02 -0.57837375267E+01 -0.67305881879E+02  0.71367427085E+02  0.00000000000E+00 0.  1.
          5    1    4    4  501    0 -0.15462210076E+03 -0.58214723056E+02 -0.14642321838E+03  0.22080348572E+03  0.41800000000E+01 0. -1.
         -5    1    4    4    0  501  0.14066745971E+02 -0.12821778865E+01 -0.72291890670E+02  0.73777416457E+02  0.41800000000E+01 0. -1.
</event>
<event>
11    1  0.8039394E-009  0.1509831E+03  0.7561462E-02  0.1095878E+00
         22   -1    0    0    0    0  0.00000000000E+00  0.00000000000E+00  0.74691317251E+03  0.74691317251E+03  0.00000000000E+00 0.  1.
         22   -1    0    0    0    0 -0.00000000000E+00 -0.00000000000E+00 -0.46888635558E+03  0.46888635558E+03  0.00000000000E+00 0. -1.
        -24    2    1    2    0    0  0.38716339123E+02 -0.36754109728E+01 -0.20615814764E+03  0.22406947933E+03  0.78698705003E+02 0.  0.
         25    2    1    2    0    0 -0.19253173872E+02  0.86076729309E+02 -0.22539655812E+03  0.27244683736E+03  0.12507510841E+03 0.  0.
         24    2    1    2    0    0 -0.19463165250E+02 -0.82401318336E+02  0.70958152269E+03  0.71928321139E+03  0.81814477851E+02 0.  0.
        -13    1    5    5    0    0 -0.16917043643E+02 -0.93492322897E+02  0.47407475379E+03  0.48350167837E+03  0.00000000000E+00 0.  1.
         14    1    5    5    0    0 -0.25461216070E+01  0.11091004560E+02  0.23550676890E+03  0.23578153302E+03  0.00000000000E+00 0. -1.
         13    1    3    3    0    0  0.29919428255E+01  0.18221830413E+02 -0.16254118087E+03  0.16358674245E+03  0.00000000000E+00 0. -1.
        -14    1    3    3    0    0  0.35724396297E+02 -0.21897241386E+02 -0.43616966771E+02  0.60482736888E+02  0.00000000000E+00 0.  1.
          5    1    4    4  501    0  0.18937956345E+02  0.10472268719E+03 -0.18606042470E+03  0.21438619695E+03  0.41800000000E+01 0. -1.
         -5    1    4    4    0  501 -0.38191130217E+02 -0.18645957884E+02 -0.39336133422E+02  0.58060640414E+02  0.41800000000E+01 0. -1.
</event>
<event>
11    1  0.8039394E-009  0.1766279E+03  0.7561462E-02  0.1072404E+00
         22   -1    0    0    0    0  0.00000000000E+00  0.00000000000E+00  0.87245308650E+03  0.87245308650E+03  0.00000000000E+00 0. -1.
         22   -1    0    0    0    0 -0.00000000000E+00 -0.00000000000E+00 -0.40693963012E+03  0.40693963012E+03  0.00000000000E+00 0. -1.
         24    2    1    2    0    0  0.86684504612E+02  0.88918716309E+02 -0.33274177144E+03  0.36490974597E+03  0.83793166748E+02 0.  0.
         25    2    1    2    0    0 -0.91128169889E+02 -0.91802143297E+02  0.88976608999E+02  0.20074102138E+03  0.12509254117E+03 0.  0.
        -24    2    1    2    0    0  0.44436652772E+01  0.28834269872E+01  0.70927861883E+03  0.71374194926E+03  0.79519498863E+02 0.  0.
        -13    1    3    3    0    0  0.94590844706E+02  0.49338560923E+02 -0.20741476498E+03  0.23324366278E+03  0.00000000000E+00 0.  1.
         14    1    3    3    0    0 -0.79063400941E+01  0.39580155387E+02 -0.12532700646E+03  0.13166608319E+03  0.00000000000E+00 0. -1.
         11    1    5    5    0    0  0.28957155153E+02 -0.11320341816E+02  0.60146412931E+03  0.60226718807E+03  0.00000000000E+00 0. -1.
        -12    1    5    5    0    0 -0.24513489876E+02  0.14203768803E+02  0.10781448952E+03  0.11147476120E+03  0.00000000000E+00 0.  1.
          5    1    4    4  501    0 -0.44266481911E+02 -0.48524572652E+02 -0.24721125656E+02  0.70304779536E+02  0.41800000000E+01 0. -1.
         -5    1    4    4    0  501 -0.46861687978E+02 -0.43277570644E+02  0.11369773466E+03  0.13043624185E+03  0.41800000000E+01 0. -1.
</event>
<event>
11    1  0.8039394E-009  0.1566696E+03  0.7561462E-02  0.1090252E+00
         22   -1    0    0    0    0  0.00000000000E+00  0.00000000000E+00  0.23539652193E+04  0.23539652193E+04  0.00000000000E+00 0. -1.
         22   -1    0    0    0    0 -0.00000000000E+00 -0.00000000000E+00 -0.16610071799E+03  0.16610071799E+03  0.00000000000E+00 0. -1.
         24    2    1    2    0    0  0.29335453139E+02  0.71842605091E+02 -0.13554709284E+03  0.17564887185E+03  0.80359088385E+02 0.  0.
         25    2    1    2    0    0 -0.97020672993E+02  0.25525885993E+01  0.76604871454E+03  0.78224206043E+03  0.12510987714E+03 0.  0.
        -24    2    1    2    0    0  0.67685219854E+02 -0.74395193691E+02  0.15573628796E+04  0.15621750050E+04  0.69969090675E+02 0.  0.
        -13    1    3    3    0    0 -0.20444160140E+01  0.44742763911E+02 -0.13543279110E+02  0.46792253293E+02  0.00000000000E+00 0.  1.
         14    1    3    3    0    0  0.31379869153E+02  0.27099841181E+02 -0.12200381373E+03  0.12885661855E+03  0.00000000000E+00 0. -1.
         13    1    5    5    0    0  0.36726295970E+02 -0.41001365504E+02  0.12729686267E+04  0.12741581759E+04  0.00000000000E+00 0. -1.
        -14    1    5    5    0    0  0.30958923884E+02 -0.33393828187E+02  0.28439425288E+03  0.28801682902E+03  0.00000000000E+00 0.  1.
          5    1    4    4  501    0 -0.91017313082E+02 -0.42239858668E+02  0.64860113347E+03  0.65633014533E+03  0.41800000000E+01 0. -1.
         -5    1    4    4    0  501 -0.60033599110E+01  0.44792447267E+02  0.11744758107E+03  0.12591191509E+03  0.41800000000E+01 0. -1.
</event>
<event>
11    1  0.8039394E-009  0.1473661E+03  0.7561462E-02  0.1099601E+00
         22   -1    0    0    0    0  0.00000000000E+00  0.00000000000E+00  0.15121775037E+04  0.15121775037E+04  0.00000000000E+00 0. -1.
         22   -1    0    0    0    0 -0.00000000000E+00 -0.00000000000E+00 -0.21044464817E+03  0.21044464817E+03  0.00000000000E+00 0. -1.
         24    2    1    2    0    0 -0.45754337971E+02 -0.35904089943E+02 -0.14021526313E+03  0.17340678505E+03  0.83827381973E+02 0.  0.
         25    2    1    2    0    0 -0.30234029557E+02  0.98417097918E+01  0.29971164412E+02  0.13249851727E+03  0.12508649243E+03 0.  0.
        -24    2    1    2    0    0  0.75988367528E+02  0.26062380151E+02  0.14119769543E+04  0.14167168496E+04  0.83392042852E+02 0.  0.
        -11    1    3    3    0    0 -0.66239039508E+01 -0.77823511885E+00 -0.11481749619E+03  0.11501103940E+03  0.00000000000E+00 0.  1.
         12    1    3    3    0    0 -0.39130434020E+02 -0.35125854824E+02 -0.25397766938E+02  0.58395745643E+02  0.00000000000E+00 0. -1.
         11    1    5    5    0    0  0.52922276040E+02 -0.69240123614E+01  0.11848030420E+04  0.11860046196E+04  0.00000000000E+00 0. -1.
        -12    1    5    5    0    0  0.23066091488E+02  0.32986392513E+02  0.22717391221E+03  0.23071222997E+03  0.00000000000E+00 0.  1.
          5    1    4    4  501    0 -0.50462185057E+02 -0.37500516589E+01 -0.35870953609E+02  0.62166652805E+02  0.41800000000E+01 0. -1.
         -5    1    4    4    0  501  0.20228155500E+02  0.13591761451E+02  0.65842118021E+02  0.70331864469E+02  0.41800000000E+01 0. -1.
</event>
<event>
11    1  0.8039394E-009  0.1494465E+03  0.7561462E-02  0.1097446E+00
         22   -1    0    0    0    0  0.00000000000E+00  0.00000000000E+00  0.15247346424E+04  0.15247346424E+04  0.00000000000E+00 0.  1.
         22   -1    0    0    0    0 -0.00000000000E+00 -0.00000000000E+00 -0.35997851895E+03  0.35997851895E+03  0.00000000000E+00 0. -1.
         24    2    1    2    0    0  0.43059750659E+02 -0.48768968244E+02 -0.29733697835E+03  0.31512534407E+03  0.81621990862E+02 0.  0.
         25    2    1    2    0    0 -0.83644899503E+02 -0.23214095151E+02  0.61121724375E+02  0.16406820544E+03  0.12508855830E+03 0.  0.
        -24    2    1    2    0    0  0.40585148844E+02  0.71983063396E+02  0.14009713774E+04  0.14055196118E+04  0.77044553401E+02 0.  0.
        -13    1    3    3    0    0  0.24739611765E+02  0.20390180608E+02 -0.75119014649E+02  0.81674195542E+02  0.00000000000E+00 0.  1.
         14    1    3    3    0    0  0.18320138894E+02 -0.69159148853E+02 -0.22221796370E+03  0.23345114853E+03  0.00000000000E+00 0. -1.
         11    1    5    5    0    0  0.38456223353E+02  0.87580891972E+01  0.27994636980E+03  0.28271108080E+03  0.00000000000E+00 0. -1.
        -12    1    5    5    0    0  0.21289254908E+01  0.63224974199E+02  0.11210250076E+04  0.11228085310E+04  0.00000000000E+00 0.  1.
          5    1    4    4  501    0  0.10244418616E+02  0.38201077352E+02  0.19881166476E+02  0.44463508679E+02  0.41800000000E+01 0. -1.
         -5    1    4    4    0  501 -0.93889318119E+02 -0.61415172503E+02  0.41240557900E+02  0.11960469676E+03  0.41800000000E+01 0. -1.
</event>
<event>
11    1  0.8039394E-009  0.1617072E+03  0.7561462E-02  0.1085483E+00
         22   -1    0    0    0    0  0.00000000000E+00  0.00000000000E+00  0.29827924694E+03  0.29827924694E+03  0.00000000000E+00 0. -1.
         22   -1    0    0    0    0 -0.00000000000E+00 -0.00000000000E+00 -0.76233583918E+03  0.76233583918E+03  0.00000000000E+00 0.  1.
        -24    2    1    2    0    0 -0.10266095219E+03  0.17066320153E+00 -0.69973847046E+03  0.71165512857E+03  0.79245156012E+02 0.  0.
         25    2    1    2    0    0  0.96684458619E+02 -0.42252450903E+02  0.14352637854E+03  0.21766898200E+03  0.12508721055E+03 0.  0.
         24    2    1    2    0    0  0.59764935697E+01  0.42081787702E+02  0.92155499677E+02  0.13129097555E+03  0.83295190793E+02 0.  0.
        -11    1    5    5    0    0 -0.32362869385E+02  0.14947794887E+02  0.10623835081E+02  0.37197550439E+02  0.00000000000E+00 0.  1.
         12    1    5    5    0    0  0.38339362955E+02  0.27133992815E+02  0.81531664596E+02  0.94093425114E+02  0.00000000000E+00 0. -1.
         13    1    3    3    0    0 -0.75422810493E+02  0.20859612897E+02 -0.28623145599E+03  0.29673585930E+03  0.00000000000E+00 0. -1.
        -14    1    3    3    0    0 -0.27238141695E+02 -0.20688949695E+02 -0.41350701446E+03  0.41491926927E+03  0.00000000000E+00 0.  1.
          5    1    4    4  501    0  0.50187237061E+02 -0.76502410620E+02  0.41931280061E+02  0.10073272677E+03  0.41800000000E+01 0.  1.
         -5    1    4    4    0  501  0.46497221558E+02  0.34249959717E+02  0.10159509848E+03  0.11693625523E+03  0.41800000000E+01 0.  1.
</event>
<event>
11    1  0.8039394E-009  0.2317265E+03  0.7561462E-02  0.1034111E+00
         22   -1    0    0    0    0  0.00000000000E+00  0.00000000000E+00  0.11433856072E+04  0.11433856072E+04  0.00000000000E+00 0. -1.
         22   -1    0    0    0    0 -0.00000000000E+00 -0.00000000000E+00 -0.23287131796E+03  0.23287131796E+03  0.00000000000E+00 0.  1.
         24    2    1    2    0    0 -0.15313923855E+03 -0.91413183131E+02 -0.57089263281E+02  0.20655104005E+03  0.87155904722E+02 0.  0.
         25    2    1    2    0    0  0.17327177108E+03  0.16887342139E+03  0.92799459043E+02  0.28775069426E+03  0.12508950133E+03 0.  0.
        -24    2    1    2    0    0 -0.20132532526E+02 -0.77460238255E+02  0.87480409352E+03  0.88195519091E+03  0.78468779461E+02 0.  0.
        -11    1    3    3    0    0 -0.13598677668E+03 -0.52989124666E+02 -0.14473739630E+02  0.14666199203E+03  0.00000000000E+00 0.  1.
         12    1    3    3    0    0 -0.17152461870E+02 -0.38424058465E+02 -0.42615523650E+02  0.59889048023E+02  0.00000000000E+00 0. -1.
         13    1    5    5    0    0 -0.40475289209E+02 -0.64338530284E+02  0.44305651639E+03  0.44952950096E+03  0.00000000000E+00 0. -1.
        -14    1    5    5    0    0  0.20342756683E+02 -0.13121707971E+02  0.43174757713E+03  0.43242568995E+03  0.00000000000E+00 0.  1.
          5    1    4    4  501    0  0.13146825911E+03  0.57978100115E+02  0.89072163428E+02  0.16910554676E+03  0.41800000000E+01 0.  1.
         -5    1    4    4    0  501  0.41803511970E+02  0.11089532127E+03  0.37272956158E+01  0.11864514750E+03  0.41800000000E+01 0.  1.
</event>
<event>
11    1  0.8039394E-009  0.8679237E+03  0.7561462E-02  0.8815904E-01
         22   -1    0    0    0    0  0.00000000000E+00  0.00000000000E+00  0.58459664688E+03  0.58459664688E+03  0.00000000000E+00 0.  1.
         22   -1    0    0    0    0 -0.00000000000E+00 -0.00000000000E+00 -0.17730073605E+04  0.17730073605E+04  0.00000000000E+00 0.  1.
        -24    2    1    2    0    0  0.88367215730E+03 -0.17986623221E+03 -0.81208374401E+03  0.12160039677E+04  0.77183541230E+02 0.  0.
         25    2    1    2    0    0 -0.77847732227E+03  0.32058190341E+03 -0.18643262417E+03  0.87132464177E+03  0.12509920035E+03 0.  0.
         24    2    1    2    0    0 -0.10519483504E+03 -0.14071567120E+03 -0.18989434549E+03  0.27027539798E+03  0.78243688954E+02 0.  0.
        -13    1    5    5    0    0 -0.82199032041E+02 -0.12151585457E+03 -0.10544339595E+03  0.18066846302E+03  0.00000000000E+00 0.  1.
         14    1    5    5    0    0 -0.22995802995E+02 -0.19199816633E+02 -0.84450949536E+02  0.89606934953E+02  0.00000000000E+00 0. -1.
         13    1    3    3    0    0  0.43907436345E+03 -0.12321411557E+03 -0.38304418845E+03  0.59555928774E+03  0.00000000000E+00 0. -1.
        -14    1    3    3    0    0  0.44459779386E+03 -0.56652116638E+02 -0.42903955557E+03  0.62044467994E+03  0.00000000000E+00 0.  1.
          5    1    4    4  501    0 -0.62788415406E+03  0.23187592047E+03 -0.19223030286E+03  0.69640140375E+03  0.41800000000E+01 0.  1.
         -5    1    4    4    0  501 -0.15059316821E+03  0.88705982945E+02  0.57976786955E+01  0.17492323802E+03  0.41800000000E+01 0.  1.
</event>
<event>
11    1  0.8039394E-009  0.1431544E+03  0.7561462E-02  0.1104086E+00
         22   -1    0    0    0    0  0.00000000000E+00  0.00000000000E+00  0.71728562891E+03  0.71728562891E+03  0.00000000000E+00 0. -1.
         22   -1    0    0    0    0 -0.00000000000E+00 -0.00000000000E+00 -0.11316047681E+04  0.11316047681E+04  0.00000000000E+00 0.  1.
        -24    2    1    2    0    0 -0.88121199886E+01 -0.69036680167E+02 -0.10918175284E+04  0.10970184535E+04  0.80871845969E+02 0.  0.
         25    2    1    2    0    0 -0.25163865342E+02  0.74063400461E+02  0.12475143213E+03  0.19320752376E+03  0.12509044732E+03 0.  0.
         24    2    1    2    0    0  0.33975985331E+02 -0.50267202948E+01  0.55274695706E+03  0.55866441972E+03  0.73464956429E+02 0.  0.
        -13    1    5    5    0    0  0.29602318933E+02  0.28800323909E+02  0.19680405387E+03  0.20109100319E+03  0.00000000000E+00 0.  1.
         14    1    5    5    0    0  0.43736663978E+01 -0.33827044204E+02  0.35594290319E+03  0.35757341653E+03  0.00000000000E+00 0. -1.
         11    1    3    3    0    0 -0.79000770539E+01 -0.37114141366E+02 -0.15221773375E+03  0.15687609498E+03  0.00000000000E+00 0. -1.
        -12    1    3    3    0    0 -0.91204293479E+00 -0.31922538801E+02 -0.93959979460E+03  0.94014235854E+03  0.00000000000E+00 0.  1.
          5    1    4    4  501    0  0.51989492887E+01 -0.34055084553E+02  0.36065283356E+02  0.50049524685E+02  0.41800000000E+01 0. -1.
         -5    1    4    4    0  501 -0.30362814631E+02  0.10811848501E+03  0.88686148772E+02  0.14315799907E+03  0.41800000000E+01 0. -1.
</event>
<event>
11    1  0.8039394E-009  0.1777519E+03  0.7561462E-02  0.1071476E+00
         22   -1    0    0    0    0  0.00000000000E+00  0.00000000000E+00  0.12416388900E+03  0.12416388900E+03  0.00000000000E+00 0.  1.
         22   -1    0    0    0    0 -0.00000000000E+00 -0.00000000000E+00 -0.24653509256E+04  0.24653509256E+04  0.00000000000E+00 0.  1.
        -24    2    1    2    0    0  0.83548338359E+02  0.86302588163E+02 -0.14681325045E+04  0.14752682484E+04  0.81085710630E+02 0.  0.
         25    2    1    2    0    0 -0.61972315965E+02 -0.13547066353E+03 -0.96438196373E+03  0.98380542820E+03  0.12509068696E+03 0.  0.
         24    2    1    2    0    0 -0.21576022394E+02  0.49168075371E+02  0.91327431639E+02  0.13044113797E+03  0.76099713053E+02 0.  0.
        -13    1    5    5    0    0  0.12626878456E+02  0.56689961923E+02  0.55210029627E+02  0.80133246620E+02  0.00000000000E+00 0.  1.
         14    1    5    5    0    0 -0.34202900850E+02 -0.75218865525E+01  0.36117402012E+02  0.50307891349E+02  0.00000000000E+00 0. -1.
         11    1    3    3    0    0 -0.10287552729E+02 -0.70125710754E+01 -0.14554067576E+03  0.14607223622E+03  0.00000000000E+00 0. -1.
        -12    1    3    3    0    0  0.93835891089E+02  0.93315159238E+02 -0.13225918287E+04  0.13291960122E+04  0.00000000000E+00 0.  1.
          5    1    4    4  501    0 -0.45886620544E+02 -0.15748590054E+03 -0.75577664861E+03  0.77338425495E+03  0.41800000000E+01 0. -1.
         -5    1    4    4    0  501 -0.16085695421E+02  0.22015237006E+02 -0.20860531512E+03  0.21042117325E+03  0.41800000000E+01 0. -1.
</event>
<event>
11    1  0.8039394E-009  0.1404899E+03  0.7561462E-02  0.1107013E+00
         22   -1    0    0    0    0  0.00000000000E+00  0.00000000000E+00  0.72464493385E+03  0.72464493385E+03  0.00000000000E+00 0.  1.
         22   -1    0    0    0    0 -0.00000000000E+00 -0.00000000000E+00 -0.36580017700E+03  0.36580017700E+03  0.00000000000E+00 0.  1.
        -24    2    1    2    0    0 -0.61666150969E+02 -0.26624321853E+02 -0.22546146094E+03  0.24880932356E+03  0.81003953170E+02 0.  0.
         25    2    1    2    0    0  0.61004767389E+02 -0.12812323460E+02 -0.87116670118E+02  0.16468852964E+03  0.12508900954E+03 0.  0.
         24    2    1    2    0    0  0.66138357959E+00  0.39436645314E+02  0.67142288791E+03  0.67694725765E+03  0.76767237836E+02 0.  0.
        -13    1    5    5    0    0 -0.11873064394E+02  0.53906797540E+02  0.61272525833E+03  0.61520659512E+03  0.00000000000E+00 0.  1.
         14    1    5    5    0    0  0.12534447974E+02 -0.14470152226E+02  0.58697629584E+02  0.61740662535E+02  0.00000000000E+00 0. -1.
         13    1    3    3    0    0  0.21863811427E+01 -0.19351473775E+00  0.64537377943E+01  0.68167765089E+01  0.00000000000E+00 0. -1.
        -14    1    3    3    0    0 -0.63852532112E+02 -0.26430807116E+02 -0.23191519873E+03  0.24199254705E+03  0.00000000000E+00 0.  1.
          5    1    4    4  501    0  0.13571058784E+02 -0.60711812964E+02 -0.72427961259E+02  0.95568717905E+02  0.41800000000E+01 0. -1.
         -5    1    4    4    0  501  0.47433708606E+02  0.47899489503E+02 -0.14688708859E+02  0.69119811738E+02  0.41800000000E+01 0. -1.
</event>
<event>
11    1  0.8039394E-009  0.1552297E+03  0.7561462E-02  0.1091652E+00
         22   -1    0    0    0    0  0.00000000000E+00  0.00000000000E+00  0.10720173118E+04  0.10720173118E+04  0.00000000000E+00 0.  1.
         22   -1    0    0    0    0 -0.00000000000E+00 -0.00000000000E+00 -0.15788273071E+04  0.15788273071E+04  0.00000000000E+00 0.  1.
         24    2    1    2    0    0 -0.14063418568E+02 -0.90373108033E+02 -0.15347005268E+04  0.15394684499E+04  0.79324163148E+02 0.  0.
         25    2    1    2    0    0  0.16135022559E+02  0.13148716448E+03  0.17177546538E+03  0.25040637077E+03  0.12508927466E+03 0.  0.
        -24    2    1    2    0    0 -0.20716039916E+01 -0.41114056448E+02  0.85611506615E+03  0.86096979822E+03  0.81494354280E+02 0.  0.
        -11    1    3    3    0    0 -0.14005909384E+02 -0.10346779088E+03 -0.12074243828E+04  0.12119304392E+04  0.00000000000E+00 0.  1.
         12    1    3    3    0    0 -0.57509183911E-01  0.13094682846E+02 -0.32727614402E+03  0.32753801072E+03  0.00000000000E+00 0. -1.
         13    1    5    5    0    0 -0.40540999550E+02 -0.14263788344E+02  0.33455549721E+03  0.33730462348E+03  0.00000000000E+00 0. -1.
        -14    1    5    5    0    0  0.38469395559E+02 -0.26850268104E+02  0.52155956893E+03  0.52366517474E+03  0.00000000000E+00 0.  1.
          5    1    4    4  501    0 -0.12901143470E+02  0.10377797910E+02  0.11000941536E+03  0.11132691526E+03  0.41800000000E+01 0. -1.
         -5    1    4    4    0  501  0.29036166029E+02  0.12110936657E+03  0.61766050020E+02  0.13907945551E+03  0.41800000000E+01 0. -1.
</event>
<event>
11    1  0.8039394E-009  0.1963730E+03  0.7561462E-02  0.1057119E+00
         22   -1    0    0    0    0  0.00000000000E+00  0.00000000000E+00  0.52426587618E+03  0.52426587618E+03  0.00000000000E+00 0.  1.
         22   -1    0    0    0    0 -0.00000000000E+00 -0.00000000000E+00 -0.15724541926E+04  0.15724541926E+04  0.00000000000E+00 0. -1.
         24    2    1    2    0    0 -0.49909018593E+02  0.15530771738E+02 -0.14927895569E+04  0.14957338351E+04  0.77890495449E+02 0.  0.
         25    2    1    2    0    0 -0.88654321420E+02  0.74107470274E+02  0.70465176194E+02  0.18429238556E+03  0.12508731535E+03 0.  0.
        -24    2    1    2    0    0  0.13856334001E+03 -0.89638242012E+02  0.37413606433E+03  0.41669384807E+03  0.80132108147E+02 0.  0.
        -11    1    3    3    0    0 -0.17841800296E+01  0.34407740772E+02 -0.91126387138E+03  0.91191497367E+03  0.00000000000E+00 0.  1.
         12    1    3    3    0    0 -0.48124838563E+02 -0.18876969034E+02 -0.58152568556E+03  0.58381886147E+03  0.00000000000E+00 0. -1.
         11    1    5    5    0    0  0.44848114183E+02 -0.55760943941E+02  0.86371357576E+02  0.11216348615E+03  0.00000000000E+00 0. -1.
        -12    1    5    5    0    0  0.93715225830E+02 -0.33877298072E+02  0.28776470676E+03  0.30453036192E+03  0.00000000000E+00 0.  1.
          5    1    4    4  501    0 -0.10041900759E+03  0.33915763458E+02  0.46558276501E+01  0.10617629315E+03  0.41800000000E+01 0.  1.
         -5    1    4    4    0  501  0.11764686167E+02  0.40191706816E+02  0.65809348544E+02  0.78116092408E+02  0.41800000000E+01 0.  1.
</event>
<event>
11    1  0.8039394E-009  0.1355605E+03  0.7561462E-02  0.1112620E+00
         22   -1    0    0    0    0  0.00000000000E+00  0.00000000000E+00  0.18145369280E+04  0.18145369280E+04  0.00000000000E+00 0. -1.
         22   -1    0    0    0    0 -0.00000000000E+00 -0.00000000000E+00 -0.27493014980E+02  0.27493014980E+02  0.00000000000E+00 0.  1.
         24    2    1    2    0    0  0.17497334591E+02  0.56485802416E+02  0.17653495283E+03  0.20193922437E+03  0.78218016949E+02 0.  0.
         25    2    1    2    0    0 -0.15582923969E+02 -0.37658870670E+02  0.30730777479E+03  0.33428078346E+03  0.12507819830E+03 0.  0.
        -24    2    1    2    0    0 -0.19144106216E+01 -0.18826931746E+02  0.13032011854E+04  0.13058099352E+04  0.80300303658E+02 0.  0.
        -13    1    3    3    0    0  0.11814349618E+01  0.13552080706E+02 -0.51447591666E+01  0.14543838108E+02  0.00000000000E+00 0.  1.
         14    1    3    3    0    0  0.16315899629E+02  0.42933721710E+02  0.18167971199E+03  0.18739538626E+03  0.00000000000E+00 0. -1.
         13    1    5    5    0    0 -0.19120972059E+02  0.12143388726E+02  0.10386455325E+04  0.10388924947E+04  0.00000000000E+00 0. -1.
        -14    1    5    5    0    0  0.17206561438E+02 -0.30970320472E+02  0.26455565296E+03  0.26691744045E+03  0.00000000000E+00 0.  1.
          5    1    4    4  501    0  0.44613187465E+02 -0.52887323189E+02  0.16233728032E+03  0.17651705423E+03  0.41800000000E+01 0. -1.
         -5    1    4    4    0  501 -0.60196111434E+02  0.15228452519E+02  0.14497049446E+03  0.15776372924E+03  0.41800000000E+01 0. -1.
</event>
<event>
11    1  0.8039394E-009  0.2078947E+03  0.7561462E-02  0.1049077E+00
         22   -1    0    0    0    0  0.00000000000E+00  0.00000000000E+00  0.28794640398E+03  0.28794640398E+03  0.00000000000E+00 0. -1.
         22   -1    0    0    0    0 -0.00000000000E+00 -0.00000000000E+00 -0.31120085253E+03  0.31120085253E+03  0.00000000000E+00 0.  1.
         24    2    1    2    0    0  0.61465929623E+02  0.16598121055E+03 -0.16353140762E+03  0.25557829274E+03  0.85146460198E+02 0.  0.
         25    2    1    2    0    0 -0.65942356602E+02 -0.12615999952E+03  0.16167104010E+02  0.19019349146E+03  0.12508976404E+03 0.  0.
        -24    2    1    2    0    0  0.44764269789E+01 -0.39821211033E+02  0.12410985506E+03  0.15337547231E+03  0.80715625122E+02 0.  0.
        -13    1    3    3    0    0  0.73315573816E+02  0.16600910369E+03 -0.13989986444E+03  0.22914224391E+03  0.00000000000E+00 0.  1.
         14    1    3    3    0    0 -0.11849644193E+02 -0.27893133450E-01 -0.23631543172E+02  0.26436048839E+02  0.00000000000E+00 0. -1.
         13    1    5    5    0    0 -0.28185406596E+01 -0.36215601277E+02  0.13498823193E+03  0.13979033124E+03  0.00000000000E+00 0. -1.
        -14    1    5    5    0    0  0.72949676386E+01 -0.36056097559E+01 -0.10878376877E+02  0.13585141075E+02  0.00000000000E+00 0.  1.
          5    1    4    4  501    0 -0.93527682024E+02 -0.47661876045E+02 -0.13461864296E+01  0.10506363001E+03  0.41800000000E+01 0.  1.
         -5    1    4    4    0  501  0.27585325422E+02 -0.78498123475E+02  0.17513290440E+02  0.85129861446E+02  0.41800000000E+01 0.  1.
</event>
<event>
11    1  0.8039394E-009  0.2217799E+03  0.7561462E-02  0.1040108E+00
         22   -1    0    0    0    0  0.00000000000E+00  0.00000000000E+00  0.56173554780E+03  0.56173554780E+03  0.00000000000E+00 0.  1.
         22   -1    0    0    0    0 -0.00000000000E+00 -0.00000000000E+00 -0.44622316014E+03  0.44622316014E+03  0.00000000000E+00 0.  1.
         24    2    1    2    0    0 -0.19286964917E+01  0.65757781195E+02 -0.34494274124E+03  0.36060576278E+03  0.81995217886E+02 0.  0.
         25    2    1    2    0    0 -0.89467719236E+02 -0.20479059974E+03  0.18716112755E+03  0.31720759753E+03  0.12509080598E+03 0.  0.
        -24    2    1    2    0    0  0.91396415727E+02  0.13903281854E+03  0.27329400135E+03  0.33014534763E+03  0.81381262900E+02 0.  0.
        -11    1    3    3    0    0  0.21264877736E+02  0.65615800879E+02 -0.31638138109E+03  0.32381291921E+03  0.00000000000E+00 0.  1.
         12    1    3    3    0    0 -0.23193574228E+02  0.14198031640E+00 -0.28561360155E+02  0.36792843568E+02  0.00000000000E+00 0. -1.
         11    1    5    5    0    0  0.10559702921E+02 -0.72499859884E+01  0.47675298161E+02  0.49366017435E+02  0.00000000000E+00 0. -1.
        -12    1    5    5    0    0  0.80836712807E+02  0.14628280453E+03  0.22561870319E+03  0.28077933020E+03  0.00000000000E+00 0.  1.
          5    1    4    4  501    0 -0.55139616100E+02 -0.23605934706E+02  0.90642138372E+01  0.60805014509E+02  0.41800000000E+01 0. -1.
         -5    1    4    4    0  501 -0.34328103136E+02 -0.18118466503E+03  0.17809691371E+03  0.25640258302E+03  0.41800000000E+01 0. -1.
</event>
<event>
11    1  0.8039394E-009  0.1407539E+03  0.7561462E-02  0.1106720E+00
         22   -1    0    0    0    0  0.00000000000E+00  0.00000000000E+00  0.14792895986E+04  0.14792895986E+04  0.00000000000E+00 0. -1.
         22   -1    0    0    0    0 -0.00000000000E+00 -0.00000000000E+00 -0.71660422913E+02  0.71660422913E+02  0.00000000000E+00 0.  1.
         24    2    1    2    0    0  0.63692522369E+01  0.12380703343E+00 -0.26187932965E+02  0.85719970398E+02  0.81372739844E+02 0.  0.
         25    2    1    2    0    0  0.15864216192E+02  0.60835578298E+02  0.35654281838E+03  0.38304353867E+03  0.12508769016E+03 0.  0.
        -24    2    1    2    0    0 -0.22233468429E+02 -0.60959385331E+02  0.10772742903E+04  0.10821865125E+04  0.79983607567E+02 0.  0.
        -13    1    3    3    0    0 -0.17522464667E+02  0.34476710367E+02 -0.55736685029E+01  0.39073598584E+02  0.00000000000E+00 0.  1.
         14    1    3    3    0    0  0.23891716904E+02 -0.34352903334E+02 -0.20614264462E+02  0.46646371814E+02  0.00000000000E+00 0. -1.
         11    1    5    5    0    0 -0.46580460551E+02 -0.36603268476E+02  0.87486150110E+03  0.87686497517E+03  0.00000000000E+00 0. -1.
        -12    1    5    5    0    0  0.24346992123E+02 -0.24356116856E+02  0.20241278919E+03  0.20532153730E+03  0.00000000000E+00 0.  1.
          5    1    4    4  501    0 -0.69403620703E+01  0.53191464386E+02  0.43880433424E+02  0.69429571125E+02  0.41800000000E+01 0. -1.
         -5    1    4    4    0  501  0.22804578262E+02  0.76441139119E+01  0.31266238496E+03  0.31361396754E+03  0.41800000000E+01 0. -1.
</event>
<event>
11    1  0.8039394E-009  0.1942497E+03  0.7561462E-02  0.1058666E+00
         22   -1    0    0    0    0  0.00000000000E+00  0.00000000000E+00  0.41149874002E+03  0.41149874002E+03  0.00000000000E+00 0. -1.
         22   -1    0    0    0    0 -0.00000000000E+00 -0.00000000000E+00 -0.80659737044E+03  0.80659737044E+03  0.00000000000E+00 0. -1.
         24    2    1    2    0    0  0.13130550812E+03  0.60494935422E+02 -0.69043499084E+03  0.70976370668E+03  0.78506490561E+02 0.  0.
         25    2    1    2    0    0 -0.22747525727E+03 -0.75497375943E+02  0.12924378768E+03  0.29965985808E+03  0.12508887820E+03 0.  0.
        -24    2    1    2    0    0  0.96169749150E+02  0.15002440521E+02  0.16609257275E+03  0.20867254570E+03  0.80522013967E+02 0.  0.
        -11    1    3    3    0    0  0.51934985731E+01 -0.96849719701E+01 -0.14959962714E+03  0.15000273181E+03  0.00000000000E+00 0.  1.
         12    1    3    3    0    0  0.12611200955E+03  0.70179907392E+02 -0.54083536370E+03  0.55976097487E+03  0.00000000000E+00 0. -1.
         11    1    5    5    0    0  0.78306322158E+02  0.41340008340E+02  0.14685597863E+03  0.17148631093E+03  0.00000000000E+00 0. -1.
        -12    1    5    5    0    0  0.17863426992E+02 -0.26337567819E+02  0.19236594119E+02  0.37186234763E+02  0.00000000000E+00 0.  1.
          5    1    4    4  501    0 -0.13318344939E+03 -0.86292889947E+02  0.28681726714E+02  0.16132082288E+03  0.41800000000E+01 0.  1.
         -5    1    4    4    0  501 -0.94291807876E+02  0.10795514004E+02  0.10056206097E+03  0.13833903520E+03  0.41800000000E+01 0.  1.
</event>
<event>
11    1  0.8039394E-009  0.1685424E+03  0.7561462E-02  0.1079307E+00
         22   -1    0    0    0    0  0.00000000000E+00  0.00000000000E+00  0.98283637294E+03  0.98283637294E+03  0.00000000000E+00 0. -1.
         22   -1    0    0    0    0 -0.00000000000E+00 -0.00000000000E+00 -0.20514417799E+04  0.20514417799E+04  0.00000000000E+00 0.  1.
        -24    2    1    2    0    0  0.54714348837E+02  0.45804125253E+02 -0.19798930445E+04  0.19828699392E+04  0.81884369607E+02 0.  0.
         25    2    1    2    0    0 -0.15227833302E+03  0.65502882632E+01  0.86296067810E+02  0.21522893022E+03  0.12507951112E+03 0.  0.
         24    2    1    2    0    0  0.97563984184E+02 -0.52354413516E+02  0.82499156971E+03  0.83617928351E+03  0.79529796008E+02 0.  0.
        -11    1    5    5    0    0  0.52372868272E+02  0.13152437212E+02  0.41862365952E+03  0.42209201869E+03  0.00000000000E+00 0.  1.
         12    1    5    5    0    0  0.45191115912E+02 -0.65506850728E+02  0.40636791019E+03  0.41408726482E+03  0.00000000000E+00 0. -1.
         11    1    3    3    0    0  0.38618256726E+02  0.10615338455E+02 -0.31612321285E+03  0.31865018573E+03  0.00000000000E+00 0. -1.
        -12    1    3    3    0    0  0.16096092111E+02  0.35188786797E+02 -0.16637698317E+04  0.16642197534E+04  0.00000000000E+00 0.  1.
          5    1    4    4  501    0 -0.88946240485E+01 -0.14781296534E+02  0.66540637338E+02  0.68867480581E+02  0.41800000000E+01 0. -1.
         -5    1    4    4    0  501 -0.14338370897E+03  0.21331584797E+02  0.19755430473E+02  0.14636144964E+03  0.41800000000E+01 0. -1.
</event>
<event>
11    1  0.8039394E-009  0.2605649E+03  0.7561462E-02  0.1018417E+00
         22   -1    0    0    0    0  0.00000000000E+00  0.00000000000E+00  0.54626801999E+02  0.54626801999E+02  0.00000000000E+00 0.  1.
         22   -1    0    0    0    0 -0.00000000000E+00 -0.00000000000E+00 -0.28140227965E+04  0.28140227965E+04  0.00000000000E+00 0.  1.
         24    2    1    2    0    0 -0.79879069648E+02 -0.16800912543E+03 -0.87194067898E+03  0.89527084844E+03  0.81373290560E+02 0.  0.
         25    2    1    2    0    0  0.25629168907E+03  0.18514718099E+03 -0.15228116894E+04  0.15603099983E+04  0.12508773185E+03 0.  0.
        -24    2    1    2    0    0 -0.17641261942E+03 -0.17138055562E+02 -0.36464362610E+03  0.41306875182E+03  0.79029706013E+02 0.  0.
        -11    1    3    3    0    0 -0.50562800432E+02 -0.16273209423E+03 -0.67967428544E+03  0.70071068606E+03  0.00000000000E+00 0.  1.
         12    1    3    3    0    0 -0.29316269215E+02 -0.52770312001E+01 -0.19226639354E+03  0.19456016238E+03  0.00000000000E+00 0. -1.
         11    1    5    5    0    0 -0.13988290767E+02  0.14250460613E+02 -0.11366812872E+02  0.22977213519E+02  0.00000000000E+00 0. -1.
        -12    1    5    5    0    0 -0.16242432865E+03 -0.31388516174E+02 -0.35327681323E+03  0.39009153830E+03  0.00000000000E+00 0.  1.
          5    1    4    4  501    0  0.24908897944E+03  0.12400777414E+03 -0.12545634323E+04  0.12850564679E+04  0.41800000000E+01 0.  1.
         -5    1    4    4    0  501  0.72027096302E+01  0.61139406848E+02 -0.26824825718E+03  0.27525353036E+03  0.41800000000E+01 0.  1.
</event>
<event>
11    1  0.8039394E-009  0.1423313E+03  0.7561462E-02  0.1104983E+00
         22   -1    0    0    0    0  0.00000000000E+00  0.00000000000E+00  0.18471886150E+03  0.18471886150E+03  0.00000000000E+00 0.  1.
         22   -1    0    0    0    0 -0.00000000000E+00 -0.00000000000E+00 -0.57829772522E+03  0.57829772522E+03  0.00000000000E+00 0.  1.
         24    2    1    2    0    0  0.51347904473E+02 -0.42453077028E+02 -0.47399526346E+03  0.48502035957E+03  0.78322208627E+02 0.  0.
         25    2    1    2    0    0 -0.10375227675E+03  0.20877512241E+02  0.63977314001E+02  0.17592796938E+03  0.12512852694E+03 0.  0.
        -24    2    1    2    0    0  0.52404372281E+02  0.21575564786E+02  0.16439085745E+02  0.10206825777E+03  0.83282425965E+02 0.  0.
        -13    1    3    3    0    0  0.67448201372E+02 -0.31120024735E+02 -0.43542278754E+03  0.44171339092E+03  0.00000000000E+00 0.  1.
         14    1    3    3    0    0 -0.16100296898E+02 -0.11333052293E+02 -0.38572475922E+02  0.43306968645E+02  0.00000000000E+00 0. -1.
         11    1    5    5    0    0  0.23655345473E+02 -0.30428483426E+02 -0.50695002100E+01  0.38873741850E+02  0.00000000000E+00 0. -1.
        -12    1    5    5    0    0  0.28749026807E+02  0.52004048212E+02  0.21508585955E+02  0.63194515922E+02  0.00000000000E+00 0.  1.
          5    1    4    4  501    0 -0.48594254402E+02  0.35388873493E+02 -0.28919180575E+02  0.66839848393E+02  0.41800000000E+01 0.  1.
         -5    1    4    4    0  501 -0.55158022352E+02 -0.14511361252E+02  0.92896494576E+02  0.10908812098E+03  0.41800000000E+01 0.  1.
</event>
<event>
11    1  0.8039394E-009  0.2231345E+03  0.7561462E-02  0.1039271E+00
         22   -1    0    0    0    0  0.00000000000E+00  0.00000000000E+00  0.12068102978E+04  0.12068102978E+04  0.00000000000E+00 0.  1.
         22   -1    0    0    0    0 -0.00000000000E+00 -0.00000000000E+00 -0.46500938733E+03  0.46500938733E+03  0.00000000000E+00 0. -1.
        -24    2    1    2    0    0 -0.10454165163E+03  0.16029182089E+03 -0.41177650991E+03  0.46020931875E+03  0.74901923739E+02 0.  0.
         25    2    1    2    0    0 -0.73707970713E+01 -0.11892234084E+03  0.30094822525E+03  0.34700745919E+03  0.12508993027E+03 0.  0.
         24    2    1    2    0    0  0.11191244870E+03 -0.41369480043E+02  0.85262919510E+03  0.86460290716E+03  0.79534977717E+02 0.  0.
        -13    1    5    5    0    0  0.87735177055E+02 -0.23885639619E+02  0.36840830607E+03  0.37946365446E+03  0.00000000000E+00 0.  1.
         14    1    5    5    0    0  0.24177271643E+02 -0.17483840425E+02  0.48422088903E+03  0.48513925270E+03  0.00000000000E+00 0. -1.
         11    1    3    3    0    0 -0.61433272767E+02  0.82557524257E+02 -0.30144789754E+03  0.31852884759E+03  0.00000000000E+00 0. -1.
        -12    1    3    3    0    0 -0.43108378860E+02  0.77734296629E+02 -0.11032861237E+03  0.14168047116E+03  0.00000000000E+00 0.  1.
          5    1    4    4  501    0 -0.62168125151E+02 -0.81265563822E+02  0.21605833572E+03  0.23909756269E+03  0.41800000000E+01 0. -1.
         -5    1    4    4    0  501  0.54797328080E+02 -0.37656777021E+02  0.84889889530E+02  0.10790989651E+03  0.41800000000E+01 0. -1.
</event>
<event>
11    1  0.8039394E-009  0.3593684E+03  0.7561462E-02  0.9777889E-01
         22   -1    0    0    0    0  0.00000000000E+00  0.00000000000E+00  0.67260769897E+03  0.67260769897E+03  0.00000000000E+00 0. -1.
         22   -1    0    0    0    0 -0.00000000000E+00 -0.00000000000E+00 -0.20364096671E+04  0.20364096671E+04  0.00000000000E+00 0.  1.
        -24    2    1    2    0    0  0.68653188258E+02  0.13087020488E+03 -0.14551251433E+04  0.14651084910E+04  0.85518634690E+02 0.  0.
         25    2    1    2    0    0  0.85552594126E+02  0.38605920324E+02 -0.54278070194E+03  0.56486032629E+03  0.12508650756E+03 0.  0.
         24    2    1    2    0    0 -0.15420578238E+03 -0.16947612521E+03  0.63410387706E+03  0.67904854886E+03  0.80731805847E+02 0.  0.
        -11    1    5    5    0    0 -0.78172388488E+01 -0.34684112692E+02  0.45669419144E+02  0.57877394045E+02  0.00000000000E+00 0.  1.
         12    1    5    5    0    0 -0.14638854353E+03 -0.13479201252E+03  0.58843445792E+03  0.62117115482E+03  0.00000000000E+00 0. -1.
         13    1    3    3    0    0  0.77211001567E+02  0.87366619612E+02 -0.79601270075E+03  0.80450648521E+03  0.00000000000E+00 0. -1.
        -14    1    3    3    0    0 -0.85578133098E+01  0.43503585272E+02 -0.65911244253E+03  0.66060200575E+03  0.00000000000E+00 0.  1.
          5    1    4    4  501    0  0.71210359934E+02  0.21879945839E+02 -0.11880319616E+03  0.14029012513E+03  0.41800000000E+01 0.  1.
         -5    1    4    4    0  501  0.14342234192E+02  0.16725974485E+02 -0.42397750578E+03  0.42457020116E+03  0.41800000000E+01 0.  1.
</event>
<event>
11    1  0.8039394E-009  0.2173181E+03  0.7561462E-02  0.1042911E+00
         22   -1    0    0    0    0  0.00000000000E+00  0.00000000000E+00  0.10186854123E+04  0.10186854123E+04  0.00000000000E+00 0.  1.
         22   -1    0    0    0    0 -0.00000000000E+00 -0.00000000000E+00 -0.19854529853E+03  0.19854529853E+03  0.00000000000E+00 0.  1.
         24    2    1    2    0    0  0.93959447582E+02 -0.13636990001E+03 -0.71520794060E+02  0.19785445794E+03  0.81277519176E+02 0.  0.
         25    2    1    2    0    0 -0.18003050475E+03  0.16582510622E+03  0.26732827236E+03  0.38343335498E+03  0.12509110286E+03 0.  0.
        -24    2    1    2    0    0  0.86071057165E+02 -0.29455206211E+02  0.62433263550E+03  0.63594289794E+03  0.79726367299E+02 0.  0.
        -13    1    3    3    0    0  0.86144451248E+02 -0.12682133541E+03 -0.88380249130E+02  0.17696210338E+03  0.00000000000E+00 0.  1.
         14    1    3    3    0    0  0.78149963335E+01 -0.95485645946E+01  0.16859455070E+02  0.20892354553E+02  0.00000000000E+00 0. -1.
         11    1    5    5    0    0  0.45310067896E+02  0.25684762879E+02  0.24721130877E+03  0.25263835908E+03  0.00000000000E+00 0. -1.
        -12    1    5    5    0    0  0.40760989269E+02 -0.55139969090E+02  0.37712132673E+03  0.38330453886E+03  0.00000000000E+00 0.  1.
          5    1    4    4  501    0 -0.78290035433E+02  0.14928742426E+03  0.13728445874E+03  0.21744093382E+03  0.41800000000E+01 0. -1.
         -5    1    4    4    0  501 -0.10174046931E+03  0.16537681964E+02  0.13004381362E+03  0.16599242116E+03  0.41800000000E+01 0. -1.
</event>
<event>
11    1  0.8039394E-009  0.1347501E+03  0.7561462E-02  0.1113567E+00
         22   -1    0    0    0    0  0.00000000000E+00  0.00000000000E+00  0.17598035960E+03  0.17598035960E+03  0.00000000000E+00 0. -1.
         22   -1    0    0    0    0 -0.00000000000E+00 -0.00000000000E+00 -0.43759760130E+04  0.43759760130E+04  0.00000000000E+00 0. -1.
        -24    2    1    2    0    0  0.13909573996E+02 -0.46037686392E+01 -0.30595586552E+04  0.30606310990E+04  0.79679914934E+02 0.  0.
         25    2    1    2    0    0  0.27718290691E+02 -0.23515962113E+02 -0.12997545871E+04  0.13062660997E+04  0.12509129638E+03 0.  0.
         24    2    1    2    0    0 -0.41627864688E+02  0.28119730753E+02  0.15931758891E+03  0.18505917385E+03  0.79631685363E+02 0.  0.
        -13    1    5    5    0    0  0.11965793940E+02 -0.37709718870E+01 -0.14402922008E+01  0.12628336993E+02  0.00000000000E+00 0.  1.
         14    1    5    5    0    0 -0.53593658627E+02  0.31890702640E+02  0.16075788111E+03  0.17243083686E+03  0.00000000000E+00 0. -1.
         11    1    3    3    0    0  0.47349945626E+02 -0.42215332224E+01 -0.17512190100E+04  0.17518641099E+04  0.00000000000E+00 0. -1.
        -12    1    3    3    0    0 -0.33440371629E+02 -0.38223541685E+00 -0.13083396452E+04  0.13087669891E+04  0.00000000000E+00 0.  1.
          5    1    4    4  501    0  0.33549995860E+02  0.25416644436E+02 -0.10876473908E+04  0.10884695343E+04  0.41800000000E+01 0.  1.
         -5    1    4    4    0  501 -0.58317051685E+01 -0.48932606550E+02 -0.21210719637E+03  0.21779656545E+03  0.41800000000E+01 0.  1.
</event>
<event>
11    1  0.8039394E-009  0.1691425E+03  0.7561462E-02  0.1078780E+00
         22   -1    0    0    0    0  0.00000000000E+00  0.00000000000E+00  0.21306763573E+04  0.21306763573E+04  0.00000000000E+00 0.  1.
         22   -1    0    0    0    0 -0.00000000000E+00 -0.00000000000E+00 -0.28678417567E+02  0.28678417567E+02  0.00000000000E+00 0. -1.
        -24    2    1    2    0    0  0.76031961505E+02 -0.82576586730E+02  0.22093101213E+03  0.26054009384E+03  0.80441758612E+02 0.  0.
         25    2    1    2    0    0 -0.70150710194E+02  0.10078932841E+03  0.11992906759E+04  0.12120335127E+04  0.12508996708E+03 0.  0.
         24    2    1    2    0    0 -0.58812513115E+01 -0.18212741682E+02  0.68177625177E+03  0.68678116835E+03  0.80518461517E+02 0.  0.
        -13    1    5    5    0    0 -0.18110986905E+02 -0.33258379526E+02  0.15187173358E+03  0.15652204674E+03  0.00000000000E+00 0.  1.
         14    1    5    5    0    0  0.12229735593E+02  0.15045637844E+02  0.52990451819E+03  0.53025912161E+03  0.00000000000E+00 0. -1.
         11    1    3    3    0    0  0.49744495533E+02 -0.91017117197E+02  0.13476909146E+03  0.17006274863E+03  0.00000000000E+00 0. -1.
        -12    1    3    3    0    0  0.26287465972E+02  0.84405304674E+01  0.86161920671E+02  0.90477345206E+02  0.00000000000E+00 0.  1.
          5    1    4    4  501    0  0.72242342917E+01 -0.10174266244E+02  0.47644615270E+03  0.47662785701E+03  0.41800000000E+01 0. -1.
         -5    1    4    4    0  501 -0.77374944485E+02  0.11096359466E+03  0.72284452315E+03  0.73540565569E+03  0.41800000000E+01 0. -1.
</event>
<event>
11    1  0.8039394E-009  0.3271806E+03  0.7561462E-02  0.9893017E-01
         22   -1    0    0    0    0  0.00000000000E+00  0.00000000000E+00  0.33245270195E+03  0.33245270195E+03  0.00000000000E+00 0. -1.
         22   -1    0    0    0    0 -0.00000000000E+00 -0.00000000000E+00 -0.11519913006E+04  0.11519913006E+04  0.00000000000E+00 0. -1.
         24    2    1    2    0    0 -0.32670582538E+03  0.90829556620E+02 -0.76013002747E+03  0.83601827664E+03  0.78372160328E+02 0.  0.
         25    2    1    2    0    0  0.12058616795E+03 -0.26079709337E+03 -0.15726110931E+03  0.35062123712E+03  0.12509215646E+03 0.  0.
        -24    2    1    2    0    0  0.20611965743E+03  0.16996753675E+03  0.97852538140E+02  0.29780448878E+03  0.87966570860E+02 0.  0.
        -13    1    3    3    0    0 -0.19970210424E+03  0.72949402264E+02 -0.55218110699E+03  0.59169799784E+03  0.00000000000E+00 0.  1.
         14    1    3    3    0    0 -0.12700372114E+03  0.17880154357E+02 -0.20794892048E+03  0.24432027880E+03  0.00000000000E+00 0. -1.
         13    1    5    5    0    0  0.16479519814E+03  0.15267954503E+03  0.11173893865E+03  0.25090653880E+03  0.00000000000E+00 0. -1.
        -14    1    5    5    0    0  0.41324459296E+02  0.17287991717E+02 -0.13886400509E+02  0.46897949985E+02  0.00000000000E+00 0.  1.
          5    1    4    4  501    0  0.79512526525E+02 -0.21412280765E+03 -0.17275124295E+03  0.28641103850E+03  0.41800000000E+01 0. -1.
         -5    1    4    4    0  501  0.41073641428E+02 -0.46674285719E+02  0.15490133639E+02  0.64210198627E+02  0.41800000000E+01 0. -1.
</event>
<event>
11    1  0.8039394E-009  0.1263057E+03  0.7561462E-02  0.1123893E+00
         22   -1    0    0    0    0  0.00000000000E+00  0.00000000000E+00  0.11557433397E+03  0.11557433397E+03  0.00000000000E+00 0. -1.
         22   -1    0    0    0    0 -0.00000000000E+00 -0.00000000000E+00 -0.31876451387E+04  0.31876451387E+04  0.00000000000E+00 0.  1.
         24    2    1    2    0    0 -0.31693644315E+01 -0.33809268751E+02 -0.21058260721E+04  0.21075739637E+04  0.78812784828E+02 0.  0.
         25    2    1    2    0    0 -0.12357183112E+02  0.24975701361E+02 -0.10548747720E+04  0.10626312121E+04  0.12509125745E+03 0.  0.
        -24    2    1    2    0    0  0.15526547543E+02  0.88335673903E+01  0.88630039425E+02  0.13301429680E+03  0.97562357868E+02 0.  0.
        -13    1    3    3    0    0  0.24072573546E+02 -0.16710060169E+02 -0.17627363478E+04  0.17629799054E+04  0.00000000000E+00 0.  1.
         14    1    3    3    0    0 -0.27241937978E+02 -0.17099208582E+02 -0.34308972433E+03  0.34459405836E+03  0.00000000000E+00 0. -1.
         11    1    5    5    0    0  0.43308496251E+01  0.13495631407E+02  0.10867000136E+03  0.10959040798E+03  0.00000000000E+00 0. -1.
        -12    1    5    5    0    0  0.11195697918E+02 -0.46620640168E+01 -0.20039961938E+02  0.23423888816E+02  0.00000000000E+00 0.  1.
          5    1    4    4  501    0 -0.62964839620E+02  0.22717848176E+02 -0.38230025702E+03  0.38813867441E+03  0.41800000000E+01 0. -1.
         -5    1    4    4    0  501  0.50607656508E+02  0.22578531852E+01 -0.67257451499E+03  0.67449253770E+03  0.41800000000E+01 0. -1.
</event>
<event>
11    1  0.8039394E-009  0.4835462E+03  0.7561462E-02  0.9431058E-01
         22   -1    0    0    0    0  0.00000000000E+00  0.00000000000E+00  0.12797642168E+04  0.12797642168E+04  0.00000000000E+00 0. -1.
         22   -1    0    0    0    0 -0.00000000000E+00 -0.00000000000E+00 -0.52909499821E+03  0.52909499821E+03  0.00000000000E+00 0. -1.
        -24    2    1    2    0    0  0.46780241377E+02 -0.39993175080E+03 -0.72425499273E+02  0.41878869922E+03  0.89469130835E+02 0.  0.
         25    2    1    2    0    0  0.30381819095E+02  0.60582886927E+03  0.96827478763E+02  0.62687674010E+03  0.12508881989E+03 0.  0.
         24    2    1    2    0    0 -0.77162060473E+02 -0.20589711847E+03  0.72626723912E+03  0.76319377571E+03  0.81566106294E+02 0.  0.
        -11    1    5    5    0    0 -0.23868966563E+02 -0.77085705388E+01  0.43113824382E+02  0.49879369256E+02  0.00000000000E+00 0.  1.
         12    1    5    5    0    0 -0.53293093910E+02 -0.19818854793E+03  0.68315341474E+03  0.71331440645E+03  0.00000000000E+00 0. -1.
         11    1    3    3    0    0  0.22327551069E+02 -0.36501610001E+03 -0.82718606172E+02  0.37493684883E+03  0.00000000000E+00 0. -1.
        -12    1    3    3    0    0  0.24452690308E+02 -0.34915650787E+02  0.10293106899E+02  0.43851850392E+02  0.00000000000E+00 0.  1.
          5    1    4    4  501    0  0.65925336502E+02  0.53970781652E+03  0.92678072639E+02  0.55157717027E+03  0.41800000000E+01 0.  1.
         -5    1    4    4    0  501 -0.35543517407E+02  0.66121052742E+02  0.41494061234E+01  0.75299569830E+02  0.41800000000E+01 0.  1.
</event>
<event>
11    1  0.8039394E-009  0.2200778E+03  0.7561462E-02  0.1041169E+00
         22   -1    0    0    0    0  0.00000000000E+00  0.00000000000E+00  0.28488891448E+04  0.28488891448E+04  0.00000000000E+00 0.  1.
         22   -1    0    0    0    0 -0.00000000000E+00 -0.00000000000E+00 -0.22199602616E+03  0.22199602616E+03  0.00000000000E+00 0.  1.
         24    2    1    2    0    0 -0.15969437873E+03 -0.83345558286E+02 -0.14966303710E+03  0.24825948050E+03  0.82370919021E+02 0.  0.
         25    2    1    2    0    0  0.13635822231E+03  0.15584126282E+03  0.66016633295E+03  0.70309769819E+03  0.12508685801E+03 0.  0.
        -24    2    1    2    0    0  0.23336156418E+02 -0.72495704534E+02  0.21163898228E+04  0.21195279923E+04  0.86561103658E+02 0.  0.
        -11    1    3    3    0    0 -0.11830965060E+03 -0.55994617080E+02 -0.14943348277E+03  0.19865280350E+03  0.00000000000E+00 0.  1.
         12    1    3    3    0    0 -0.41384728132E+02 -0.27350941206E+02 -0.22955432733E+00  0.49606676996E+02  0.00000000000E+00 0. -1.
         11    1    5    5    0    0  0.42647590416E+02 -0.57192074557E+02  0.87821339600E+03  0.88110641768E+03  0.00000000000E+00 0. -1.
        -12    1    5    5    0    0 -0.19311433998E+02 -0.15303629977E+02  0.12381764268E+04  0.12384215746E+04  0.00000000000E+00 0.  1.
          5    1    4    4  501    0  0.60664811623E+02  0.95630380768E+02  0.17587240177E+03  0.20922228179E+03  0.41800000000E+01 0.  1.
         -5    1    4    4    0  501  0.75693410690E+02  0.60210882051E+02  0.48429393118E+03  0.49387541640E+03  0.41800000000E+01 0.  1.
</event>
<event>
11    1  0.8039394E-009  0.1346130E+03  0.7561462E-02  0.1113728E+00
         22   -1    0    0    0    0  0.00000000000E+00  0.00000000000E+00  0.49122491309E+03  0.49122491309E+03  0.00000000000E+00 0.  1.
         22   -1    0    0    0    0 -0.00000000000E+00 -0.00000000000E+00 -0.12900966255E+04  0.12900966255E+04  0.00000000000E+00 0.  1.
         24    2    1    2    0    0 -0.15646051838E+02  0.48021801216E+02 -0.12370795055E+04  0.12407073073E+04  0.80237316620E+02 0.  0.
         25    2    1    2    0    0 -0.32256325164E+02 -0.23900250462E+02  0.49822150543E+02  0.14050451237E+03  0.12509028270E+03 0.  0.
        -24    2    1    2    0    0  0.47902377002E+02 -0.24121550754E+02  0.38838564255E+03  0.40010971898E+03  0.79799078670E+02 0.  0.
        -11    1    3    3    0    0  0.18294548803E+02  0.55573800743E+02 -0.66337636568E+03  0.66595145497E+03  0.00000000000E+00 0.  1.
         12    1    3    3    0    0 -0.33940600641E+02 -0.75519995269E+01 -0.57370313986E+03  0.57475585230E+03  0.00000000000E+00 0. -1.
         11    1    5    5    0    0  0.14131658793E+02  0.96891995856E+01  0.12526626397E+02  0.21225002656E+02  0.00000000000E+00 0. -1.
        -12    1    5    5    0    0  0.33770718209E+02 -0.33810750340E+02  0.37585901615E+03  0.37888471633E+03  0.00000000000E+00 0.  1.
          5    1    4    4  501    0 -0.23899780835E+02 -0.45284115785E+02  0.84389600973E+02  0.98797407956E+02  0.41800000000E+01 0. -1.
         -5    1    4    4    0  501 -0.83565443290E+01  0.21383865323E+02 -0.34567450430E+02  0.41707104413E+02  0.41800000000E+01 0. -1.
</event>
<event>
11    1  0.8039394E-009  0.3488418E+03  0.7561462E-02  0.9814068E-01
         22   -1    0    0    0    0  0.00000000000E+00  0.00000000000E+00  0.80434690850E+03  0.80434690850E+03  0.00000000000E+00 0. -1.
         22   -1    0    0    0    0 -0.00000000000E+00 -0.00000000000E+00 -0.43742355855E+03  0.43742355855E+03  0.00000000000E+00 0. -1.
         24    2    1    2    0    0 -0.27749056048E+01 -0.11039576672E+02 -0.28465199674E+03  0.29640043739E+03  0.81834513984E+02 0.  0.
         25    2    1    2    0    0 -0.71452608503E+02  0.32327290787E+03  0.32018124361E+03  0.47725634134E+03  0.12508692324E+03 0.  0.
        -24    2    1    2    0    0  0.74227514108E+02 -0.31223333120E+03  0.33139410308E+03  0.46811368832E+03  0.79429192849E+02 0.  0.
        -13    1    3    3    0    0 -0.14913672747E+02  0.93071595940E+01 -0.90321139668E+01  0.19764107296E+02  0.00000000000E+00 0.  1.
         14    1    3    3    0    0  0.12138767142E+02 -0.20346736266E+02 -0.27561988278E+03  0.27663633009E+03  0.00000000000E+00 0. -1.
         13    1    5    5    0    0  0.74633256364E+02 -0.28721727463E+03  0.32887123417E+03  0.44296746435E+03  0.00000000000E+00 0. -1.
        -14    1    5    5    0    0 -0.40574225592E+00 -0.25016056561E+02  0.25228689090E+01  0.25146223975E+02  0.00000000000E+00 0.  1.
          5    1    4    4  501    0 -0.48475103049E+02  0.39919052822E+02  0.25869543046E+02  0.68044632788E+02  0.41800000000E+01 0.  1.
         -5    1    4    4    0  501 -0.22977505454E+02  0.28335385505E+03  0.29431170057E+03  0.40921170855E+03  0.41800000000E+01 0.  1.
</event>
<event>
11    1  0.8039394E-009  0.1511402E+03  0.7561462E-02  0.1095719E+00
         22   -1    0    0    0    0  0.00000000000E+00  0.00000000000E+00  0.19060537087E+04  0.19060537087E+04  0.00000000000E+00 0. -1.
         22   -1    0    0    0    0 -0.00000000000E+00 -0.00000000000E+00 -0.30984694684E+02  0.30984694684E+02  0.00000000000E+00 0.  1.
         24    2    1    2    0    0 -0.79898252478E+02  0.26540555298E+02  0.14015326084E+03  0.18389879517E+03  0.84188470217E+02 0.  0.
         25    2    1    2    0    0  0.73189589973E+02 -0.56655973096E+02  0.84878174133E+03  0.86292777299E+03  0.12508909470E+03 0.  0.
        -24    2    1    2    0    0  0.67086625054E+01  0.30115417798E+02  0.88613401187E+03  0.89021183524E+03  0.79320111424E+02 0.  0.
        -13    1    3    3    0    0 -0.87656167656E+02 -0.36999250305E+01  0.99857396889E+02  0.13292401170E+03  0.00000000000E+00 0.  1.
         14    1    3    3    0    0  0.77579151781E+01  0.30240480329E+02  0.40295863950E+02  0.50974783471E+02  0.00000000000E+00 0. -1.
         11    1    5    5    0    0 -0.18540203742E+02 -0.71290888849E+01  0.61870865318E+03  0.61902743120E+03  0.00000000000E+00 0. -1.
        -12    1    5    5    0    0  0.25248866247E+02  0.37244506683E+02  0.26742535869E+03  0.27118440404E+03  0.00000000000E+00 0.  1.
          5    1    4    4  501    0  0.97927155650E+02 -0.50386202722E+02  0.44964558797E+03  0.46295477578E+03  0.41800000000E+01 0. -1.
         -5    1    4    4    0  501 -0.24737565677E+02 -0.62697703744E+01  0.39913615336E+03  0.39997299721E+03  0.41800000000E+01 0. -1.
</event>
<event>
11    1  0.8039394E-009  0.2935505E+03  0.7561462E-02  0.1002958E+00
         22   -1    0    0    0    0  0.00000000000E+00  0.00000000000E+00  0.73146559458E+03  0.73146559458E+03  0.00000000000E+00 0.  1.
         22   -1    0    0    0    0 -0.00000000000E+00 -0.00000000000E+00 -0.52092910129E+03  0.52092910129E+03  0.00000000000E+00 0.  1.
        -24    2    1    2    0    0 -0.23803607453E+03 -0.11941598889E+03 -0.41696405676E+03  0.50122766123E+03  0.80304374560E+02 0.  0.
         25    2    1    2    0    0  0.24870537867E+03  0.80788351425E+02  0.32512362174E+03  0.43558526199E+03  0.12509207788E+03 0.  0.
         24    2    1    2    0    0 -0.10669304138E+02  0.38627637465E+02  0.30237692831E+03  0.31558177264E+03  0.80957519825E+02 0.  0.
        -11    1    5    5    0    0  0.30876431209E+02 -0.22203123952E+01  0.82504222497E+02  0.88120545398E+02  0.00000000000E+00 0.  1.
         12    1    5    5    0    0 -0.41545735347E+02  0.40847949860E+02  0.21987270582E+03  0.22746122724E+03  0.00000000000E+00 0. -1.
         11    1    3    3    0    0 -0.53058513871E+02 -0.67829121780E+02 -0.13007914098E+03  0.15600185439E+03  0.00000000000E+00 0. -1.
        -12    1    3    3    0    0 -0.18497756066E+03 -0.51586867110E+02 -0.28688491578E+03  0.34522580684E+03  0.00000000000E+00 0.  1.
          5    1    4    4  501    0  0.96290179414E+02  0.94523913447E+02  0.17660630715E+03  0.22229221532E+03  0.41800000000E+01 0.  1.
         -5    1    4    4    0  501  0.15241519926E+03 -0.13735562022E+02  0.14851731458E+03  0.21329304668E+03  0.41800000000E+01 0.  1.
</event>
<event>
11    1  0.8039394E-009  0.4264168E+03  0.7561462E-02  0.9574876E-01
         22   -1    0    0    0    0  0.00000000000E+00  0.00000000000E+00  0.56669861079E+03  0.56669861079E+03  0.00000000000E+00 0.  1.
         22   -1    0    0    0    0 -0.00000000000E+00 -0.00000000000E+00 -0.81707081806E+03  0.81707081806E+03  0.00000000000E+00 0.  1.
        -24    2    1    2    0    0 -0.37045786644E+03 -0.17217627598E+03 -0.58051887134E+03  0.71487086556E+03  0.84584239823E+02 0.  0.
         25    2    1    2    0    0  0.32079810202E+03  0.26198817505E+03  0.17501134912E+03  0.46671812728E+03  0.12509041486E+03 0.  0.
         24    2    1    2    0    0  0.49659764426E+02 -0.89811899067E+02  0.15513531495E+03  0.20218043601E+03  0.79231896000E+02 0.  0.
        -13    1    5    5    0    0 -0.21197221299E+01 -0.72060241770E+02  0.66928717378E+02  0.98369837226E+02  0.00000000000E+00 0.  1.
         14    1    5    5    0    0  0.51779486556E+02 -0.17751657297E+02  0.88206597574E+02  0.10381059879E+03  0.00000000000E+00 0. -1.
         11    1    3    3    0    0 -0.29907201340E+01 -0.15739256512E+02 -0.11666422587E+02  0.19818527152E+02  0.00000000000E+00 0. -1.
        -12    1    3    3    0    0 -0.36746714631E+03 -0.15643701947E+03 -0.56885244875E+03  0.69505233841E+03  0.00000000000E+00 0.  1.
          5    1    4    4  501    0  0.28979251341E+03  0.26058453794E+03  0.12799166155E+03  0.41022352452E+03  0.41800000000E+01 0.  1.
         -5    1    4    4    0  501  0.31005588611E+02  0.14036371047E+01  0.47019687569E+02  0.56494602763E+02  0.41800000000E+01 0.  1.
</event>
<event>
11    1  0.8039394E-009  0.1653625E+03  0.7561462E-02  0.1082139E+00
         22   -1    0    0    0    0  0.00000000000E+00  0.00000000000E+00  0.36214293369E+03  0.36214293369E+03  0.00000000000E+00 0.  1.
         22   -1    0    0    0    0 -0.00000000000E+00 -0.00000000000E+00 -0.42799285763E+03  0.42799285763E+03  0.00000000000E+00 0. -1.
         24    2    1    2    0    0 -0.51296104974E+02  0.17089777508E+02 -0.25917223577E+03  0.27648812739E+03  0.79699974344E+02 0.  0.
         25    2    1    2    0    0  0.12093182396E+03  0.62993935781E+02 -0.86201805808E+02  0.20412588061E+03  0.12507550447E+03 0.  0.
        -24    2    1    2    0    0 -0.69635718990E+02 -0.80083713289E+02  0.27952411764E+03  0.30952178332E+03  0.80046658358E+02 0.  0.
        -11    1    3    3    0    0  0.16106751875E+02  0.22887606261E+02 -0.61750162182E+02  0.67796404815E+02  0.00000000000E+00 0.  1.
         12    1    3    3    0    0 -0.67402856849E+02 -0.57978287532E+01 -0.19742207359E+03  0.20869172257E+03  0.00000000000E+00 0. -1.
         11    1    5    5    0    0  0.86436108287E+00 -0.43408576623E+02  0.47922517613E+02  0.64665441612E+02  0.00000000000E+00 0. -1.
        -12    1    5    5    0    0 -0.70500080073E+02 -0.36675136666E+02  0.23160160003E+03  0.24485634171E+03  0.00000000000E+00 0.  1.
          5    1    4    4  501    0  0.38800293441E+02  0.90305551168E+02 -0.45902959941E+02  0.10855924407E+03  0.41800000000E+01 0.  1.
         -5    1    4    4    0  501  0.82131530523E+02 -0.27311615386E+02 -0.40298845868E+02  0.95566636539E+02  0.41800000000E+01 0.  1.
</event>
<event>
11    1  0.8039394E-009  0.3627525E+03  0.7561462E-02  0.9766539E-01
         22   -1    0    0    0    0  0.00000000000E+00  0.00000000000E+00  0.30274337565E+03  0.30274337565E+03  0.00000000000E+00 0. -1.
         22   -1    0    0    0    0 -0.00000000000E+00 -0.00000000000E+00 -0.11153620049E+04  0.11153620049E+04  0.00000000000E+00 0.  1.
         24    2    1    2    0    0  0.90371557960E+02 -0.99360179896E+02 -0.78450935895E+02  0.17490627497E+03  0.79988698230E+02 0.  0.
         25    2    1    2    0    0 -0.20555248669E+03  0.29707946612E+03 -0.88046949633E+03  0.95988740972E+03  0.12509704796E+03 0.  0.
        -24    2    1    2    0    0  0.11518092873E+03 -0.19771928622E+03  0.14630180294E+03  0.28331169588E+03  0.80633349125E+02 0.  0.
        -11    1    3    3    0    0  0.71681591723E+02 -0.10941511726E+03 -0.80489762903E+02  0.15358554752E+03  0.00000000000E+00 0.  1.
         12    1    3    3    0    0  0.18689966237E+02  0.10054937361E+02  0.20388270083E+01  0.21320727446E+02  0.00000000000E+00 0. -1.
         11    1    5    5    0    0  0.75042695810E+02 -0.10230492783E+03  0.35650007001E+02  0.13179008859E+03  0.00000000000E+00 0. -1.
        -12    1    5    5    0    0  0.40138232917E+02 -0.95414358396E+02  0.11065179594E+03  0.15152160729E+03  0.00000000000E+00 0.  1.
          5    1    4    4  501    0 -0.92177674318E+02  0.23456073950E+03 -0.55335248481E+03  0.60805584365E+03  0.41800000000E+01 0. -1.
         -5    1    4    4    0  501 -0.11337481237E+03  0.62518726619E+02 -0.32711701152E+03  0.35183156607E+03  0.41800000000E+01 0. -1.
</event>
<event>
11    1  0.8039394E-009  0.1297759E+03  0.7561462E-02  0.1119545E+00
         22   -1    0    0    0    0  0.00000000000E+00  0.00000000000E+00  0.34225136288E+03  0.34225136288E+03  0.00000000000E+00 0. -1.
         22   -1    0    0    0    0 -0.00000000000E+00 -0.00000000000E+00 -0.27091267330E+03  0.27091267330E+03  0.00000000000E+00 0.  1.
         24    2    1    2    0    0 -0.24186091726E+02 -0.66289957374E+01 -0.15008272866E+03  0.17146684042E+03  0.79038859457E+02 0.  0.
         25    2    1    2    0    0  0.10703819586E+02  0.38639247042E+02 -0.61769164565E+02  0.14515457434E+03  0.12508739983E+03 0.  0.
        -24    2    1    2    0    0  0.13482272141E+02 -0.32010251304E+02  0.28319058280E+03  0.29654262142E+03  0.80834350867E+02 0.  0.
        -13    1    3    3    0    0  0.24983670845E+02 -0.15539788173E+02 -0.33263944506E+02  0.44408994916E+02  0.00000000000E+00 0.  1.
         14    1    3    3    0    0 -0.49169762571E+02  0.89107924352E+01 -0.11681878415E+03  0.12705784550E+03  0.00000000000E+00 0. -1.
         13    1    5    5    0    0  0.82486057343E+01 -0.59462408336E+02  0.19221283779E+03  0.20136929387E+03  0.00000000000E+00 0. -1.
        -14    1    5    5    0    0  0.52336664064E+01  0.27452157032E+02  0.90977745013E+02  0.95173327553E+02  0.00000000000E+00 0.  1.
          5    1    4    4  501    0 -0.15275457369E+02  0.75813189886E+02 -0.13190461114E+02  0.78564877795E+02  0.41800000000E+01 0. -1.
         -5    1    4    4    0  501  0.25979276955E+02 -0.37173942844E+02 -0.48578703450E+02  0.66589696550E+02  0.41800000000E+01 0. -1.
</event>
<event>
11    1  0.8039394E-009  0.1454935E+03  0.7561462E-02  0.1101574E+00
         22   -1    0    0    0    0  0.00000000000E+00  0.00000000000E+00  0.45115065462E+03  0.45115065462E+03  0.00000000000E+00 0.  1.
         22   -1    0    0    0    0 -0.00000000000E+00 -0.00000000000E+00 -0.12550408248E+03  0.12550408248E+03  0.00000000000E+00 0.  1.
         24    2    1    2    0    0 -0.65940098147E+02  0.49836995595E+02 -0.52897465550E+01  0.11636091739E+03  0.81731627928E+02 0.  0.
         25    2    1    2    0    0  0.72792360494E+02  0.63533303305E+01  0.36086298820E+02  0.14929130496E+03  0.12508629110E+03 0.  0.
        -24    2    1    2    0    0 -0.68522623473E+01 -0.56190325925E+02  0.29485001988E+03  0.31100251474E+03  0.81127823395E+02 0.  0.
        -13    1    3    3    0    0 -0.12666658617E+02  0.25853310135E+02 -0.39332457430E+02  0.48743000451E+02  0.00000000000E+00 0.  1.
         14    1    3    3    0    0 -0.53273439530E+02  0.23983685460E+02  0.34042710875E+02  0.67617916940E+02  0.00000000000E+00 0. -1.
         13    1    5    5    0    0 -0.38047001818E+02 -0.47006437578E+02  0.13571664721E+03  0.14858057696E+03  0.00000000000E+00 0. -1.
        -14    1    5    5    0    0  0.31194739470E+02 -0.91838883477E+01  0.15913337267E+03  0.16242193778E+03  0.00000000000E+00 0.  1.
          5    1    4    4  501    0  0.13888887652E+02  0.55450024596E+02 -0.12168962809E+02  0.58593194859E+02  0.41800000000E+01 0.  1.
         -5    1    4    4    0  501  0.58903472843E+02 -0.49096694266E+02  0.48255261629E+02  0.90698110099E+02  0.41800000000E+01 0.  1.
</event>
<event>
11    1  0.8039394E-009  0.1845489E+03  0.7561462E-02  0.1066022E+00
         22   -1    0    0    0    0  0.00000000000E+00  0.00000000000E+00  0.52064184424E+03  0.52064184424E+03  0.00000000000E+00 0. -1.
         22   -1    0    0    0    0 -0.00000000000E+00 -0.00000000000E+00 -0.99849262345E+03  0.99849262345E+03  0.00000000000E+00 0.  1.
        -24    2    1    2    0    0  0.32607859969E+02  0.19555761051E+02 -0.89143397240E+03  0.89582849123E+03  0.80052846541E+02 0.  0.
         25    2    1    2    0    0 -0.74220792180E+02 -0.14428269822E+03  0.27123964081E+02  0.20666191169E+03  0.12508882171E+03 0.  0.
         24    2    1    2    0    0  0.41612932211E+02  0.12472693717E+03  0.38645922911E+03  0.41664406476E+03  0.83385226255E+02 0.  0.
        -13    1    5    5    0    0 -0.83998519519E+01  0.21507197140E+02  0.14179016508E+02  0.27095415678E+02  0.00000000000E+00 0.  1.
         14    1    5    5    0    0  0.50012784163E+02  0.10321974003E+03  0.37228021260E+03  0.38954864909E+03  0.00000000000E+00 0. -1.
         13    1    3    3    0    0  0.47517007564E+02 -0.11460417712E+02 -0.36314541899E+03  0.36642025397E+03  0.00000000000E+00 0. -1.
        -14    1    3    3    0    0 -0.14909147594E+02  0.31016178763E+02 -0.52828855341E+03  0.52940823727E+03  0.00000000000E+00 0.  1.
          5    1    4    4  501    0 -0.60581479491E+02 -0.16197744217E+03  0.43831343869E+02  0.17845298130E+03  0.41800000000E+01 0. -1.
         -5    1    4    4    0  501 -0.13639312689E+02  0.17694743950E+02 -0.16707379788E+02  0.28208930385E+02  0.41800000000E+01 0. -1.
</event>
<event>
11    1  0.8039394E-009  0.1577660E+03  0.7561462E-02  0.1089197E+00
         22   -1    0    0    0    0  0.00000000000E+00  0.00000000000E+00  0.65486614891E+03  0.65486614891E+03  0.00000000000E+00 0. -1.
         22   -1    0    0    0    0 -0.00000000000E+00 -0.00000000000E+00 -0.11306873067E+03  0.11306873067E+03  0.00000000000E+00 0.  1.
        -24    2    1    2    0    0  0.21962381092E+02  0.36909461188E+02 -0.49188433746E+02  0.10554816183E+03  0.82923205097E+02 0.  0.
         25    2    1    2    0    0 -0.19626487577E+02  0.70161380805E+02  0.18437266807E+03  0.23441703477E+03  0.12510094759E+03 0.  0.
         24    2    1    2    0    0 -0.23358935148E+01 -0.10707084199E+03  0.40661318391E+03  0.42796968298E+03  0.79712901169E+02 0.  0.
        -13    1    5    5    0    0  0.22863797005E+02 -0.25048676448E+02  0.45191158047E+02  0.56501594410E+02  0.00000000000E+00 0.  1.
         14    1    5    5    0    0 -0.25199690520E+02 -0.82022165545E+02  0.36142202586E+03  0.37146808857E+03  0.00000000000E+00 0. -1.
         11    1    3    3    0    0  0.47261991700E+02  0.42970960897E+02 -0.21120024578E+02  0.67277446281E+02  0.00000000000E+00 0. -1.
        -12    1    3    3    0    0 -0.25299610608E+02 -0.60614997090E+01 -0.28068409168E+02  0.38270715552E+02  0.00000000000E+00 0.  1.
          5    1    4    4  501    0 -0.22921960155E+02  0.89374157427E+02  0.19200887275E+03  0.21306814846E+03  0.41800000000E+01 0. -1.
         -5    1    4    4    0  501  0.32954725778E+01 -0.19212776622E+02 -0.76362046747E+01  0.21348886315E+02  0.41800000000E+01 0. -1.
</event>
<event>
11    1  0.8039394E-009  0.1403516E+03  0.7561462E-02  0.1107166E+00
         22   -1    0    0    0    0  0.00000000000E+00  0.00000000000E+00  0.11861741200E+04  0.11861741200E+04  0.00000000000E+00 0. -1.
         22   -1    0    0    0    0 -0.00000000000E+00 -0.00000000000E+00 -0.23783936395E+03  0.23783936395E+03  0.00000000000E+00 0. -1.
         24    2    1    2    0    0  0.63035540975E+02  0.10295394039E+01 -0.21073023249E+03  0.23429014336E+03  0.80685196987E+02 0.  0.
         25    2    1    2    0    0 -0.86832078063E+02 -0.47221762110E+01  0.43537171873E+03  0.46125620178E+03  0.12508653599E+03 0.  0.
        -24    2    1    2    0    0  0.23796537087E+02  0.36926368071E+01  0.72369326983E+03  0.72846713883E+03  0.79702652500E+02 0.  0.
        -11    1    3    3    0    0  0.41374293955E+02 -0.29142018177E+02 -0.57391226111E+02  0.76516940989E+02  0.00000000000E+00 0.  1.
         12    1    3    3    0    0  0.21661247020E+02  0.30171557581E+02 -0.15333900637E+03  0.15777320237E+03  0.00000000000E+00 0. -1.
         13    1    5    5    0    0  0.38901540612E+02 -0.27773410769E+02  0.45913515455E+03  0.46161648839E+03  0.00000000000E+00 0. -1.
        -14    1    5    5    0    0 -0.15105003525E+02  0.31466047576E+02  0.26455811527E+03  0.26685065044E+03  0.00000000000E+00 0.  1.
          5    1    4    4  501    0 -0.24064514897E+02 -0.50744868428E+02  0.29833018202E+03  0.30359926293E+03  0.41800000000E+01 0. -1.
         -5    1    4    4    0  501 -0.62767563165E+02  0.46022692217E+02  0.13704153671E+03  0.15765693886E+03  0.41800000000E+01 0. -1.
</event>
<event>
11    1  0.8039394E-009  0.1339504E+03  0.7561462E-02  0.1114508E+00
         22   -1    0    0    0    0  0.00000000000E+00  0.00000000000E+00  0.36645831295E+03  0.36645831295E+03  0.00000000000E+00 0. -1.
         22   -1    0    0    0    0 -0.00000000000E+00 -0.00000000000E+00 -0.83063774259E+03  0.83063774259E+03  0.00000000000E+00 0. -1.
        -24    2    1    2    0    0 -0.63933277156E+01 -0.50709212305E+02 -0.63814128469E+03  0.64543653788E+03  0.82168889253E+02 0.  0.
         25    2    1    2    0    0 -0.35380222880E+02  0.29393017878E+02 -0.15845812351E+03  0.20704963421E+03  0.12507943256E+03 0.  0.
         24    2    1    2    0    0  0.41773550595E+02  0.21316194427E+02  0.33241997855E+03  0.34460988344E+03  0.77804369740E+02 0.  0.
        -13    1    5    5    0    0  0.23744254641E+02  0.29505399668E+01  0.20150325512E+02  0.31281479070E+02  0.00000000000E+00 0.  1.
         14    1    5    5    0    0  0.18029295955E+02  0.18365654460E+02  0.31226965304E+03  0.31332840437E+03  0.00000000000E+00 0. -1.
         13    1    3    3    0    0 -0.15114262471E+02 -0.14810114747E+02 -0.54243490406E+03  0.54284749753E+03  0.00000000000E+00 0. -1.
        -14    1    3    3    0    0  0.87209347558E+01 -0.35899097558E+02 -0.95706380624E+02  0.10258904035E+03  0.00000000000E+00 0.  1.
          5    1    4    4  501    0 -0.20778219459E+02  0.60724494531E+02 -0.24803254967E+02  0.68933826943E+02  0.41800000000E+01 0.  1.
         -5    1    4    4    0  501 -0.14602003420E+02 -0.31331476653E+02 -0.13365486854E+03  0.13811580727E+03  0.41800000000E+01 0.  1.
</event>
<event>
11    1  0.8039394E-009  0.1494150E+03  0.7561462E-02  0.1097478E+00
         22   -1    0    0    0    0  0.00000000000E+00  0.00000000000E+00  0.10651649674E+04  0.10651649674E+04  0.00000000000E+00 0.  1.
         22   -1    0    0    0    0 -0.00000000000E+00 -0.00000000000E+00 -0.53703948884E+03  0.53703948884E+03  0.00000000000E+00 0.  1.
        -24    2    1    2    0    0  0.88135222385E+02  0.63259519218E+02 -0.47671954666E+03  0.49532092049E+03  0.79446232881E+02 0.  0.
         25    2    1    2    0    0 -0.74249412114E+02  0.24481352151E+02  0.72173467404E+02  0.16422122041E+03  0.12508912036E+03 0.  0.
         24    2    1    2    0    0 -0.13885810271E+02 -0.87740871369E+02  0.93267155783E+03  0.94266231536E+03  0.10413803230E+03 0.  0.
        -11    1    5    5    0    0  0.27379150955E+02 -0.67930781999E+02  0.77578385131E+03  0.77923346502E+03  0.00000000000E+00 0.  1.
         12    1    5    5    0    0 -0.41264961227E+02 -0.19810089370E+02  0.15688770652E+03  0.16342885034E+03  0.00000000000E+00 0. -1.
         13    1    3    3    0    0  0.43923751337E+02  0.39651497368E+02 -0.10745678176E+03  0.12267231604E+03  0.00000000000E+00 0. -1.
        -14    1    3    3    0    0  0.44211471048E+02  0.23608021850E+02 -0.36926276489E+03  0.37264860446E+03  0.00000000000E+00 0.  1.
          5    1    4    4  501    0 -0.28964429205E+02 -0.40376293256E+02  0.68754571581E+02  0.84934367187E+02  0.41800000000E+01 0. -1.
         -5    1    4    4    0  501 -0.45284982909E+02  0.64857645407E+02  0.34188958225E+01  0.79286853219E+02  0.41800000000E+01 0. -1.
</event>
<event>
11    1  0.8039394E-009  0.1421905E+03  0.7561462E-02  0.1105137E+00
         22   -1    0    0    0    0  0.00000000000E+00  0.00000000000E+00  0.18093162360E+03  0.18093162360E+03  0.00000000000E+00 0. -1.
         22   -1    0    0    0    0 -0.00000000000E+00 -0.00000000000E+00 -0.18039516003E+04  0.18039516003E+04  0.00000000000E+00 0.  1.
         24    2    1    2    0    0  0.19650618421E+02  0.37768810626E+02 -0.11510819359E+04  0.11548847999E+04  0.83406522754E+02 0.  0.
         25    2    1    2    0    0 -0.74553732588E+02  0.19364652974E+01 -0.62624344374E+03  0.64295424431E+03  0.12508917022E+03 0.  0.
        -24    2    1    2    0    0  0.54903114167E+02 -0.39705275924E+02  0.15430540295E+03  0.18704417967E+03  0.81144974509E+02 0.  0.
        -11    1    3    3    0    0  0.49866203278E+02  0.13773618883E+02 -0.80451701589E+03  0.80617862764E+03  0.00000000000E+00 0.  1.
         12    1    3    3    0    0 -0.30215584856E+02  0.23995191743E+02 -0.34656492000E+03  0.34870617225E+03  0.00000000000E+00 0. -1.
         13    1    5    5    0    0  0.24676422638E-01 -0.35395423245E+02  0.11245690598E+03  0.11789568397E+03  0.00000000000E+00 0. -1.
        -14    1    5    5    0    0  0.54878437744E+02 -0.43098526784E+01  0.41848496968E+02  0.69148495702E+02  0.00000000000E+00 0.  1.
          5    1    4    4  501    0 -0.82511813948E+02  0.65639891022E+01 -0.62733441200E+03  0.63278528924E+03  0.41800000000E+01 0.  1.
         -5    1    4    4    0  501  0.79580813604E+01 -0.46275238048E+01  0.10909682601E+01  0.10168955072E+02  0.41800000000E+01 0.  1.
</event>
<event>
11    1  0.8039394E-009  0.1330859E+03  0.7561462E-02  0.1115534E+00
         22   -1    0    0    0    0  0.00000000000E+00  0.00000000000E+00  0.62839400812E+03  0.62839400812E+03  0.00000000000E+00 0. -1.
         22   -1    0    0    0    0 -0.00000000000E+00 -0.00000000000E+00 -0.50387186479E+03  0.50387186479E+03  0.00000000000E+00 0. -1.
        -24    2    1    2    0    0  0.89419643685E-01  0.45727072733E+02 -0.21372465567E+03  0.23389029697E+03  0.83279465658E+02 0.  0.
         25    2    1    2    0    0 -0.48212728141E+02 -0.35086039564E+02 -0.25899985394E+03  0.29374124827E+03  0.12508996471E+03 0.  0.
         24    2    1    2    0    0  0.48123308498E+02 -0.10641033169E+02  0.59724665293E+03  0.60463432766E+03  0.80312024891E+02 0.  0.
        -13    1    5    5    0    0 -0.15124220864E+02  0.92078474960E+01  0.43979411161E+02  0.47410074018E+02  0.00000000000E+00 0.  1.
         14    1    5    5    0    0  0.63247529361E+02 -0.19848880665E+02  0.55326724177E+03  0.55722425365E+03  0.00000000000E+00 0. -1.
         13    1    3    3    0    0 -0.45154953654E+01  0.50461357732E+02 -0.21940545501E+03  0.22517880009E+03  0.00000000000E+00 0. -1.
        -14    1    3    3    0    0  0.46049150090E+01 -0.47342849987E+01  0.56807993430E+01  0.87114968786E+01  0.00000000000E+00 0.  1.
          5    1    4    4  501    0 -0.36190166849E+02  0.35648441513E+02 -0.44991697218E+02  0.67987239813E+02  0.41800000000E+01 0.  1.
         -5    1    4    4    0  501 -0.12022561292E+02 -0.70734481077E+02 -0.21400815672E+03  0.22575400846E+03  0.41800000000E+01 0.  1.
</event>
<event>
11    1  0.8039394E-009  0.2162993E+03  0.7561462E-02  0.1043561E+00
         22   -1    0    0    0    0  0.00000000000E+00  0.00000000000E+00  0.53598257793E+03  0.53598257793E+03  0.00000000000E+00 0.  1.
         22   -1    0    0    0    0 -0.00000000000E+00 -0.00000000000E+00 -0.52936970063E+03  0.52936970063E+03  0.00000000000E+00 0. -1.
         24    2    1    2    0    0  0.45066324254E+02  0.16614651909E+03 -0.39814850744E+03  0.44108236586E+03  0.79973621308E+02 0.  0.
         25    2    1    2    0    0 -0.40184219976E+02 -0.20054485060E+03  0.33111815173E+02  0.24201992091E+03  0.12507694102E+03 0.  0.
        -24    2    1    2    0    0 -0.48821042772E+01  0.34398331507E+02  0.37164956957E+03  0.38224999179E+03  0.82368522576E+02 0.  0.
        -11    1    3    3    0    0  0.41370754851E+01  0.54887304615E+01 -0.97583382985E+02  0.97825140892E+02  0.00000000000E+00 0.  1.
         12    1    3    3    0    0  0.40929248768E+02  0.16065778863E+03 -0.30056512446E+03  0.34325722497E+03  0.00000000000E+00 0. -1.
         11    1    5    5    0    0 -0.65177444193E+01 -0.24296578527E+02  0.59072156938E+02  0.64205330353E+02  0.00000000000E+00 0. -1.
        -12    1    5    5    0    0  0.16356401421E+01  0.58694910034E+02  0.31257741263E+03  0.31804466144E+03  0.00000000000E+00 0.  1.
          5    1    4    4  501    0 -0.91108450070E+01 -0.18541289810E+03 -0.10781584581E+02  0.18599641191E+03  0.41800000000E+01 0. -1.
         -5    1    4    4    0  501 -0.31073374969E+02 -0.15131952503E+02  0.43893399755E+02  0.56023508999E+02  0.41800000000E+01 0. -1.
</event>
<event>
11    1  0.8039394E-009  0.2270145E+03  0.7561462E-02  0.1036910E+00
         22   -1    0    0    0    0  0.00000000000E+00  0.00000000000E+00  0.95937323960E+02  0.95937323960E+02  0.00000000000E+00 0.  1.
         22   -1    0    0    0    0 -0.00000000000E+00 -0.00000000000E+00 -0.83469843386E+03  0.83469843386E+03  0.00000000000E+00 0. -1.
        -24    2    1    2    0    0  0.13986917521E+03  0.10431640208E+03 -0.35566481733E+03  0.40388914421E+03  0.78636382197E+02 0.  0.
         25    2    1    2    0    0 -0.17571421558E+03 -0.12143758624E+03 -0.35580904577E+03  0.43344015346E+03  0.12509083368E+03 0.  0.
         24    2    1    2    0    0  0.35845040370E+02  0.17121184161E+02 -0.27287246800E+02  0.93306460153E+02  0.79896807209E+02 0.  0.
        -13    1    5    5    0    0 -0.11387653705E+02  0.59245092805E+01 -0.40920479944E+02  0.42886642978E+02  0.00000000000E+00 0.  1.
         14    1    5    5    0    0  0.47232694075E+02  0.11196674881E+02  0.13633233143E+02  0.50419817175E+02  0.00000000000E+00 0. -1.
         11    1    3    3    0    0  0.17371477467E+02  0.47280230781E+02 -0.14608311115E+03  0.15452334391E+03  0.00000000000E+00 0. -1.
        -12    1    3    3    0    0  0.12249769775E+03  0.57036171296E+02 -0.20958170619E+03  0.24936580030E+03  0.00000000000E+00 0.  1.
          5    1    4    4  501    0 -0.57794799588E+02 -0.10964463374E+03 -0.22476925113E+03  0.25671165384E+03  0.41800000000E+01 0. -1.
         -5    1    4    4    0  501 -0.11791941599E+03 -0.11792952502E+02 -0.13103979464E+03  0.17672849961E+03  0.41800000000E+01 0. -1.
</event>
<event>
11    1  0.8039394E-009  0.1525737E+03  0.7561462E-02  0.1094278E+00
         22   -1    0    0    0    0  0.00000000000E+00  0.00000000000E+00  0.81031231805E+02  0.81031231805E+02  0.00000000000E+00 0. -1.
         22   -1    0    0    0    0 -0.00000000000E+00 -0.00000000000E+00 -0.12011025542E+04  0.12011025542E+04  0.00000000000E+00 0. -1.
        -24    2    1    2    0    0  0.21991179910E+00  0.48414999602E+02 -0.89928437654E+03  0.90410014620E+03  0.79628034747E+02 0.  0.
         25    2    1    2    0    0  0.22756385008E+02 -0.12082809845E+03 -0.19192338591E+03  0.26000075301E+03  0.12509405690E+03 0.  0.
         24    2    1    2    0    0 -0.22976296807E+02  0.72413098851E+02 -0.28863559911E+02  0.11803288677E+03  0.85598423861E+02 0.  0.
        -13    1    5    5    0    0  0.10072785113E+02  0.21544275461E+02 -0.48710793396E+02  0.54206625041E+02  0.00000000000E+00 0.  1.
         14    1    5    5    0    0 -0.33049081920E+02  0.50868823389E+02  0.19847233485E+02  0.63826261725E+02  0.00000000000E+00 0. -1.
         11    1    3    3    0    0 -0.70591298348E+01  0.38703975249E+02 -0.88255931454E+03  0.88343577735E+03  0.00000000000E+00 0. -1.
        -12    1    3    3    0    0  0.72790416339E+01  0.97110243538E+01 -0.16725061999E+02  0.20664368850E+02  0.00000000000E+00 0.  1.
          5    1    4    4  501    0 -0.17678693598E+02  0.20694200665E+01 -0.98952410974E+02  0.10062738566E+03  0.41800000000E+01 0.  1.
         -5    1    4    4    0  501  0.40435078605E+02 -0.12289751852E+03 -0.92970974938E+02  0.15937336735E+03  0.41800000000E+01 0.  1.
</event>
<event>
11    1  0.8039394E-009  0.1756852E+03  0.7561462E-02  0.1073187E+00
         22   -1    0    0    0    0  0.00000000000E+00  0.00000000000E+00  0.61462130182E+02  0.61462130182E+02  0.00000000000E+00 0. -1.
         22   -1    0    0    0    0 -0.00000000000E+00 -0.00000000000E+00 -0.40640694353E+04  0.40640694353E+04  0.00000000000E+00 0.  1.
        -24    2    1    2    0    0  0.20946816982E+02 -0.63297398920E+02 -0.17235856540E+04  0.17267661581E+04  0.80799308699E+02 0.  0.
         25    2    1    2    0    0  0.62119281118E+02  0.15266792229E+03 -0.22377532771E+04  0.22472992494E+04  0.12509151677E+03 0.  0.
         24    2    1    2    0    0 -0.83066098100E+02 -0.89370523366E+02 -0.41268374026E+02  0.15146615798E+03  0.79698501985E+02 0.  0.
        -11    1    5    5    0    0 -0.91583169762E+02 -0.75395382339E+02 -0.13710466368E+02  0.11941489668E+03  0.00000000000E+00 0.  1.
         12    1    5    5    0    0  0.85170716614E+01 -0.13975141027E+02 -0.27557907657E+02  0.32051261299E+02  0.00000000000E+00 0. -1.
         13    1    3    3    0    0 -0.20330717736E+02 -0.28899387216E+02 -0.28566864994E+03  0.28784560136E+03  0.00000000000E+00 0. -1.
        -14    1    3    3    0    0  0.41277534718E+02 -0.34398011704E+02 -0.14379170041E+04  0.14389205567E+04  0.00000000000E+00 0.  1.
          5    1    4    4  501    0 -0.37967424570E+02  0.41308398217E+02 -0.52354179965E+03  0.52655616745E+03  0.41800000000E+01 0.  1.
         -5    1    4    4    0  501  0.10008670569E+03  0.11135952407E+03 -0.17142114774E+04  0.17207430819E+04  0.41800000000E+01 0.  1.
</event>
<event>
11    1  0.8039394E-009  0.1338091E+03  0.7561462E-02  0.1114675E+00
         22   -1    0    0    0    0  0.00000000000E+00  0.00000000000E+00  0.41052532617E+04  0.41052532617E+04  0.00000000000E+00 0. -1.
         22   -1    0    0    0    0 -0.00000000000E+00 -0.00000000000E+00 -0.17701678875E+03  0.17701678875E+03  0.00000000000E+00 0.  1.
        -24    2    1    2    0    0 -0.47674974435E+01 -0.88831299558E+01 -0.85226440516E+02  0.11365460587E+03  0.74512980365E+02 0.  0.
         25    2    1    2    0    0 -0.41876479089E+02 -0.28437605568E+00 -0.20525126221E+02  0.13350859546E+03  0.12509813702E+03 0.  0.
         24    2    1    2    0    0  0.46643976532E+02  0.91675060114E+01  0.40339880397E+04  0.40351068492E+04  0.82268315137E+02 0.  0.
        -11    1    5    5    0    0  0.23658237355E+02  0.18738745988E+02  0.44055392091E+03  0.44158646947E+03  0.00000000000E+00 0.  1.
         12    1    5    5    0    0  0.22985739178E+02 -0.95712399765E+01  0.35934341188E+04  0.35935203797E+04  0.00000000000E+00 0. -1.
         11    1    3    3    0    0 -0.44681728838E+01 -0.41890529934E+02 -0.49934778044E+02  0.65331945673E+02  0.00000000000E+00 0. -1.
        -12    1    3    3    0    0 -0.29932455975E+00  0.33007399979E+02 -0.35291662473E+02  0.48322660198E+02  0.00000000000E+00 0.  1.
          5    1    4    4  501    0 -0.55702851528E+02  0.47331488006E+02 -0.35743533619E+02  0.81474842870E+02  0.41800000000E+01 0. -1.
         -5    1    4    4    0  501  0.13826372439E+02 -0.47615864062E+02  0.15218407398E+02  0.52033752593E+02  0.41800000000E+01 0. -1.
</event>
<event>
11    1  0.8039394E-009  0.1273160E+03  0.7561462E-02  0.1122611E+00
         22   -1    0    0    0    0  0.00000000000E+00  0.00000000000E+00  0.13911971282E+04  0.13911971282E+04  0.00000000000E+00 0. -1.
         22   -1    0    0    0    0 -0.00000000000E+00 -0.00000000000E+00 -0.37341863593E+03  0.37341863593E+03  0.00000000000E+00 0. -1.
         24    2    1    2    0    0  0.17066424994E+02  0.85831200272E+01 -0.21117282718E+03  0.22686918400E+03  0.80689100257E+02 0.  0.
         25    2    1    2    0    0 -0.36035478494E+02  0.55085935731E+01 -0.12541034040E+03  0.18084319054E+03  0.12509039041E+03 0.  0.
        -24    2    1    2    0    0  0.18969053500E+02 -0.14091713600E+02  0.13543616599E+04  0.13569033896E+04  0.79579529899E+02 0.  0.
        -13    1    3    3    0    0  0.44124426862E+02  0.17555552206E+02 -0.83564414868E+02  0.96115419634E+02  0.00000000000E+00 0.  1.
         14    1    3    3    0    0 -0.27058001868E+02 -0.89724321787E+01 -0.12760841231E+03  0.13075376437E+03  0.00000000000E+00 0. -1.
         13    1    5    5    0    0  0.21839591792E+02 -0.29273258229E+02  0.12965024733E+04  0.12970167904E+04  0.00000000000E+00 0. -1.
        -14    1    5    5    0    0 -0.28705382917E+01  0.15181544629E+02  0.57859186623E+02  0.59886599202E+02  0.00000000000E+00 0.  1.
          5    1    4    4  501    0 -0.68182351033E+02 -0.35977295066E+02 -0.67199528748E+02  0.10235452025E+03  0.41800000000E+01 0. -1.
         -5    1    4    4    0  501  0.32146872539E+02  0.41485888639E+02 -0.58210811655E+02  0.78488670289E+02  0.41800000000E+01 0. -1.
</event>
<event>
11    1  0.9348661E-009  0.1453961E+03  0.7561462E-02  0.1101678E+00
         22   -1    0    0    0    0  0.00000000000E+00  0.00000000000E+00  0.40810905965E+03  0.40810905965E+03  0.00000000000E+00 0.  1.
         22   -1    0    0    0    0 -0.00000000000E+00 -0.00000000000E+00 -0.76108163523E+03  0.76108163523E+03  0.00000000000E+00 0.  1.
        -24    2    1    2    0    0 -0.30342339448E+02 -0.56562243085E+02 -0.45699931962E+03  0.46879067428E+03  0.82440119207E+02 0.  0.
         25    2    1    2    0    0  0.86362388587E+02  0.86047787534E+02 -0.26516406142E+03  0.31752386383E+03  0.12508693270E+03 0.  0.
         24    2    1    2    0    0 -0.56020049139E+02 -0.29485544449E+02  0.36919080546E+03  0.38287615677E+03  0.79275830787E+02 0.  0.
        -13    1    5    5    0    0 -0.26853853786E+02 -0.50945137311E+02  0.29185944994E+03  0.29748693249E+03  0.00000000000E+00 0.  1.
         14    1    5    5    0    0 -0.29166195352E+02  0.21459592862E+02  0.77331355518E+02  0.85389224281E+02  0.00000000000E+00 0. -1.
         13    1    3    3    0    0  0.16488515416E+02 -0.13284097449E+02 -0.28138971171E+02  0.35215622729E+02  0.00000000000E+00 0. -1.
        -14    1    3    3    0    0 -0.46830854864E+02 -0.43278145636E+02 -0.42886034845E+03  0.43357505155E+03  0.00000000000E+00 0.  1.
          5    1    4    4  501    0  0.68244206883E+02  0.64012240913E+02 -0.61996008632E+02  0.11232015067E+03  0.41800000000E+01 0. -1.
         -5    1    4    4    0  501  0.18118181703E+02  0.22035546621E+02 -0.20316805279E+03  0.20520371316E+03  0.41800000000E+01 0. -1.
</event>
<event>
11    1  0.8039394E-009  0.1474318E+03  0.7561462E-02  0.1099532E+00
         22   -1    0    0    0    0  0.00000000000E+00  0.00000000000E+00  0.47476841333E+03  0.47476841333E+03  0.00000000000E+00 0.  1.
         22   -1    0    0    0    0 -0.00000000000E+00 -0.00000000000E+00 -0.89414878886E+03  0.89414878886E+03  0.00000000000E+00 0. -1.
         24    2    1    2    0    0 -0.62487532803E+02 -0.47694287290E+02 -0.86191935977E+03  0.86922031171E+03  0.80371205998E+02 0.  0.
         25    2    1    2    0    0  0.10362397493E+02  0.50909518052E+02  0.23946468794E+03  0.27510996179E+03  0.12507196327E+03 0.  0.
        -24    2    1    2    0    0  0.52125135311E+02 -0.32152307618E+01  0.20307429630E+03  0.22458692869E+03  0.80453410618E+02 0.  0.
        -13    1    3    3    0    0  0.66562863111E+01 -0.28940196627E+02 -0.11142473603E+03  0.11531397542E+03  0.00000000000E+00 0.  1.
         14    1    3    3    0    0 -0.69143819114E+02 -0.18754090663E+02 -0.75049462375E+03  0.75390633630E+03  0.00000000000E+00 0. -1.
         11    1    5    5    0    0  0.28412766664E+02  0.31256627356E+02  0.15594732539E+03  0.16156679844E+03  0.00000000000E+00 0. -1.
        -12    1    5    5    0    0  0.23712368647E+02 -0.34471858118E+02  0.47126970912E+02  0.63020130246E+02  0.00000000000E+00 0.  1.
          5    1    4    4  501    0  0.14067004376E+02  0.45990632524E+02  0.15042637928E+02  0.50564535476E+02  0.41800000000E+01 0.  1.
         -5    1    4    4    0  501 -0.37046068833E+01  0.49188855281E+01  0.22442205001E+03  0.22454542632E+03  0.41800000000E+01 0.  1.
</event>
<event>
11    1  0.8039394E-009  0.1851785E+03  0.7561462E-02  0.1065529E+00
         22   -1    0    0    0    0  0.00000000000E+00  0.00000000000E+00  0.26370571046E+04  0.26370571046E+04  0.00000000000E+00 0. -1.
         22   -1    0    0    0    0 -0.00000000000E+00 -0.00000000000E+00 -0.13367389718E+04  0.13367389718E+04  0.00000000000E+00 0. -1.
        -24    2    1    2    0    0 -0.25067906402E+02  0.13347456863E+03 -0.12568429146E+04  0.12668891070E+04  0.83126631621E+02 0.  0.
         25    2    1    2    0    0 -0.22337442810E+02 -0.16311475470E+03  0.70730931305E+02  0.21855467255E+03  0.12513151361E+03 0.  0.
         24    2    1    2    0    0  0.47405349213E+02  0.29640186070E+02  0.24864301161E+04  0.24883522969E+04  0.80228571164E+02 0.  0.
        -13    1    5    5    0    0  0.64044620920E+01  0.32475214123E+02  0.35838694457E+03  0.35991229307E+03  0.00000000000E+00 0.  1.
         14    1    5    5    0    0  0.41000887120E+02 -0.28350280526E+01  0.21280431715E+04  0.21284400038E+04  0.00000000000E+00 0. -1.
         11    1    3    3    0    0  0.59429515808E+01  0.12160558794E+03 -0.84734589477E+03  0.85604807288E+03  0.00000000000E+00 0. -1.
        -12    1    3    3    0    0 -0.31010857983E+02  0.11868980687E+02 -0.40949701985E+03  0.41084103408E+03  0.00000000000E+00 0.  1.
          5    1    4    4  501    0 -0.29476105147E+02  0.10988389598E+02  0.42973478143E+01  0.32023820491E+02  0.41800000000E+01 0.  1.
         -5    1    4    4    0  501  0.71386623370E+01 -0.17410314429E+03  0.66433583491E+02  0.18653085205E+03  0.41800000000E+01 0.  1.
</event>
<event>
11    1  0.8039394E-009  0.1300256E+03  0.7561462E-02  0.1119238E+00
         22   -1    0    0    0    0  0.00000000000E+00  0.00000000000E+00  0.21465911838E+03  0.21465911838E+03  0.00000000000E+00 0. -1.
         22   -1    0    0    0    0 -0.00000000000E+00 -0.00000000000E+00 -0.10489728681E+04  0.10489728681E+04  0.00000000000E+00 0. -1.
        -24    2    1    2    0    0  0.34400246337E+02 -0.14671458076E+02 -0.81541460462E+03  0.82003927385E+03  0.78516269687E+02 0.  0.
         25    2    1    2    0    0 -0.21104391787E+02  0.32825596604E+01 -0.20433684900E+03  0.24053131263E+03  0.12508234866E+03 0.  0.
         24    2    1    2    0    0 -0.13295854550E+02  0.11388898415E+02  0.18543770387E+03  0.20306140002E+03  0.80872142353E+02 0.  0.
        -11    1    5    5    0    0 -0.30623678996E+02  0.32671397730E+01  0.20452607532E+02  0.36970164625E+02  0.00000000000E+00 0.  1.
         12    1    5    5    0    0  0.17327824446E+02  0.81217586422E+01  0.16498509634E+03  0.16609123540E+03  0.00000000000E+00 0. -1.
         13    1    3    3    0    0  0.58439776556E+02 -0.47821063725E+01 -0.64415567789E+03  0.64681884124E+03  0.00000000000E+00 0. -1.
        -14    1    3    3    0    0 -0.24039530220E+02 -0.98893517031E+01 -0.17125892673E+03  0.17322043262E+03  0.00000000000E+00 0.  1.
          5    1    4    4  501    0 -0.47066229338E+02  0.49204267736E+02 -0.78377906695E+02  0.10390793312E+03  0.41800000000E+01 0.  1.
         -5    1    4    4    0  501  0.25961837551E+02 -0.45921708076E+02 -0.12595894231E+03  0.13662337951E+03  0.41800000000E+01 0.  1.
</event>
<event>
11    1  0.8039394E-009  0.1319836E+03  0.7561462E-02  0.1116856E+00
         22   -1    0    0    0    0  0.00000000000E+00  0.00000000000E+00  0.10825769468E+03  0.10825769468E+03  0.00000000000E+00 0.  1.
         22   -1    0    0    0    0 -0.00000000000E+00 -0.00000000000E+00 -0.10619158373E+04  0.10619158373E+04  0.00000000000E+00 0. -1.
         24    2    1    2    0    0 -0.40817696956E+02 -0.85423220199E+01 -0.85748138696E+03  0.86231526057E+03  0.81081588372E+02 0.  0.
         25    2    1    2    0    0  0.53842761521E+02 -0.31128924747E+02 -0.14778877079E+03  0.20334244235E+03  0.12505428887E+03 0.  0.
        -24    2    1    2    0    0 -0.13025064565E+02  0.39671246767E+02  0.51612015087E+02  0.10451582910E+03  0.80723591990E+02 0.  0.
        -13    1    3    3    0    0  0.24918899834E+01  0.30777485804E+02 -0.38275669334E+03  0.38400019459E+03  0.00000000000E+00 0.  1.
         14    1    3    3    0    0 -0.43309586939E+02 -0.39319807824E+02 -0.47472469362E+03  0.47831506598E+03  0.00000000000E+00 0. -1.
         13    1    5    5    0    0 -0.33587629714E+02  0.19766349546E+02 -0.67145968448E+01  0.39546469564E+02  0.00000000000E+00 0. -1.
        -14    1    5    5    0    0  0.20562565148E+02  0.19904897221E+02  0.58326611932E+02  0.64969359535E+02  0.00000000000E+00 0.  1.
          5    1    4    4  501    0  0.63286380315E+02  0.30593569129E+00 -0.13249449977E+02  0.64794134416E+02  0.41800000000E+01 0. -1.
         -5    1    4    4    0  501 -0.94436187942E+01 -0.31434860438E+02 -0.13453932081E+03  0.13854830793E+03  0.41800000000E+01 0. -1.
</event>
<event>
11    1  0.8039394E-009  0.1291541E+03  0.7561462E-02  0.1120313E+00
         22   -1    0    0    0    0  0.00000000000E+00  0.00000000000E+00  0.73950882129E+03  0.73950882129E+03  0.00000000000E+00 0. -1.
         22   -1    0    0    0    0 -0.00000000000E+00 -0.00000000000E+00 -0.13354059008E+03  0.13354059008E+03  0.00000000000E+00 0. -1.
         24    2    1    2    0    0 -0.14441773802E+02  0.25818556084E+02 -0.73266487272E+02  0.11132836108E+03  0.78427438794E+02 0.  0.
         25    2    1    2    0    0  0.43455753604E+02 -0.12805215403E+02  0.80535352475E+02  0.15551715853E+03  0.12508903843E+03 0.  0.
        -24    2    1    2    0    0 -0.29013979802E+02 -0.13013340682E+02  0.59869936601E+03  0.60620389177E+03  0.89616234418E+02 0.  0.
        -13    1    3    3    0    0  0.52030036585E+01 -0.24689836901E+02 -0.79469152171E+01  0.26453974271E+02  0.00000000000E+00 0.  1.
         14    1    3    3    0    0 -0.19644777460E+02  0.50508392986E+02 -0.65319572054E+02  0.84874386813E+02  0.00000000000E+00 0. -1.
         11    1    5    5    0    0 -0.34239539770E+02  0.18048963192E+01  0.58294805759E+03  0.58395551336E+03  0.00000000000E+00 0. -1.
        -12    1    5    5    0    0  0.52255599675E+01 -0.14818237001E+02  0.15751308420E+02  0.22248378407E+02  0.00000000000E+00 0.  1.
          5    1    4    4  501    0 -0.26025957567E+02  0.16725544224E+02  0.73164487804E+02  0.79546269381E+02  0.41800000000E+01 0. -1.
         -5    1    4    4    0  501  0.69481711171E+02 -0.29530759627E+02  0.73708646714E+01  0.75970889144E+02  0.41800000000E+01 0. -1.
</event>
<event>
11    1  0.8039394E-009  0.2000581E+03  0.7561462E-02  0.1054483E+00
         22   -1    0    0    0    0  0.00000000000E+00  0.00000000000E+00  0.48994315833E+04  0.48994315833E+04  0.00000000000E+00 0. -1.
         22   -1    0    0    0    0 -0.00000000000E+00 -0.00000000000E+00 -0.10976534464E+04  0.10976534464E+04  0.00000000000E+00 0. -1.
         24    2    1    2    0    0 -0.85271180994E+02  0.81131555641E+02 -0.10674947721E+04  0.10769451163E+04  0.80076160779E+02 0.  0.
         25    2    1    2    0    0  0.78840491197E+02  0.80449481512E+02  0.27495969746E+03  0.32239976479E+03  0.12510328124E+03 0.  0.
        -24    2    1    2    0    0  0.64306897970E+01 -0.16158103715E+03  0.45943132115E+04  0.45977401486E+04  0.73149183135E+02 0.  0.
        -13    1    3    3    0    0  0.15439084900E+02  0.63161695917E+01 -0.10732094740E+03  0.10860959944E+03  0.00000000000E+00 0.  1.
         14    1    3    3    0    0 -0.10071026589E+03  0.74815386050E+02 -0.96017382466E+03  0.96833551686E+03  0.00000000000E+00 0. -1.
         11    1    5    5    0    0 -0.21520683466E+02 -0.14013548041E+03  0.35380543980E+04  0.35408939571E+04  0.00000000000E+00 0. -1.
        -12    1    5    5    0    0  0.27951373263E+02 -0.21445556744E+02  0.10562588135E+04  0.10568461914E+04  0.00000000000E+00 0.  1.
          5    1    4    4  501    0  0.80279942177E+02  0.10983480790E+03  0.24458375029E+03  0.27990576530E+03  0.41800000000E+01 0.  1.
         -5    1    4    4    0  501 -0.14394509794E+01 -0.29385326384E+02  0.30375947176E+02  0.42493999490E+02  0.41800000000E+01 0.  1.
</event>
<event>
11    1  0.8039394E-009  0.1648306E+03  0.7561462E-02  0.1082620E+00
         22   -1    0    0    0    0  0.00000000000E+00  0.00000000000E+00  0.77691060339E+02  0.77691060339E+02  0.00000000000E+00 0. -1.
         22   -1    0    0    0    0 -0.00000000000E+00 -0.00000000000E+00 -0.90225648226E+03  0.90225648226E+03  0.00000000000E+00 0.  1.
         24    2    1    2    0    0 -0.10333204566E+03 -0.32367581335E+02 -0.44466989624E+03  0.46447307164E+03  0.79238536549E+02 0.  0.
         25    2    1    2    0    0  0.10705666912E+03  0.88010043395E+01 -0.39549264451E+03  0.42848616450E+03  0.12508946089E+03 0.  0.
        -24    2    1    2    0    0 -0.37246234616E+01  0.23566576995E+02  0.15597118829E+02  0.86988306456E+02  0.82185393916E+02 0.  0.
        -13    1    3    3    0    0 -0.10240368562E+03 -0.51624730504E+02 -0.37083906091E+03  0.38816650645E+03  0.00000000000E+00 0.  1.
         14    1    3    3    0    0 -0.92836004102E+00  0.19257149169E+02 -0.73830835328E+02  0.76306565194E+02  0.00000000000E+00 0. -1.
         13    1    5    5    0    0 -0.14920105119E+02 -0.14309083251E+02  0.36764472216E+02  0.42178025292E+02  0.00000000000E+00 0. -1.
        -14    1    5    5    0    0  0.11195481657E+02  0.37875660246E+02 -0.21167353387E+02  0.44810281164E+02  0.00000000000E+00 0.  1.
          5    1    4    4  501    0  0.40566612629E+01  0.52273175116E+02 -0.11276045956E+03  0.12442401286E+03  0.41800000000E+01 0.  1.
         -5    1    4    4    0  501  0.10300000786E+03 -0.43472170776E+02 -0.28273218495E+03  0.30406215164E+03  0.41800000000E+01 0.  1.
</event>
<event>
11    1  0.8039394E-009  0.1995750E+03  0.7561462E-02  0.1054825E+00
         22   -1    0    0    0    0  0.00000000000E+00  0.00000000000E+00  0.32022700039E+03  0.32022700039E+03  0.00000000000E+00 0.  1.
         22   -1    0    0    0    0 -0.00000000000E+00 -0.00000000000E+00 -0.20685757142E+04  0.20685757142E+04  0.00000000000E+00 0. -1.
        -24    2    1    2    0    0  0.27443272924E+02 -0.29670581158E+02 -0.15266682581E+04  0.15285066963E+04  0.63113182940E+02 0.  0.
         25    2    1    2    0    0 -0.11208989949E+03  0.15786626939E+03 -0.48962802478E+03  0.54117401418E+03  0.12509119234E+03 0.  0.
         24    2    1    2    0    0  0.84646626570E+02 -0.12819568823E+03  0.26794756908E+03  0.31912200405E+03  0.80273082790E+02 0.  0.
        -11    1    5    5    0    0  0.83099060656E+02 -0.12342577086E+03  0.27367576283E+03  0.31150890510E+03  0.00000000000E+00 0.  1.
         12    1    5    5    0    0  0.15475659143E+01 -0.47699173701E+01 -0.57281937501E+01  0.76130989495E+01  0.00000000000E+00 0. -1.
         11    1    3    3    0    0  0.12995503635E+02 -0.48661449164E+02 -0.93212047952E+03  0.93348026657E+03  0.00000000000E+00 0. -1.
        -12    1    3    3    0    0  0.14447769289E+02  0.18990868005E+02 -0.59454777859E+03  0.59502642978E+03  0.00000000000E+00 0.  1.
          5    1    4    4  501    0 -0.35157449195E+02  0.85289815328E+02 -0.37041480271E+03  0.38175253411E+03  0.41800000000E+01 0. -1.
         -5    1    4    4    0  501 -0.76932450300E+02  0.72576454062E+02 -0.11921322207E+03  0.15942148007E+03  0.41800000000E+01 0. -1.
</event>
<event>
11    1  0.8039394E-009  0.1565440E+03  0.7561462E-02  0.1090374E+00
         22   -1    0    0    0    0  0.00000000000E+00  0.00000000000E+00  0.23121857096E+04  0.23121857096E+04  0.00000000000E+00 0. -1.
         22   -1    0    0    0    0 -0.00000000000E+00 -0.00000000000E+00 -0.64306393719E+02  0.64306393719E+02  0.00000000000E+00 0. -1.
         24    2    1    2    0    0  0.70501566992E+02  0.61974927079E+02  0.24845788013E+02  0.12721674447E+03  0.82191388585E+02 0.  0.
         25    2    1    2    0    0 -0.10202031157E+03 -0.27211325730E+02  0.55465428715E+03  0.57830596328E+03  0.12509120151E+03 0.  0.
        -24    2    1    2    0    0  0.31518744576E+02 -0.34763601349E+02  0.16683792407E+04  0.16709693955E+04  0.80296268913E+02 0.  0.
        -13    1    3    3    0    0  0.11126097533E+02  0.38366153801E+02 -0.24165673033E+02  0.46687595322E+02  0.00000000000E+00 0.  1.
         14    1    3    3    0    0  0.59375469460E+02  0.23608773278E+02  0.49011461046E+02  0.80529149151E+02  0.00000000000E+00 0. -1.
         11    1    5    5    0    0  0.57564366194E+02 -0.13172465495E+02  0.11007603388E+04  0.11023431832E+04  0.00000000000E+00 0. -1.
        -12    1    5    5    0    0 -0.26045621617E+02 -0.21591135854E+02  0.56761890194E+03  0.56862621237E+03  0.00000000000E+00 0.  1.
          5    1    4    4  501    0 -0.55848609908E+02  0.13831545809E+02  0.74738314477E+02  0.94412218166E+02  0.41800000000E+01 0.  1.
         -5    1    4    4    0  501 -0.46171701660E+02 -0.41042871538E+02  0.47991597267E+03  0.48389374512E+03  0.41800000000E+01 0.  1.
</event>
<event>
11    1  0.8039394E-009  0.1400869E+03  0.7561462E-02  0.1107461E+00
         22   -1    0    0    0    0  0.00000000000E+00  0.00000000000E+00  0.18967036912E+04  0.18967036912E+04  0.00000000000E+00 0.  1.
         22   -1    0    0    0    0 -0.00000000000E+00 -0.00000000000E+00 -0.15209093375E+03  0.15209093375E+03  0.00000000000E+00 0.  1.
         24    2    1    2    0    0  0.33815988531E+02  0.51784095865E+02 -0.97125049142E+02  0.14038621692E+03  0.80311276074E+02 0.  0.
         25    2    1    2    0    0 -0.92574361816E+02 -0.31936416034E+02  0.17005400203E+03  0.23271665051E+03  0.12509487872E+03 0.  0.
        -24    2    1    2    0    0  0.58758373285E+02 -0.19847679831E+02  0.16716838045E+04  0.16756917575E+04  0.97824572421E+02 0.  0.
        -11    1    3    3    0    0  0.11158741970E+02  0.36265602211E+02 -0.10514092864E+03  0.11177802244E+03  0.00000000000E+00 0.  1.
         12    1    3    3    0    0  0.22657246561E+02  0.15518493654E+02  0.80158794970E+01  0.28608194475E+02  0.00000000000E+00 0. -1.
         11    1    5    5    0    0  0.72198207075E+02  0.18938286390E+02  0.10387263721E+04  0.10414046840E+04  0.00000000000E+00 0. -1.
        -12    1    5    5    0    0 -0.13439833789E+02 -0.38785966221E+02  0.63295743245E+03  0.63428707349E+03  0.00000000000E+00 0.  1.
          5    1    4    4  501    0 -0.12311531601E+03 -0.29468185423E+02  0.14762012231E+03  0.19451202507E+03  0.41800000000E+01 0.  1.
         -5    1    4    4    0  501  0.30540954190E+02 -0.24682306103E+01  0.22433879720E+02  0.38204625433E+02  0.41800000000E+01 0.  1.
</event>
<event>
11    1  0.8039394E-009  0.1371580E+03  0.7561462E-02  0.1110774E+00
         22   -1    0    0    0    0  0.00000000000E+00  0.00000000000E+00  0.97080944470E+02  0.97080944470E+02  0.00000000000E+00 0. -1.
         22   -1    0    0    0    0 -0.00000000000E+00 -0.00000000000E+00 -0.13445075389E+04  0.13445075389E+04  0.00000000000E+00 0.  1.
         24    2    1    2    0    0 -0.31546122463E+01  0.11315477827E+01 -0.10013645044E+04  0.10049829898E+04  0.85139339492E+02 0.  0.
         25    2    1    2    0    0  0.58775043200E+02  0.53156386561E+01 -0.29556527251E+03  0.32632604915E+03  0.12508836204E+03 0.  0.
        -24    2    1    2    0    0 -0.55620430954E+02 -0.64471864388E+01  0.49503182551E+02  0.11027944436E+03  0.81091258549E+02 0.  0.
        -13    1    3    3    0    0  0.17221086207E+02  0.26300584699E+02 -0.82942704757E+03  0.83002259837E+03  0.00000000000E+00 0.  1.
         14    1    3    3    0    0 -0.20375698454E+02 -0.25169036917E+02 -0.17193745686E+03  0.17496039146E+03  0.00000000000E+00 0. -1.
         11    1    5    5    0    0 -0.51474171764E+02 -0.14672961100E+02  0.69817769913E+02  0.87973900345E+02  0.00000000000E+00 0. -1.
        -12    1    5    5    0    0 -0.41462591897E+01  0.82257746612E+01 -0.20314587363E+02  0.22305544014E+02  0.00000000000E+00 0.  1.
          5    1    4    4  501    0 -0.19444912018E+02 -0.42120141748E+02 -0.92438091545E+02  0.10351079225E+03  0.41800000000E+01 0. -1.
         -5    1    4    4    0  501  0.78219955218E+02  0.47435780405E+02 -0.20312718097E+03  0.22281525690E+03  0.41800000000E+01 0. -1.
</event>
<event>
11    1  0.8039394E-009  0.1327706E+03  0.7561462E-02  0.1115911E+00
         22   -1    0    0    0    0  0.00000000000E+00  0.00000000000E+00  0.60469538504E+02  0.60469538504E+02  0.00000000000E+00 0.  1.
         22   -1    0    0    0    0 -0.00000000000E+00 -0.00000000000E+00 -0.23832801813E+04  0.23832801813E+04  0.00000000000E+00 0.  1.
         24    2    1    2    0    0  0.14996553802E+02 -0.45226772263E+02 -0.15746445517E+04  0.15773984625E+04  0.80063023900E+02 0.  0.
         25    2    1    2    0    0  0.73130590608E+01  0.35413797092E+02 -0.76776728043E+03  0.77873005807E+03  0.12508512536E+03 0.  0.
        -24    2    1    2    0    0 -0.22309612862E+02  0.98129751702E+01  0.19601189329E+02  0.87621199223E+02  0.81848974474E+02 0.  0.
        -11    1    3    3    0    0  0.30839350265E+02 -0.13627036303E+02 -0.13063796542E+04  0.13068146627E+04  0.00000000000E+00 0.  1.
         12    1    3    3    0    0 -0.15842796464E+02 -0.31599735959E+02 -0.26826489749E+03  0.27058379984E+03  0.00000000000E+00 0. -1.
         11    1    5    5    0    0  0.96093201273E+01 -0.93722197232E+00 -0.27824865679E+02  0.29452344022E+02  0.00000000000E+00 0. -1.
        -12    1    5    5    0    0 -0.31918932990E+02  0.10750197142E+02  0.47426055008E+02  0.58168855201E+02  0.00000000000E+00 0.  1.
          5    1    4    4  501    0  0.56338691988E+02  0.23663485910E+02 -0.60961699321E+03  0.61268618361E+03  0.41800000000E+01 0. -1.
         -5    1    4    4    0  501 -0.49025632927E+02  0.11750311183E+02 -0.15815028722E+03  0.16604387446E+03  0.41800000000E+01 0. -1.
</event>
<event>
11    1  0.8039394E-009  0.1432502E+03  0.7561462E-02  0.1103982E+00
         22   -1    0    0    0    0  0.00000000000E+00  0.00000000000E+00  0.20691687367E+04  0.20691687367E+04  0.00000000000E+00 0. -1.
         22   -1    0    0    0    0 -0.00000000000E+00 -0.00000000000E+00 -0.92002935719E+03  0.92002935719E+03  0.00000000000E+00 0.  1.
        -24    2    1    2    0    0 -0.68128599569E+02 -0.21359588311E+02 -0.85370736529E+03  0.86047668381E+03  0.80660521572E+02 0.  0.
         25    2    1    2    0    0  0.33716222212E+02  0.17215704202E+02  0.69055582300E+01  0.13087771175E+03  0.12509246415E+03 0.  0.
         24    2    1    2    0    0  0.34412377357E+02  0.41438841087E+01  0.19959411866E+04  0.19978436984E+04  0.79980242804E+02 0.  0.
        -11    1    5    5    0    0 -0.19834848455E+01  0.90375483324E+00  0.73105694360E+00  0.22990061300E+01  0.00000000000E+00 0.  1.
         12    1    5    5    0    0  0.36395862202E+02  0.32401292754E+01  0.19952101297E+04  0.19955446922E+04  0.00000000000E+00 0. -1.
         13    1    3    3    0    0 -0.10666202190E+02 -0.20523327968E+02 -0.54488891746E+02  0.59194714154E+02  0.00000000000E+00 0. -1.
        -14    1    3    3    0    0 -0.57462397379E+02 -0.83626034259E+00 -0.79921847354E+03  0.80128196966E+03  0.00000000000E+00 0.  1.
          5    1    4    4  501    0 -0.21201936981E+02  0.40479968286E+02  0.41441951108E+02  0.61830879630E+02  0.41800000000E+01 0. -1.
         -5    1    4    4    0  501  0.54918159194E+02 -0.23264264084E+02 -0.34536392878E+02  0.69046832119E+02  0.41800000000E+01 0. -1.
</event>
<event>
11    1  0.8039394E-009  0.1373415E+03  0.7561462E-02  0.1110564E+00
         22   -1    0    0    0    0  0.00000000000E+00  0.00000000000E+00  0.54130907882E+03  0.54130907882E+03  0.00000000000E+00 0.  1.
         22   -1    0    0    0    0 -0.00000000000E+00 -0.00000000000E+00 -0.32206803579E+03  0.32206803579E+03  0.00000000000E+00 0.  1.
        -24    2    1    2    0    0  0.28202870846E+01  0.37828866168E+02 -0.26524978824E+03  0.27938651734E+03  0.79122681795E+02 0.  0.
         25    2    1    2    0    0  0.34269821130E+02 -0.77059083360E+02  0.82953003474E+02  0.17216598745E+03  0.12508958182E+03 0.  0.
         24    2    1    2    0    0 -0.37090108215E+02  0.39230217192E+02  0.40153782779E+03  0.41182460983E+03  0.73838987288E+02 0.  0.
        -11    1    5    5    0    0 -0.39833699556E+02  0.28075148479E+02  0.39615017276E+03  0.39913643903E+03  0.00000000000E+00 0.  1.
         12    1    5    5    0    0  0.27435913411E+01  0.11155068713E+02  0.53876550285E+01  0.12688170796E+02  0.00000000000E+00 0. -1.
         13    1    3    3    0    0 -0.23837676988E+01  0.62238815482E+02 -0.20223706872E+03  0.21161092709E+03  0.00000000000E+00 0. -1.
        -14    1    3    3    0    0  0.52040547834E+01 -0.24409949314E+02 -0.63012719521E+02  0.67775590246E+02  0.00000000000E+00 0.  1.
          5    1    4    4  501    0  0.56984845919E+02  0.75989741937E+01  0.10988966027E+02  0.58679185812E+02  0.41800000000E+01 0.  1.
         -5    1    4    4    0  501 -0.22715024789E+02 -0.84658057554E+02  0.71964037447E+02  0.11348680164E+03  0.41800000000E+01 0.  1.
</event>
<event>
11    1  0.8039394E-009  0.1374386E+03  0.7561462E-02  0.1110453E+00
         22   -1    0    0    0    0  0.00000000000E+00  0.00000000000E+00  0.10840874940E+03  0.10840874940E+03  0.00000000000E+00 0. -1.
         22   -1    0    0    0    0 -0.00000000000E+00 -0.00000000000E+00 -0.65819400504E+03  0.65819400504E+03  0.00000000000E+00 0.  1.
         24    2    1    2    0    0  0.67738471203E+01  0.56380202769E+02 -0.53579186524E+03  0.54484479044E+03  0.80983396739E+02 0.  0.
         25    2    1    2    0    0  0.94304713686E+01 -0.60402214271E+02 -0.11859996332E+02  0.13973577922E+03  0.12509223478E+03 0.  0.
        -24    2    1    2    0    0 -0.16204318489E+02  0.40220115011E+01 -0.21333940778E+01  0.82022184781E+02  0.80276590061E+02 0.  0.
        -11    1    3    3    0    0  0.15869124742E+02  0.62179362117E+02 -0.52709967837E+03  0.53099168838E+03  0.00000000000E+00 0.  1.
         12    1    3    3    0    0 -0.90952776216E+01 -0.57991593473E+01 -0.86921868702E+01  0.13853102062E+02  0.00000000000E+00 0. -1.
         11    1    5    5    0    0  0.15816942169E+02 -0.20587473206E+02  0.22806490348E+02  0.34556558199E+02  0.00000000000E+00 0. -1.
        -12    1    5    5    0    0 -0.32021260658E+02  0.24609484707E+02 -0.24939884426E+02  0.47465626582E+02  0.00000000000E+00 0.  1.
          5    1    4    4  501    0 -0.47933244331E+01  0.31805796744E+02 -0.30475532697E+02  0.44506349646E+02  0.41800000000E+01 0. -1.
         -5    1    4    4    0  501  0.14223795802E+02 -0.92208011015E+02  0.18615536366E+02  0.95229429572E+02  0.41800000000E+01 0. -1.
</event>
<event>
11    1  0.8039394E-009  0.2721057E+03  0.7561462E-02  0.1012741E+00
         22   -1    0    0    0    0  0.00000000000E+00  0.00000000000E+00  0.17334026744E+03  0.17334026744E+03  0.00000000000E+00 0.  1.
         22   -1    0    0    0    0 -0.00000000000E+00 -0.00000000000E+00 -0.99465560716E+03  0.99465560716E+03  0.00000000000E+00 0.  1.
         24    2    1    2    0    0 -0.23385322118E+03  0.25282455561E+02 -0.58222070112E+03  0.63309940695E+03  0.80668349729E+02 0.  0.
         25    2    1    2    0    0  0.24619439046E+03 -0.87039359184E+02 -0.30118810601E+03  0.41779016717E+03  0.12508725212E+03 0.  0.
        -24    2    1    2    0    0 -0.12341169275E+02  0.61756903623E+02  0.62093467408E+02  0.11710630048E+03  0.76759802712E+02 0.  0.
        -13    1    3    3    0    0 -0.16208944214E+03 -0.19811977055E+02 -0.40390121259E+03  0.43566235920E+03  0.00000000000E+00 0.  1.
         14    1    3    3    0    0 -0.71763779046E+02  0.45094432616E+02 -0.17831948853E+03  0.19743704775E+03  0.00000000000E+00 0. -1.
         13    1    5    5    0    0  0.18103014759E+02  0.32934671093E+02  0.64999563618E+02  0.75082321314E+02  0.00000000000E+00 0. -1.
        -14    1    5    5    0    0 -0.30444184034E+02  0.28822232530E+02 -0.29060962094E+01  0.42023979163E+02  0.00000000000E+00 0.  1.
          5    1    4    4  501    0  0.22593267371E+03 -0.36249320754E+02 -0.27263924820E+03  0.35596238336E+03  0.41800000000E+01 0.  1.
         -5    1    4    4    0  501  0.20261716749E+02 -0.50790038431E+02 -0.28548857805E+02  0.61827783815E+02  0.41800000000E+01 0.  1.
</event>
<event>
11    1  0.8039394E-009  0.2811246E+03  0.7561462E-02  0.1008512E+00
         22   -1    0    0    0    0  0.00000000000E+00  0.00000000000E+00  0.33876334869E+04  0.33876334869E+04  0.00000000000E+00 0.  1.
         22   -1    0    0    0    0 -0.00000000000E+00 -0.00000000000E+00 -0.49419531493E+03  0.49419531493E+03  0.00000000000E+00 0.  1.
        -24    2    1    2    0    0 -0.24472793888E+03 -0.50360572281E+02 -0.31532355613E+03  0.41160878539E+03  0.86976409765E+02 0.  0.
         25    2    1    2    0    0  0.24955443436E+03  0.66896205326E+02  0.28065974015E+02  0.28842260975E+03  0.12508950763E+03 0.  0.
         24    2    1    2    0    0 -0.48264954896E+01 -0.16535633045E+02  0.31806957540E+04  0.31817974066E+04  0.81930061091E+02 0.  0.
        -11    1    5    5    0    0  0.38487414282E+02 -0.11173948631E+02  0.15256003834E+04  0.15261266881E+04  0.00000000000E+00 0.  1.
         12    1    5    5    0    0 -0.43313909771E+02 -0.53616844141E+01  0.16550953706E+04  0.16556707186E+04  0.00000000000E+00 0. -1.
         13    1    3    3    0    0 -0.40622082031E+01  0.58987149283E+00  0.57896736394E+01  0.70971687815E+01  0.00000000000E+00 0. -1.
        -14    1    3    3    0    0 -0.24066573067E+03 -0.50950443774E+02 -0.32111322977E+03  0.40451161661E+03  0.00000000000E+00 0.  1.
          5    1    4    4  501    0  0.32665655578E+02  0.23339214949E+02 -0.40104694489E+02  0.56900113610E+02  0.41800000000E+01 0. -1.
         -5    1    4    4    0  501  0.21688877879E+03  0.43556990377E+02  0.68170668504E+02  0.23152249614E+03  0.41800000000E+01 0. -1.
</event>
<event>
11    1  0.8039394E-009  0.1743791E+03  0.7561462E-02  0.1074282E+00
         22   -1    0    0    0    0  0.00000000000E+00  0.00000000000E+00  0.69491129786E+03  0.69491129786E+03  0.00000000000E+00 0.  1.
         22   -1    0    0    0    0 -0.00000000000E+00 -0.00000000000E+00 -0.41108990465E+04  0.41108990465E+04  0.00000000000E+00 0.  1.
         24    2    1    2    0    0 -0.11462261516E+03  0.14953164033E+02 -0.32927779660E+04  0.32957703055E+04  0.79707165640E+02 0.  0.
         25    2    1    2    0    0  0.17643538371E+03 -0.38152123685E+02 -0.79780367680E+03  0.82748039402E+03  0.12509223238E+03 0.  0.
        -24    2    1    2    0    0 -0.61812768550E+02  0.23198959651E+02  0.67459389417E+03  0.68255964482E+03  0.80322702926E+02 0.  0.
        -11    1    3    3    0    0 -0.22644056742E+02 -0.28316003572E+02 -0.11676238193E+04  0.11681866001E+04  0.00000000000E+00 0.  1.
         12    1    3    3    0    0 -0.91978558420E+02  0.43269167606E+02 -0.21251541468E+04  0.21275837054E+04  0.00000000000E+00 0. -1.
         11    1    5    5    0    0 -0.14554316677E+02 -0.19457216230E+02  0.60838166047E+02  0.65511020793E+02  0.00000000000E+00 0. -1.
        -12    1    5    5    0    0 -0.47258451873E+02  0.42656175881E+02  0.61375572812E+03  0.61704862403E+03  0.00000000000E+00 0.  1.
          5    1    4    4  501    0  0.13251978720E+03  0.27621527534E+02 -0.41394476712E+03  0.43553666368E+03  0.41800000000E+01 0.  1.
         -5    1    4    4    0  501  0.43915596516E+02 -0.65773651219E+02 -0.38385890968E+03  0.39194373034E+03  0.41800000000E+01 0.  1.
</event>
<event>
11    1  0.8039394E-009  0.1317268E+03  0.7561462E-02  0.1117165E+00
         22   -1    0    0    0    0  0.00000000000E+00  0.00000000000E+00  0.15406083190E+03  0.15406083190E+03  0.00000000000E+00 0. -1.
         22   -1    0    0    0    0 -0.00000000000E+00 -0.00000000000E+00 -0.10632694354E+04  0.10632694354E+04  0.00000000000E+00 0.  1.
         24    2    1    2    0    0  0.39939752468E+02  0.20211839548E+01 -0.81404810556E+03  0.81839776626E+03  0.74170861083E+02 0.  0.
         25    2    1    2    0    0 -0.52891078049E+02 -0.31692019100E+01 -0.21402223433E+03  0.25349734654E+03  0.12509147828E+03 0.  0.
        -24    2    1    2    0    0  0.12951325581E+02  0.11480179553E+01  0.11886173637E+03  0.14543515453E+03  0.82790198829E+02 0.  0.
        -11    1    3    3    0    0 -0.67885576927E+01 -0.27296452366E+02 -0.33667050947E+03  0.33784347378E+03  0.00000000000E+00 0.  1.
         12    1    3    3    0    0  0.46728310161E+02  0.29317636321E+02 -0.47737759609E+03  0.48055429248E+03  0.00000000000E+00 0. -1.
         11    1    5    5    0    0  0.49427251151E+00  0.34479385208E+02  0.98670668159E+02  0.10452259595E+03  0.00000000000E+00 0. -1.
        -12    1    5    5    0    0  0.12457053070E+02 -0.33331367253E+02  0.20191068206E+02  0.40912558579E+02  0.00000000000E+00 0.  1.
          5    1    4    4  501    0 -0.60979931002E+01  0.55587785004E+02 -0.60246423662E+02  0.82306083163E+02  0.41800000000E+01 0. -1.
         -5    1    4    4    0  501 -0.46793084949E+02 -0.58756986914E+02 -0.15377581067E+03  0.17119126338E+03  0.41800000000E+01 0. -1.
</event>
<event>
11    1  0.8039394E-009  0.1372974E+03  0.7561462E-02  0.1110614E+00
         22   -1    0    0    0    0  0.00000000000E+00  0.00000000000E+00  0.72345036819E+02  0.72345036819E+02  0.00000000000E+00 0. -1.
         22   -1    0    0    0    0 -0.00000000000E+00 -0.00000000000E+00 -0.23509374571E+04  0.23509374571E+04  0.00000000000E+00 0. -1.
        -24    2    1    2    0    0  0.10893019595E+02 -0.14534639413E+02 -0.17736206058E+04  0.17754768342E+04  0.79107660690E+02 0.  0.
         25    2    1    2    0    0  0.65379680951E+01 -0.40510123022E+02 -0.52987602896E+03  0.54598523157E+03  0.12508977551E+03 0.  0.
         24    2    1    2    0    0 -0.17430987690E+02  0.55044762434E+02  0.24904214479E+02  0.10182042811E+03  0.80083796597E+02 0.  0.
        -13    1    5    5    0    0 -0.29495588824E+02 -0.87161094278E+01 -0.35562889714E+01  0.30961387484E+02  0.00000000000E+00 0.  1.
         14    1    5    5    0    0  0.12064601135E+02  0.63760871862E+02  0.28460503451E+02  0.70859040622E+02  0.00000000000E+00 0. -1.
         13    1    3    3    0    0  0.89291086216E+01  0.12605082281E+02 -0.15665352118E+04  0.15666113707E+04  0.00000000000E+00 0. -1.
        -14    1    3    3    0    0  0.19639109731E+01 -0.27139721694E+02 -0.20708539400E+03  0.20886546352E+03  0.00000000000E+00 0.  1.
          5    1    4    4  501    0  0.42459040120E+02 -0.22770254448E+02 -0.74428441535E+02  0.88759900208E+02  0.41800000000E+01 0. -1.
         -5    1    4    4    0  501 -0.35921072025E+02 -0.17739868573E+02 -0.45544758742E+03  0.45722533136E+03  0.41800000000E+01 0. -1.
</event>
<event>
11    1  0.8039394E-009  0.2912231E+03  0.7561462E-02  0.1003976E+00
         22   -1    0    0    0    0  0.00000000000E+00  0.00000000000E+00  0.60350342947E+03  0.60350342947E+03  0.00000000000E+00 0. -1.
         22   -1    0    0    0    0 -0.00000000000E+00 -0.00000000000E+00 -0.21543352170E+04  0.21543352170E+04  0.00000000000E+00 0.  1.
        -24    2    1    2    0    0  0.51199104565E+02 -0.43200272464E+02 -0.19383624769E+04  0.19411916081E+04  0.80549086346E+02 0.  0.
         25    2    1    2    0    0 -0.29365006069E+03 -0.40183573980E+02 -0.26582326128E+02  0.32279684387E+03  0.12508438988E+03 0.  0.
         24    2    1    2    0    0  0.24245095612E+03  0.83383846443E+02  0.41411301553E+03  0.49385019455E+03  0.81627771365E+02 0.  0.
        -13    1    5    5    0    0  0.44203390402E+02  0.58583264527E+01  0.27157541494E+02  0.52209115793E+02  0.00000000000E+00 0.  1.
         14    1    5    5    0    0  0.19824756572E+03  0.77525519991E+02  0.38695547403E+03  0.44164107876E+03  0.00000000000E+00 0. -1.
         11    1    3    3    0    0 -0.97069670044E+01  0.13617142490E+02 -0.15816331794E+03  0.15904492107E+03  0.00000000000E+00 0. -1.
        -12    1    3    3    0    0  0.60906071569E+02 -0.56817414954E+02 -0.17801991590E+04  0.17821466870E+04  0.00000000000E+00 0.  1.
          5    1    4    4  501    0 -0.21891342601E+03 -0.14722672640E+02  0.35461464456E+02  0.22229447371E+03  0.41800000000E+01 0.  1.
         -5    1    4    4    0  501 -0.74736634675E+02 -0.25460901340E+02 -0.62043790584E+02  0.10050237017E+03  0.41800000000E+01 0.  1.
</event>
<event>
11    1  0.8039394E-009  0.1392868E+03  0.7561462E-02  0.1108357E+00
         22   -1    0    0    0    0  0.00000000000E+00  0.00000000000E+00  0.84307240392E+03  0.84307240392E+03  0.00000000000E+00 0. -1.
         22   -1    0    0    0    0 -0.00000000000E+00 -0.00000000000E+00 -0.93162006132E+03  0.93162006132E+03  0.00000000000E+00 0. -1.
         24    2    1    2    0    0 -0.53310915707E+02 -0.11861813598E+02 -0.87949599845E+03  0.88485443008E+03  0.80444979940E+02 0.  0.
         25    2    1    2    0    0  0.10203927491E+03 -0.20500219494E+02  0.98260894640E+02  0.19009296276E+03  0.12509140040E+03 0.  0.
        -24    2    1    2    0    0 -0.48728359205E+02  0.32362033092E+02  0.69268744641E+03  0.69974507240E+03  0.80034453565E+02 0.  0.
        -13    1    3    3    0    0  0.77667900101E+01 -0.31987060140E+02 -0.29240607367E+03  0.29425296424E+03  0.00000000000E+00 0.  1.
         14    1    3    3    0    0 -0.61077705717E+02  0.20125246541E+02 -0.58708992478E+03  0.59060146584E+03  0.00000000000E+00 0. -1.
         11    1    5    5    0    0 -0.67958801809E+02  0.30435157452E+02  0.62276231896E+03  0.62719821705E+03  0.00000000000E+00 0. -1.
        -12    1    5    5    0    0  0.19230442604E+02  0.19268756397E+01  0.69925127447E+02  0.72546855349E+02  0.00000000000E+00 0.  1.
          5    1    4    4  501    0  0.63909734808E+02 -0.64752321471E+02  0.94751293588E+02  0.13142525395E+03  0.41800000000E+01 0.  1.
         -5    1    4    4    0  501  0.38129540104E+02  0.44252101977E+02  0.35096010514E+01  0.58667708814E+02  0.41800000000E+01 0.  1.
</event>
<event>
11    1  0.8039394E-009  0.1485577E+03  0.7561462E-02  0.1098362E+00
         22   -1    0    0    0    0  0.00000000000E+00  0.00000000000E+00  0.33053787591E+03  0.33053787591E+03  0.00000000000E+00 0.  1.
         22   -1    0    0    0    0 -0.00000000000E+00 -0.00000000000E+00 -0.13271978448E+03  0.13271978448E+03  0.00000000000E+00 0.  1.
         24    2    1    2    0    0  0.32909466348E+02  0.77503101718E+02 -0.37815199738E+02  0.12251725392E+03  0.80565032273E+02 0.  0.
         25    2    1    2    0    0 -0.42667449880E+02 -0.55598045791E+02  0.81083750218E+02  0.16472301109E+03  0.12508973522E+03 0.  0.
        -24    2    1    2    0    0  0.97579835319E+01 -0.21905055927E+02  0.15454954095E+03  0.17601739538E+03  0.80755886159E+02 0.  0.
        -11    1    3    3    0    0  0.42535362631E+02  0.24565957109E+02 -0.46942177853E+02  0.67943442542E+02  0.00000000000E+00 0.  1.
         12    1    3    3    0    0 -0.96258962829E+01  0.52937144609E+02  0.91269781150E+01  0.54573811376E+02  0.00000000000E+00 0. -1.
         11    1    5    5    0    0 -0.12500215578E+02 -0.17902504149E+02  0.21402507846E+01  0.21939364569E+02  0.00000000000E+00 0. -1.
        -12    1    5    5    0    0  0.22258199110E+02 -0.40025517787E+01  0.15240929017E+03  0.15407803081E+03  0.00000000000E+00 0.  1.
          5    1    4    4  501    0  0.15446415397E+02 -0.77609613332E+02  0.58401727519E+02  0.98438193845E+02  0.41800000000E+01 0. -1.
         -5    1    4    4    0  501 -0.58113865278E+02  0.22011567541E+02  0.22682022699E+02  0.66284817242E+02  0.41800000000E+01 0. -1.
</event>
<event>
11    1  0.8039394E-009  0.1316729E+03  0.7561462E-02  0.1117230E+00
         22   -1    0    0    0    0  0.00000000000E+00  0.00000000000E+00  0.76684162143E+03  0.76684162143E+03  0.00000000000E+00 0. -1.
         22   -1    0    0    0    0 -0.00000000000E+00 -0.00000000000E+00 -0.27553357894E+03  0.27553357894E+03  0.00000000000E+00 0. -1.
         24    2    1    2    0    0  0.43990324954E+02  0.19940334132E+02 -0.18446910616E+03  0.20743521759E+03  0.81656308728E+02 0.  0.
         25    2    1    2    0    0  0.69834449082E+01 -0.28728376271E+02 -0.22374491929E+02  0.13046831264E+03  0.12508906670E+03 0.  0.
        -24    2    1    2    0    0 -0.50973769862E+02  0.87880421395E+01  0.69815164057E+03  0.70447167014E+03  0.78670616474E+02 0.  0.
        -11    1    3    3    0    0  0.53496048977E+02 -0.94031967365E+01 -0.68429735142E+02  0.87366332283E+02  0.00000000000E+00 0.  1.
         12    1    3    3    0    0 -0.95057240232E+01  0.29343530868E+02 -0.11603937102E+03  0.12006888531E+03  0.00000000000E+00 0. -1.
         11    1    5    5    0    0 -0.53308090694E+02  0.36021049423E-01  0.69066780532E+03  0.69272200133E+03  0.00000000000E+00 0. -1.
        -12    1    5    5    0    0  0.23343208324E+01  0.87520210901E+01  0.74838352563E+01  0.11749668806E+02  0.00000000000E+00 0.  1.
          5    1    4    4  501    0 -0.12795245163E+02 -0.49220659381E+02 -0.62751947531E+02  0.80880596732E+02  0.41800000000E+01 0. -1.
         -5    1    4    4    0  501  0.19778690071E+02  0.20492283110E+02  0.40377455602E+02  0.49587715908E+02  0.41800000000E+01 0. -1.
</event>
<event>
11    1  0.8039394E-009  0.1529114E+03  0.7561462E-02  0.1093940E+00
         22   -1    0    0    0    0  0.00000000000E+00  0.00000000000E+00  0.10677064391E+03  0.10677064391E+03  0.00000000000E+00 0.  1.
         22   -1    0    0    0    0 -0.00000000000E+00 -0.00000000000E+00 -0.19886936595E+04  0.19886936595E+04  0.00000000000E+00 0.  1.
        -24    2    1    2    0    0  0.25865592716E+02 -0.34458708246E+01 -0.13643848532E+04  0.13670213128E+04  0.80748617289E+02 0.  0.
         25    2    1    2    0    0  0.58458131343E+02 -0.26366271214E+02 -0.57815114876E+03  0.59499463306E+03  0.12508928483E+03 0.  0.
         24    2    1    2    0    0 -0.84323724060E+02  0.29812142039E+02  0.60612986355E+02  0.13344835753E+03  0.78328001127E+02 0.  0.
        -11    1    5    5    0    0 -0.53941936090E+02  0.52184643280E+02  0.59372188601E+02  0.95697576995E+02  0.00000000000E+00 0.  1.
         12    1    5    5    0    0 -0.30381787970E+02 -0.22372501241E+02  0.12407977549E+01  0.37750780536E+02  0.00000000000E+00 0. -1.
         11    1    3    3    0    0  0.25393855923E+02 -0.30941276190E+02 -0.35291606892E+03  0.35517877498E+03  0.00000000000E+00 0. -1.
        -12    1    3    3    0    0  0.47173679320E+00  0.27495405366E+02 -0.10114687843E+04  0.10118425379E+04  0.00000000000E+00 0.  1.
          5    1    4    4  501    0 -0.48405822132E+00  0.28921106594E+02 -0.33892752882E+02  0.44753277164E+02  0.41800000000E+01 0.  1.
         -5    1    4    4    0  501  0.58942189565E+02 -0.55287377808E+02 -0.54425839588E+03  0.55024135590E+03  0.41800000000E+01 0.  1.
</event>
<event>
11    1  0.8039394E-009  0.2136909E+03  0.7561462E-02  0.1045243E+00
         22   -1    0    0    0    0  0.00000000000E+00  0.00000000000E+00  0.97442493560E+03  0.97442493560E+03  0.00000000000E+00 0.  1.
         22   -1    0    0    0    0 -0.00000000000E+00 -0.00000000000E+00 -0.59889993213E+03  0.59889993213E+03  0.00000000000E+00 0.  1.
         24    2    1    2    0    0  0.35516565550E+02  0.16557574750E+03 -0.44487782195E+03  0.48265410987E+03  0.79761887684E+02 0.  0.
         25    2    1    2    0    0 -0.91662908972E+02 -0.17871871493E+03 -0.26384803484E+02  0.23808930683E+03  0.12509153538E+03 0.  0.
        -24    2    1    2    0    0  0.56146343422E+02  0.13142967429E+02  0.84678762891E+03  0.85258145103E+03  0.80750806191E+02 0.  0.
        -13    1    3    3    0    0 -0.44643293647E+01  0.13110673702E+03 -0.27355309691E+03  0.30338128413E+03  0.00000000000E+00 0.  1.
         14    1    3    3    0    0  0.39980894915E+02  0.34469010478E+02 -0.17132472503E+03  0.17927282574E+03  0.00000000000E+00 0. -1.
         11    1    5    5    0    0 -0.45456764195E+01 -0.14514326937E+02  0.36346171394E+02  0.39400165425E+02  0.00000000000E+00 0. -1.
        -12    1    5    5    0    0  0.60692019842E+02  0.27657294366E+02  0.81044145751E+03  0.81318128561E+03  0.00000000000E+00 0.  1.
          5    1    4    4  501    0 -0.70951017528E+02 -0.33435623773E+02 -0.44318589174E+02  0.90186460024E+02  0.41800000000E+01 0. -1.
         -5    1    4    4    0  501 -0.20711891444E+02 -0.14528309116E+03  0.17933785690E+02  0.14790284680E+03  0.41800000000E+01 0. -1.
</event>
<event>
11    1  0.8039394E-009  0.2385055E+03  0.7561462E-02  0.1030207E+00
         22   -1    0    0    0    0  0.00000000000E+00  0.00000000000E+00  0.19269413460E+04  0.19269413460E+04  0.00000000000E+00 0.  1.
         22   -1    0    0    0    0 -0.00000000000E+00 -0.00000000000E+00 -0.11262761476E+04  0.11262761476E+04  0.00000000000E+00 0.  1.
         24    2    1    2    0    0 -0.72640598803E+02  0.17593149507E+02 -0.10505321922E+04  0.10561350358E+04  0.78848915836E+02 0.  0.
         25    2    1    2    0    0  0.11607850965E+03 -0.21258610157E+03  0.21612391335E+03  0.34788639340E+03  0.12509326842E+03 0.  0.
        -24    2    1    2    0    0 -0.43437910849E+02  0.19499295207E+03  0.16350734773E+04  0.16491960644E+04  0.80456691627E+02 0.  0.
        -13    1    3    3    0    0 -0.24297693994E+02  0.46079176541E+02 -0.55329786011E+03  0.55574471698E+03  0.00000000000E+00 0.  1.
         14    1    3    3    0    0 -0.48342904809E+02 -0.28486027034E+02 -0.49723433206E+03  0.50039031882E+03  0.00000000000E+00 0. -1.
         13    1    5    5    0    0  0.16666130698E+02  0.13624529087E+02  0.10092023550E+03  0.10319051138E+03  0.00000000000E+00 0. -1.
        -14    1    5    5    0    0 -0.60104041548E+02  0.18136842298E+03  0.15341532418E+04  0.15460055530E+04  0.00000000000E+00 0.  1.
          5    1    4    4  501    0  0.38918108056E+02 -0.18533223111E+03  0.13518704453E+03  0.23271369627E+03  0.41800000000E+01 0.  1.
         -5    1    4    4    0  501  0.77160401597E+02 -0.27253870467E+02  0.80936868823E+02  0.11517269713E+03  0.41800000000E+01 0.  1.
</event>
<event>
11    1  0.8039394E-009  0.2975656E+03  0.7561462E-02  0.1001227E+00
         22   -1    0    0    0    0  0.00000000000E+00  0.00000000000E+00  0.25795598773E+04  0.25795598773E+04  0.00000000000E+00 0.  1.
         22   -1    0    0    0    0 -0.00000000000E+00 -0.00000000000E+00 -0.60449726400E+03  0.60449726400E+03  0.00000000000E+00 0. -1.
         24    2    1    2    0    0  0.25794978999E+02  0.26422654879E+03 -0.49745204842E+03  0.56886496157E+03  0.75284487138E+02 0.  0.
         25    2    1    2    0    0  0.16579613469E+03 -0.37586772647E+03  0.66008481055E+03  0.78747914865E+03  0.12508615574E+03 0.  0.
        -24    2    1    2    0    0 -0.19159111369E+03  0.11164117768E+03  0.18124298511E+04  0.18277130311E+04  0.80386884567E+02 0.  0.
        -13    1    3    3    0    0  0.26354748483E+02  0.36764326972E+02 -0.53712594768E+02  0.70222726677E+02  0.00000000000E+00 0.  1.
         14    1    3    3    0    0 -0.55976948396E+00  0.22746222182E+03 -0.44373945365E+03  0.49864223489E+03  0.00000000000E+00 0. -1.
         11    1    5    5    0    0 -0.15140430313E+02  0.44588286277E+02  0.35339938986E+03  0.35652275756E+03  0.00000000000E+00 0. -1.
        -12    1    5    5    0    0 -0.17645068338E+03  0.67052891407E+02  0.14590304613E+04  0.14711902735E+04  0.00000000000E+00 0.  1.
          5    1    4    4  501    0  0.12643839143E+03 -0.21235807853E+03  0.48681277367E+03  0.54597323135E+03  0.41800000000E+01 0. -1.
         -5    1    4    4    0  501  0.39357743265E+02 -0.16350964795E+03  0.17327203688E+03  0.24150591730E+03  0.41800000000E+01 0. -1.
</event>
<event>
11    1  0.8039394E-009  0.6046240E+03  0.7561462E-02  0.9186016E-01
         22   -1    0    0    0    0  0.00000000000E+00  0.00000000000E+00  0.19445800412E+04  0.19445800412E+04  0.00000000000E+00 0. -1.
         22   -1    0    0    0    0 -0.00000000000E+00 -0.00000000000E+00 -0.54103064068E+03  0.54103064068E+03  0.00000000000E+00 0.  1.
        -24    2    1    2    0    0  0.16218489314E+03  0.19554197522E+03 -0.27885837133E+03  0.38829242427E+03  0.92023974330E+02 0.  0.
         25    2    1    2    0    0 -0.65370942317E+03 -0.31999818978E+03  0.96519748545E+03  0.12153137790E+04  0.12508614665E+03 0.  0.
         24    2    1    2    0    0  0.49152453003E+03  0.12445621456E+03  0.71721028644E+03  0.88200447866E+03  0.80346701448E+02 0.  0.
        -11    1    5    5    0    0  0.16275595899E+03  0.14535897579E+02  0.27806439399E+03  0.32252224995E+03  0.00000000000E+00 0.  1.
         12    1    5    5    0    0  0.32876857104E+03  0.10992031698E+03  0.43914589245E+03  0.55948222871E+03  0.00000000000E+00 0. -1.
         13    1    3    3    0    0  0.12015249962E+03  0.73916687243E+02 -0.13462196032E+03  0.19499582565E+03  0.00000000000E+00 0. -1.
        -14    1    3    3    0    0  0.42032393516E+02  0.12162528798E+03 -0.14423641101E+03  0.19329659862E+03  0.00000000000E+00 0.  1.
          5    1    4    4  501    0 -0.40762851051E+03 -0.26489336396E+03  0.64643967062E+03  0.80884560764E+03  0.41800000000E+01 0. -1.
         -5    1    4    4    0  501 -0.24608091266E+03 -0.55104825818E+02  0.31875781483E+03  0.40646817135E+03  0.41800000000E+01 0. -1.
</event>
<event>
11    1  0.8039394E-009  0.1292988E+03  0.7561462E-02  0.1120134E+00
         22   -1    0    0    0    0  0.00000000000E+00  0.00000000000E+00  0.32130217769E+03  0.32130217769E+03  0.00000000000E+00 0.  1.
         22   -1    0    0    0    0 -0.00000000000E+00 -0.00000000000E+00 -0.25009391814E+03  0.25009391814E+03  0.00000000000E+00 0.  1.
         24    2    1    2    0    0  0.24285207365E+02 -0.30769424521E+02 -0.19280038730E+03  0.21246386932E+03  0.80202104952E+02 0.  0.
         25    2    1    2    0    0 -0.18417820614E+02 -0.85088781317E+01  0.70177488335E+02  0.14485798181E+03  0.12508931970E+03 0.  0.
        -24    2    1    2    0    0 -0.58673867513E+01  0.39278302653E+02  0.19383115852E+03  0.21407424469E+03  0.81731590844E+02 0.  0.
        -13    1    3    3    0    0  0.11367247687E+01 -0.73402683776E+01 -0.17474653817E+03  0.17490432895E+03  0.00000000000E+00 0.  1.
         14    1    3    3    0    0  0.23148482597E+02 -0.23429156144E+02 -0.18053849135E+02  0.37559540369E+02  0.00000000000E+00 0. -1.
         11    1    5    5    0    0 -0.12425932474E+02  0.55257824861E+02  0.74942029597E+02  0.93936887357E+02  0.00000000000E+00 0. -1.
        -12    1    5    5    0    0  0.65585457226E+01 -0.15979522208E+02  0.11888912892E+03  0.12013735734E+03  0.00000000000E+00 0.  1.
          5    1    4    4  501    0  0.52316776825E+02 -0.17406237498E+02  0.29524188145E+02  0.62683110380E+02  0.41800000000E+01 0.  1.
         -5    1    4    4    0  501 -0.70734597439E+02  0.88973593667E+01  0.40653300191E+02  0.82174871433E+02  0.41800000000E+01 0.  1.
</event>
<event>
11    1  0.8039394E-009  0.1699146E+03  0.7561462E-02  0.1078106E+00
         22   -1    0    0    0    0  0.00000000000E+00  0.00000000000E+00  0.23619559226E+04  0.23619559226E+04  0.00000000000E+00 0. -1.
         22   -1    0    0    0    0 -0.00000000000E+00 -0.00000000000E+00 -0.97751868840E+03  0.97751868840E+03  0.00000000000E+00 0.  1.
         24    2    1    2    0    0  0.10939844094E+03 -0.41573942532E+02 -0.86066021210E+03  0.87235480059E+03  0.81058533478E+02 0.  0.
         25    2    1    2    0    0 -0.10781887192E+03 -0.26669854205E+02 -0.46097934521E+02  0.17351912642E+03  0.12509067672E+03 0.  0.
        -24    2    1    2    0    0 -0.15795690120E+01  0.68243796737E+02  0.22911953808E+04  0.22936006839E+04  0.79800461657E+02 0.  0.
        -11    1    3    3    0    0  0.45110877775E+02 -0.32681087855E+02 -0.63805075082E+03  0.64047779463E+03  0.00000000000E+00 0.  1.
         12    1    3    3    0    0  0.64287563160E+02 -0.88928546774E+01 -0.22260946128E+03  0.23187700596E+03  0.00000000000E+00 0. -1.
         13    1    5    5    0    0 -0.92726770470E+01  0.50302286181E+02  0.21866613695E+04  0.21872595291E+04  0.00000000000E+00 0. -1.
        -14    1    5    5    0    0  0.76931080350E+01  0.17941510556E+02  0.10453401124E+03  0.10634115486E+03  0.00000000000E+00 0.  1.
          5    1    4    4  501    0 -0.38324988445E+02  0.47443163994E+02  0.17125928925E+01  0.61156062034E+02  0.41800000000E+01 0.  1.
         -5    1    4    4    0  501 -0.69493883478E+02 -0.74113018199E+02 -0.47810527413E+02  0.11236306439E+03  0.41800000000E+01 0.  1.
</event>
<event>
11    1  0.8039394E-009  0.1951274E+03  0.7561462E-02  0.1058024E+00
         22   -1    0    0    0    0  0.00000000000E+00  0.00000000000E+00  0.21543353115E+03  0.21543353115E+03  0.00000000000E+00 0. -1.
         22   -1    0    0    0    0 -0.00000000000E+00 -0.00000000000E+00 -0.11206902112E+04  0.11206902112E+04  0.00000000000E+00 0.  1.
        -24    2    1    2    0    0  0.29374237879E+02  0.10594217902E+03 -0.89538452392E+03  0.90570982790E+03  0.80686154444E+02 0.  0.
         25    2    1    2    0    0 -0.33629178670E+02 -0.23024024130E+03 -0.64367312489E+02  0.27191236455E+03  0.12510672527E+03 0.  0.
         24    2    1    2    0    0  0.42549407914E+01  0.12429806228E+03  0.54495156390E+02  0.15850154988E+03  0.81761277130E+02 0.  0.
        -11    1    5    5    0    0  0.17360869472E+02  0.23149610964E+02  0.48318942687E+02  0.56320728857E+02  0.00000000000E+00 0.  1.
         12    1    5    5    0    0 -0.13105928681E+02  0.10114845131E+03  0.61762137034E+01  0.10218082103E+03  0.00000000000E+00 0. -1.
         13    1    3    3    0    0  0.29482690725E+02 -0.75916844010E+00 -0.21352926397E+03  0.21555637768E+03  0.00000000000E+00 0. -1.
        -14    1    3    3    0    0 -0.10845284589E+00  0.10670134746E+03 -0.68185525995E+03  0.69015345021E+03  0.00000000000E+00 0.  1.
          5    1    4    4  501    0 -0.56796765395E+02 -0.23354607908E+03 -0.59571387684E+02  0.24766078866E+03  0.41800000000E+01 0.  1.
         -5    1    4    4    0  501  0.23167586725E+02  0.33058377797E+01 -0.47959248048E+01  0.24251575883E+02  0.41800000000E+01 0.  1.
</event>
<event>
11    1  0.8039394E-009  0.1662069E+03  0.7561462E-02  0.1081381E+00
         22   -1    0    0    0    0  0.00000000000E+00  0.00000000000E+00  0.12756268289E+04  0.12756268289E+04  0.00000000000E+00 0. -1.
         22   -1    0    0    0    0 -0.00000000000E+00 -0.00000000000E+00 -0.69013401857E+03  0.69013401857E+03  0.00000000000E+00 0. -1.
        -24    2    1    2    0    0  0.23141180323E+02  0.10397926120E+03 -0.61125528355E+03  0.62563045735E+03  0.80207521523E+02 0.  0.
         25    2    1    2    0    0  0.85296357442E+01 -0.19762530385E+03  0.13461480111E+03  0.26999597810E+03  0.12509263809E+03 0.  0.
         24    2    1    2    0    0 -0.31670816067E+02  0.93646042649E+02  0.10621332928E+04  0.10701344120E+04  0.85369235033E+02 0.  0.
        -13    1    5    5    0    0 -0.47212699471E+02  0.63367762169E+02  0.43782615454E+03  0.44490027407E+03  0.00000000000E+00 0.  1.
         14    1    5    5    0    0  0.15541883404E+02  0.30278280480E+02  0.62430713825E+03  0.62523413796E+03  0.00000000000E+00 0. -1.
         11    1    3    3    0    0  0.24944466676E+02  0.33780716381E+02 -0.41632743048E+03  0.41843983150E+03  0.00000000000E+00 0. -1.
        -12    1    3    3    0    0 -0.18032863527E+01  0.70198544823E+02 -0.19492785306E+03  0.20719062584E+03  0.00000000000E+00 0.  1.
          5    1    4    4  501    0 -0.46918625980E+01 -0.18908738431E+03  0.67403542849E+02  0.20084014157E+03  0.41800000000E+01 0.  1.
         -5    1    4    4    0  501  0.13221498342E+02 -0.85379195440E+01  0.67211258264E+02  0.69155836529E+02  0.41800000000E+01 0.  1.
</event>
<event>
11    1  0.8039394E-009  0.1399708E+03  0.7561462E-02  0.1107591E+00
         22   -1    0    0    0    0  0.00000000000E+00  0.00000000000E+00  0.19033872489E+04  0.19033872489E+04  0.00000000000E+00 0. -1.
         22   -1    0    0    0    0 -0.00000000000E+00 -0.00000000000E+00 -0.90502307039E+03  0.90502307039E+03  0.00000000000E+00 0. -1.
         24    2    1    2    0    0  0.40791989039E+01  0.59983532708E+02 -0.78526594400E+03  0.79206046653E+03  0.84276424778E+02 0.  0.
         25    2    1    2    0    0 -0.30384446747E+02 -0.10999790384E+03 -0.52747114908E+02  0.17734785969E+03  0.12508897534E+03 0.  0.
        -24    2    1    2    0    0  0.26305247843E+02  0.50014371134E+02  0.18363772374E+04  0.18390019930E+04  0.80334108892E+02 0.  0.
        -13    1    3    3    0    0 -0.29426149100E+02  0.43392304242E+02 -0.24728224284E+03  0.25277914855E+03  0.00000000000E+00 0.  1.
         14    1    3    3    0    0  0.33505348004E+02  0.16591228466E+02 -0.53798370116E+03  0.53928131798E+03  0.00000000000E+00 0. -1.
         11    1    5    5    0    0  0.12653644030E+02  0.71256751715E+02  0.14448039691E+04  0.14466154114E+04  0.00000000000E+00 0. -1.
        -12    1    5    5    0    0  0.13651603813E+02 -0.21242380580E+02  0.39157326830E+03  0.39238658166E+03  0.00000000000E+00 0.  1.
          5    1    4    4  501    0 -0.71591711803E+02 -0.31854832133E+02 -0.39726730103E+02  0.87953334296E+02  0.41800000000E+01 0.  1.
         -5    1    4    4    0  501  0.41207265056E+02 -0.78143071709E+02 -0.13020384806E+02  0.89394525392E+02  0.41800000000E+01 0.  1.
</event>
<event>
11    1  0.8039394E-009  0.1406558E+03  0.7561462E-02  0.1106828E+00
         22   -1    0    0    0    0  0.00000000000E+00  0.00000000000E+00  0.27091816802E+04  0.27091816802E+04  0.00000000000E+00 0.  1.
         22   -1    0    0    0    0 -0.00000000000E+00 -0.00000000000E+00 -0.39989980247E+02  0.39989980247E+02  0.00000000000E+00 0. -1.
         24    2    1    2    0    0  0.21068113620E+02  0.31448159740E+02  0.42883156027E+02  0.97650567745E+02  0.79144274256E+02 0.  0.
         25    2    1    2    0    0  0.35689446482E+02  0.56479064472E+01  0.36238092950E+03  0.38506124089E+03  0.12508631314E+03 0.  0.
        -24    2    1    2    0    0 -0.56757560102E+02 -0.37096066187E+02  0.22639276144E+04  0.22664598518E+04  0.82912470425E+02 0.  0.
        -11    1    3    3    0    0 -0.13478108349E+02 -0.96074134257E+01  0.40714604529E+02  0.43950435940E+02  0.00000000000E+00 0.  1.
         12    1    3    3    0    0  0.34546221968E+02  0.41055573165E+02  0.21685514982E+01  0.53700131804E+02  0.00000000000E+00 0. -1.
         13    1    5    5    0    0 -0.69072206296E+02 -0.85278348741E+01  0.18745307973E+04  0.18758223273E+04  0.00000000000E+00 0. -1.
        -14    1    5    5    0    0  0.12314646194E+02 -0.28568231313E+02  0.38939681715E+03  0.39063752452E+03  0.00000000000E+00 0.  1.
          5    1    4    4  501    0 -0.41151291780E+02  0.24049578185E+02  0.97371219065E+02  0.10849164820E+03  0.41800000000E+01 0. -1.
         -5    1    4    4    0  501  0.76840738263E+02 -0.18401671738E+02  0.26500971044E+03  0.27656959270E+03  0.41800000000E+01 0. -1.
</event>
<event>
11    1  0.8039394E-009  0.1630567E+03  0.7561462E-02  0.1084237E+00
         22   -1    0    0    0    0  0.00000000000E+00  0.00000000000E+00  0.21306426281E+03  0.21306426281E+03  0.00000000000E+00 0.  1.
         22   -1    0    0    0    0 -0.00000000000E+00 -0.00000000000E+00 -0.14735039328E+04  0.14735039328E+04  0.00000000000E+00 0.  1.
         24    2    1    2    0    0  0.78689590056E+02 -0.56529488459E+02 -0.10929609697E+04  0.11001419909E+04  0.79756405353E+02 0.  0.
         25    2    1    2    0    0 -0.14695191638E+03  0.89777792139E+02 -0.32863605091E+03  0.39154845552E+03  0.12511443311E+03 0.  0.
        -24    2    1    2    0    0  0.68262326323E+02 -0.33248303681E+02  0.16115735057E+03  0.19487774925E+03  0.78996522820E+02 0.  0.
        -11    1    3    3    0    0  0.94323510304E+02 -0.55010545479E+02 -0.98729728220E+03  0.99331717399E+03  0.00000000000E+00 0.  1.
         12    1    3    3    0    0 -0.15633920247E+02 -0.15189429799E+01 -0.10566368745E+03  0.10682481686E+03  0.00000000000E+00 0. -1.
         13    1    5    5    0    0 -0.34134824347E+01 -0.28134556801E+02  0.15127411908E+02  0.32125437581E+02  0.00000000000E+00 0. -1.
        -14    1    5    5    0    0  0.71675808758E+02 -0.51137468794E+01  0.14602993866E+03  0.16275231167E+03  0.00000000000E+00 0.  1.
          5    1    4    4  501    0 -0.13846701619E+03  0.42224927224E+02 -0.15877094450E+03  0.21489938173E+03  0.41800000000E+01 0.  1.
         -5    1    4    4    0  501 -0.84849001861E+01  0.47552864916E+02 -0.16986510642E+03  0.17664907379E+03  0.41800000000E+01 0.  1.
</event>
<event>
11    1  0.8039394E-009  0.1421329E+03  0.7561462E-02  0.1105200E+00
         22   -1    0    0    0    0  0.00000000000E+00  0.00000000000E+00  0.11550552213E+04  0.11550552213E+04  0.00000000000E+00 0.  1.
         22   -1    0    0    0    0 -0.00000000000E+00 -0.00000000000E+00 -0.13458360414E+03  0.13458360414E+03  0.00000000000E+00 0.  1.
         24    2    1    2    0    0  0.51733379609E+02  0.41537383493E+02 -0.55594922802E+02  0.11975809231E+03  0.82761757101E+02 0.  0.
         25    2    1    2    0    0 -0.25950146644E+02 -0.77739455761E+02  0.80005890015E+02  0.16960474107E+03  0.12509193685E+03 0.  0.
        -24    2    1    2    0    0 -0.25783232965E+02  0.36202072268E+02  0.99606064996E+03  0.10002759921E+04  0.80248842919E+02 0.  0.
        -11    1    3    3    0    0  0.64225389371E+02  0.50050728736E+02 -0.24251343773E+02  0.84959424208E+02  0.00000000000E+00 0.  1.
         12    1    3    3    0    0 -0.12492009762E+02 -0.85133452435E+01 -0.31343579029E+02  0.34798668099E+02  0.00000000000E+00 0. -1.
         11    1    5    5    0    0 -0.17089737929E+02  0.56846495570E+01  0.42136408441E+02  0.45824134463E+02  0.00000000000E+00 0. -1.
        -12    1    5    5    0    0 -0.86934950360E+01  0.30517422711E+02  0.95392424152E+03  0.95445185762E+03  0.00000000000E+00 0.  1.
          5    1    4    4  501    0 -0.20704399160E+02 -0.27375017569E+02 -0.31685986533E+02  0.46899231060E+02  0.41800000000E+01 0. -1.
         -5    1    4    4    0  501 -0.52457474833E+01 -0.50364438192E+02  0.11169187655E+03  0.12270551001E+03  0.41800000000E+01 0. -1.
</event>
<event>
11    1  0.8039394E-009  0.1335933E+03  0.7561462E-02  0.1114931E+00
         22   -1    0    0    0    0  0.00000000000E+00  0.00000000000E+00  0.52979143013E+03  0.52979143013E+03  0.00000000000E+00 0.  1.
         22   -1    0    0    0    0 -0.00000000000E+00 -0.00000000000E+00 -0.37190007034E+03  0.37190007034E+03  0.00000000000E+00 0. -1.
         24    2    1    2    0    0 -0.46693058471E+02 -0.63997012337E+01 -0.33931867980E+03  0.35212379037E+03  0.81442000232E+02 0.  0.
         25    2    1    2    0    0  0.36610401571E+02  0.23764909306E+02  0.19045202509E+03  0.23199966416E+03  0.12508708122E+03 0.  0.
        -24    2    1    2    0    0  0.10082656899E+02 -0.17365208072E+02  0.30675801450E+03  0.31756804594E+03  0.79660366081E+02 0.  0.
        -11    1    3    3    0    0  0.16580027171E+01 -0.25534942810E+02 -0.34788439374E+02  0.43185851750E+02  0.00000000000E+00 0.  1.
         12    1    3    3    0    0 -0.48351061188E+02  0.19135241576E+02 -0.30453024042E+03  0.30893793862E+03  0.00000000000E+00 0. -1.
         13    1    5    5    0    0 -0.18883742436E+02 -0.39635282571E+02  0.13474163840E+03  0.14171400944E+03  0.00000000000E+00 0. -1.
        -14    1    5    5    0    0  0.28966399335E+02  0.22270074499E+02  0.17201637610E+03  0.17585403651E+03  0.00000000000E+00 0.  1.
          5    1    4    4  501    0  0.44640615957E+02 -0.12325756572E+02  0.97550695685E+01  0.47511500191E+02  0.41800000000E+01 0. -1.
         -5    1    4    4    0  501 -0.80302143856E+01  0.36090665878E+02  0.18069695553E+03  0.18448816396E+03  0.41800000000E+01 0. -1.
</event>
<event>
11    1  0.8039394E-009  0.3855862E+03  0.7561462E-02  0.9693271E-01
         22   -1    0    0    0    0  0.00000000000E+00  0.00000000000E+00  0.20069677419E+03  0.20069677419E+03  0.00000000000E+00 0.  1.
         22   -1    0    0    0    0 -0.00000000000E+00 -0.00000000000E+00 -0.19479481292E+04  0.19479481292E+04  0.00000000000E+00 0.  1.
         24    2    1    2    0    0  0.31222955357E+03 -0.92534082246E+02 -0.75465062909E+03  0.82589775879E+03  0.80991885301E+02 0.  0.
         25    2    1    2    0    0 -0.31316743900E+03  0.34476240352E+03 -0.93433087031E+03  0.10514551044E+04  0.12509477091E+03 0.  0.
        -24    2    1    2    0    0  0.93788543071E+00 -0.25222832128E+03 -0.58269855591E+02  0.27129204014E+03  0.81141785102E+02 0.  0.
        -13    1    3    3    0    0  0.28016636807E+03 -0.71448422218E+02 -0.59270437374E+03  0.65946686459E+03  0.00000000000E+00 0.  1.
         14    1    3    3    0    0  0.32063185500E+02 -0.21085660028E+02 -0.16194625535E+03  0.16643089420E+03  0.00000000000E+00 0. -1.
         11    1    5    5    0    0 -0.11082711320E+01  0.36499272931E+01 -0.10252806671E+02  0.10939391152E+02  0.00000000000E+00 0. -1.
        -12    1    5    5    0    0  0.20461565627E+01 -0.25587824857E+03 -0.48017048920E+02  0.26035264899E+03  0.00000000000E+00 0.  1.
          5    1    4    4  501    0 -0.12027809745E+03  0.20790277062E+03 -0.54984283965E+03  0.60002916885E+03  0.41800000000E+01 0.  1.
         -5    1    4    4    0  501 -0.19288934156E+03  0.13685963290E+03 -0.38448803066E+03  0.45142593560E+03  0.41800000000E+01 0.  1.
</event>
<event>
11    1  0.8039394E-009  0.1486519E+03  0.7561462E-02  0.1098264E+00
         22   -1    0    0    0    0  0.00000000000E+00  0.00000000000E+00  0.51149573726E+03  0.51149573726E+03  0.00000000000E+00 0. -1.
         22   -1    0    0    0    0 -0.00000000000E+00 -0.00000000000E+00 -0.73748744111E+03  0.73748744111E+03  0.00000000000E+00 0.  1.
        -24    2    1    2    0    0  0.31755065600E+02 -0.38046260668E+02 -0.68918344536E+03  0.69549693520E+03  0.79285959475E+02 0.  0.
         25    2    1    2    0    0 -0.10538556437E+03  0.30306694502E+02  0.15840375428E+03  0.22970396245E+03  0.12509015982E+03 0.  0.
         24    2    1    2    0    0  0.73630498772E+02  0.77395661664E+01  0.30478798724E+03  0.32378228072E+03  0.80361041021E+02 0.  0.
        -11    1    5    5    0    0  0.29480297095E+02 -0.36283871622E+02  0.13955917606E+03  0.14718142165E+03  0.00000000000E+00 0.  1.
         12    1    5    5    0    0  0.44150201677E+02  0.44023437789E+02  0.16522881118E+03  0.17660085908E+03  0.00000000000E+00 0. -1.
         11    1    3    3    0    0  0.37360369837E+02  0.13420651455E+02 -0.22958529304E+03  0.23299209837E+03  0.00000000000E+00 0. -1.
        -12    1    3    3    0    0 -0.56053042366E+01 -0.51466912124E+02 -0.45959815232E+03  0.46250483683E+03  0.00000000000E+00 0.  1.
          5    1    4    4  501    0 -0.22147776566E+02  0.23327335399E+01 -0.20379411833E+02  0.30475539031E+02  0.41800000000E+01 0. -1.
         -5    1    4    4    0  501 -0.83237787807E+02  0.27973960962E+02  0.17878316611E+03  0.19922842341E+03  0.41800000000E+01 0. -1.
</event>
<event>
11    1  0.8039394E-009  0.1492401E+03  0.7561462E-02  0.1097658E+00
         22   -1    0    0    0    0  0.00000000000E+00  0.00000000000E+00  0.12517554040E+03  0.12517554040E+03  0.00000000000E+00 0. -1.
         22   -1    0    0    0    0 -0.00000000000E+00 -0.00000000000E+00 -0.11796014135E+04  0.11796014135E+04  0.00000000000E+00 0.  1.
        -24    2    1    2    0    0 -0.74166500723E+02  0.41628077242E+02 -0.88724190405E+03  0.89493782564E+03  0.80510550989E+02 0.  0.
         25    2    1    2    0    0  0.59752912664E+02 -0.24368218391E+02 -0.25274232116E+03  0.28928965706E+03  0.12508238940E+03 0.  0.
         24    2    1    2    0    0  0.14413588060E+02 -0.17259858851E+02  0.85558352075E+02  0.12054947123E+03  0.81891935842E+02 0.  0.
        -11    1    5    5    0    0 -0.10126831462E+02 -0.35675304542E+02  0.91292795635E+01  0.38191933900E+02  0.00000000000E+00 0.  1.
         12    1    5    5    0    0  0.24540419522E+02  0.18415445691E+02  0.76429072511E+02  0.82357537331E+02  0.00000000000E+00 0. -1.
         13    1    3    3    0    0 -0.81800126690E+01  0.41701427400E+02 -0.19602953463E+03  0.20058290082E+03  0.00000000000E+00 0. -1.
        -14    1    3    3    0    0 -0.65986488054E+02 -0.73350158020E-01 -0.69121236941E+03  0.69435492482E+03  0.00000000000E+00 0.  1.
          5    1    4    4  501    0  0.30446724303E+01 -0.32302244619E+02 -0.22154669648E+03  0.22394891417E+03  0.41800000000E+01 0.  1.
         -5    1    4    4    0  501  0.56708240233E+02  0.79340262273E+01 -0.31195624686E+02  0.65340742895E+02  0.41800000000E+01 0.  1.
</event>
<event>
11    1  0.8172723E-009  0.1610640E+03  0.7561462E-02  0.1086081E+00
         22   -1    0    0    0    0  0.00000000000E+00  0.00000000000E+00  0.49730342700E+03  0.49730342700E+03  0.00000000000E+00 0.  1.
         22   -1    0    0    0    0 -0.00000000000E+00 -0.00000000000E+00 -0.17740065125E+04  0.17740065125E+04  0.00000000000E+00 0. -1.
        -24    2    1    2    0    0 -0.27229200480E+02 -0.24820266660E+02 -0.11838271851E+04  0.11870479001E+04  0.79236594563E+02 0.  0.
         25    2    1    2    0    0  0.77518912341E+02  0.11233100555E+03 -0.56496626271E+03  0.59452691663E+03  0.12509172643E+03 0.  0.
         24    2    1    2    0    0 -0.50289711861E+02 -0.87510738894E+02  0.47209036233E+03  0.48973512276E+03  0.82365015173E+02 0.  0.
        -11    1    5    5    0    0 -0.62242980867E+02 -0.91865470302E+02  0.45553894212E+03  0.46885944705E+03  0.00000000000E+00 0.  1.
         12    1    5    5    0    0  0.11953269006E+02  0.43547314083E+01  0.16551420208E+02  0.20875675713E+02  0.00000000000E+00 0. -1.
         11    1    3    3    0    0 -0.49645521195E+02 -0.36621429940E+02 -0.88608918110E+03  0.88823411541E+03  0.00000000000E+00 0. -1.
        -12    1    3    3    0    0  0.22416320715E+02  0.11801163280E+02 -0.29773800398E+03  0.29881378466E+03  0.00000000000E+00 0.  1.
          5    1    4    4  501    0  0.91261306251E+02  0.11578354993E+03 -0.36014998784E+03  0.38917854847E+03  0.41800000000E+01 0.  1.
         -5    1    4    4    0  501 -0.13742393909E+02 -0.34525443757E+01 -0.20481627487E+03  0.20534836815E+03  0.41800000000E+01 0.  1.
</event>
<event>
11    1  0.8039394E-009  0.1520687E+03  0.7561462E-02  0.1094784E+00
         22   -1    0    0    0    0  0.00000000000E+00  0.00000000000E+00  0.11862331789E+03  0.11862331789E+03  0.00000000000E+00 0. -1.
         22   -1    0    0    0    0 -0.00000000000E+00 -0.00000000000E+00 -0.23931011374E+04  0.23931011374E+04  0.00000000000E+00 0. -1.
        -24    2    1    2    0    0 -0.49281202881E+02 -0.20451580518E+02 -0.18994010057E+04  0.19017563453E+04  0.78141617407E+02 0.  0.
         25    2    1    2    0    0  0.74761002503E+02 -0.62468790489E+02 -0.44438512884E+03  0.47182326994E+03  0.12508995980E+03 0.  0.
         24    2    1    2    0    0 -0.25479799622E+02  0.82920371007E+02  0.69308314975E+02  0.13814484009E+03  0.82190913143E+02 0.  0.
        -11    1    5    5    0    0  0.20260535308E+02  0.18229245823E+02 -0.70059781760E+01  0.28140334477E+02  0.00000000000E+00 0.  1.
         12    1    5    5    0    0 -0.45740334930E+02  0.64691125184E+02  0.76314293151E+02  0.11000450562E+03  0.00000000000E+00 0. -1.
         13    1    3    3    0    0 -0.34050749203E+02 -0.26742426464E+02 -0.18266248838E+04  0.18271379469E+04  0.00000000000E+00 0. -1.
        -14    1    3    3    0    0 -0.15230453678E+02  0.62908459455E+01 -0.72776121852E+02  0.74618398360E+02  0.00000000000E+00 0.  1.
          5    1    4    4  501    0 -0.18355408223E+02  0.92834450047E+01 -0.19458103995E+03  0.19570987934E+03  0.41800000000E+01 0. -1.
         -5    1    4    4    0  501  0.93116410726E+02 -0.71752235494E+02 -0.24980408889E+03  0.27611339060E+03  0.41800000000E+01 0. -1.
</event>
<event>
11    1  0.8039394E-009  0.1666184E+03  0.7561462E-02  0.1081013E+00
         22   -1    0    0    0    0  0.00000000000E+00  0.00000000000E+00  0.11553134842E+03  0.11553134842E+03  0.00000000000E+00 0. -1.
         22   -1    0    0    0    0 -0.00000000000E+00 -0.00000000000E+00 -0.64479471945E+03  0.64479471945E+03  0.00000000000E+00 0.  1.
        -24    2    1    2    0    0  0.14370812041E+02 -0.40911307628E+02 -0.31060136003E+03  0.32318856930E+03  0.78085793481E+02 0.  0.
         25    2    1    2    0    0 -0.36360306328E+02  0.14088937579E+03 -0.23511633759E+03  0.30347831581E+03  0.12508999912E+03 0.  0.
         24    2    1    2    0    0  0.21989494287E+02 -0.99978068160E+02  0.16454326589E+02  0.13365918275E+03  0.84349749844E+02 0.  0.
        -13    1    5    5    0    0 -0.22030702124E+02  0.82865159629E-01  0.98826450461E+01  0.24145918410E+02  0.00000000000E+00 0.  1.
         14    1    5    5    0    0  0.44020196412E+02 -0.10006093332E+03  0.65716815427E+01  0.10951326434E+03  0.00000000000E+00 0. -1.
         11    1    3    3    0    0  0.94641172751E+01 -0.44121817589E+02 -0.75102506253E+02  0.87616726420E+02  0.00000000000E+00 0. -1.
        -12    1    3    3    0    0  0.49066947656E+01  0.32105099604E+01 -0.23549885378E+03  0.23557184288E+03  0.00000000000E+00 0.  1.
          5    1    4    4  501    0 -0.45369495445E+02  0.11810998073E+02 -0.12483735588E+03  0.13341562358E+03  0.41800000000E+01 0. -1.
         -5    1    4    4    0  501  0.90091891167E+01  0.12907837771E+03 -0.11027898171E+03  0.17006269223E+03  0.41800000000E+01 0. -1.
</event>
<event>
11    1  0.8039394E-009  0.1712838E+03  0.7561462E-02  0.1076920E+00
         22   -1    0    0    0    0  0.00000000000E+00  0.00000000000E+00  0.44156567771E+03  0.44156567771E+03  0.00000000000E+00 0.  1.
         22   -1    0    0    0    0 -0.00000000000E+00 -0.00000000000E+00 -0.34184563675E+03  0.34184563675E+03  0.00000000000E+00 0.  1.
        -24    2    1    2    0    0  0.14150979450E+02  0.82750611195E+02 -0.25574043332E+03  0.28100774300E+03  0.80711018568E+02 0.  0.
         25    2    1    2    0    0 -0.38445919904E+02 -0.17527854508E+03  0.16379470145E+03  0.27327279249E+03  0.12509459529E+03 0.  0.
         24    2    1    2    0    0  0.24294940454E+02  0.92527933884E+02  0.19166577283E+03  0.22913077897E+03  0.81323322102E+02 0.  0.
        -11    1    5    5    0    0 -0.20246923758E+01  0.84825527324E+02  0.18063719200E+03  0.19957270505E+03  0.00000000000E+00 0.  1.
         12    1    5    5    0    0  0.26319632830E+02  0.77024065596E+01  0.11028580826E+02  0.29558073925E+02  0.00000000000E+00 0. -1.
         13    1    3    3    0    0  0.45568492914E+02  0.39381365382E+02 -0.10513371076E+03  0.12116301674E+03  0.00000000000E+00 0. -1.
        -14    1    3    3    0    0 -0.31417513465E+02  0.43369245813E+02 -0.15060672255E+03  0.15984472626E+03  0.00000000000E+00 0.  1.
          5    1    4    4  501    0  0.43377994858E+02 -0.37825191575E+02  0.32115590120E+02  0.66039980953E+02  0.41800000000E+01 0.  1.
         -5    1    4    4    0  501 -0.81823914762E+02 -0.13745335350E+03  0.13167911133E+03  0.20723281154E+03  0.41800000000E+01 0.  1.
</event>
<event>
11    1  0.8039394E-009  0.1297811E+03  0.7561462E-02  0.1119538E+00
         22   -1    0    0    0    0  0.00000000000E+00  0.00000000000E+00  0.14674721261E+04  0.14674721261E+04  0.00000000000E+00 0.  1.
         22   -1    0    0    0    0 -0.00000000000E+00 -0.00000000000E+00 -0.45258367561E+03  0.45258367561E+03  0.00000000000E+00 0.  1.
         24    2    1    2    0    0  0.35115370765E+02 -0.41135290630E+01 -0.42607093790E+03  0.43484783256E+03  0.79411478821E+02 0.  0.
         25    2    1    2    0    0 -0.17962074298E+01 -0.82176474151E+01  0.16947305053E+03  0.21080659559E+03  0.12509016666E+03 0.  0.
        -24    2    1    2    0    0 -0.33319163335E+02  0.12331176478E+02  0.12714863378E+04  0.12744013735E+04  0.78480118460E+02 0.  0.
        -13    1    3    3    0    0 -0.57204102241E+01 -0.24985262587E+02 -0.29254630132E+03  0.29366703059E+03  0.00000000000E+00 0.  1.
         14    1    3    3    0    0  0.40835780989E+02  0.20871733524E+02 -0.13352463658E+03  0.14118080197E+03  0.00000000000E+00 0. -1.
         13    1    5    5    0    0  0.92795540575E+01  0.25271827849E+02  0.17948089085E+03  0.18148874782E+03  0.00000000000E+00 0. -1.
        -14    1    5    5    0    0 -0.42598717393E+02 -0.12940651371E+02  0.10920054470E+04  0.10929126257E+04  0.00000000000E+00 0.  1.
          5    1    4    4  501    0  0.30422725667E+02  0.43874746615E+02  0.37879080738E+02  0.65595981470E+02  0.41800000000E+01 0.  1.
         -5    1    4    4    0  501 -0.32218933097E+02 -0.52092394030E+02  0.13159396980E+03  0.14521061412E+03  0.41800000000E+01 0.  1.
</event>
<event>
11    1  0.8039394E-009  0.5144162E+03  0.7561462E-02  0.9361872E-01
         22   -1    0    0    0    0  0.00000000000E+00  0.00000000000E+00  0.10652723510E+04  0.10652723510E+04  0.00000000000E+00 0.  1.
         22   -1    0    0    0    0 -0.00000000000E+00 -0.00000000000E+00 -0.91584832712E+03  0.91584832712E+03  0.00000000000E+00 0.  1.
         24    2    1    2    0    0 -0.10049583325E+03 -0.90554386508E+02 -0.16258241386E+03  0.22629214426E+03  0.80471012421E+02 0.  0.
         25    2    1    2    0    0  0.25051081467E+03 -0.39085903169E+03 -0.56383711584E+03  0.74100379982E+03  0.12509151540E+03 0.  0.
        -24    2    1    2    0    0 -0.15001498142E+03  0.48141341820E+03  0.87584355363E+03  0.10138247341E+04  0.80469168882E+02 0.  0.
        -11    1    3    3    0    0 -0.74212228361E+02 -0.13071982076E+02 -0.84031353335E+02  0.11286983608E+03  0.00000000000E+00 0.  1.
         12    1    3    3    0    0 -0.26283604887E+02 -0.77482404432E+02 -0.78551060526E+02  0.11342230818E+03  0.00000000000E+00 0. -1.
         13    1    5    5    0    0 -0.21330512988E+02  0.70931781377E+02  0.79096465112E+02  0.10836308960E+03  0.00000000000E+00 0. -1.
        -14    1    5    5    0    0 -0.12868446844E+03  0.41048163682E+03  0.79674708852E+03  0.90546164449E+03  0.00000000000E+00 0.  1.
          5    1    4    4  501    0  0.81320540180E+02 -0.23827533527E+03 -0.27054837008E+03  0.36959715720E+03  0.41800000000E+01 0. -1.
         -5    1    4    4    0  501  0.16919027449E+03 -0.15258369642E+03 -0.29328874576E+03  0.37140664262E+03  0.41800000000E+01 0. -1.
</event>
<event>
11    1  0.8039394E-009  0.1603865E+03  0.7561462E-02  0.1086714E+00
         22   -1    0    0    0    0  0.00000000000E+00  0.00000000000E+00  0.15900579969E+04  0.15900579969E+04  0.00000000000E+00 0. -1.
         22   -1    0    0    0    0 -0.00000000000E+00 -0.00000000000E+00 -0.44940642604E+03  0.44940642604E+03  0.00000000000E+00 0.  1.
        -24    2    1    2    0    0 -0.15914516128E+01 -0.11013644230E+03 -0.34781708442E+03  0.37321406597E+03  0.78609453542E+02 0.  0.
         25    2    1    2    0    0 -0.48246592347E+01  0.58320545090E+02 -0.32782513675E+02  0.14195537770E+03  0.12510824408E+03 0.  0.
         24    2    1    2    0    0  0.64161108475E+01  0.51815897213E+02  0.15212511689E+04  0.15242949793E+04  0.80895062240E+02 0.  0.
        -11    1    5    5    0    0  0.42089384842E+01  0.22350485443E+02  0.93084122052E+02  0.95822299810E+02  0.00000000000E+00 0.  1.
         12    1    5    5    0    0  0.22071723633E+01  0.29465411770E+02  0.14281670469E+04  0.14284726794E+04  0.00000000000E+00 0. -1.
         11    1    3    3    0    0  0.24042705724E+02 -0.10304091305E+03 -0.24227802709E+03  0.26437496832E+03  0.00000000000E+00 0. -1.
        -12    1    3    3    0    0 -0.25634157337E+02 -0.70955292559E+01 -0.10553905733E+03  0.10883909766E+03  0.00000000000E+00 0.  1.
          5    1    4    4  501    0 -0.27187710614E+01  0.93644663515E+02 -0.35785888859E+00  0.93778010130E+02  0.41800000000E+01 0.  1.
         -5    1    4    4    0  501 -0.21058881732E+01 -0.35324118425E+02 -0.32424654786E+02  0.48177367565E+02  0.41800000000E+01 0.  1.
</event>
<event>
11    1  0.8039394E-009  0.1330113E+03  0.7561462E-02  0.1115623E+00
         22   -1    0    0    0    0  0.00000000000E+00  0.00000000000E+00  0.22035891442E+03  0.22035891442E+03  0.00000000000E+00 0. -1.
         22   -1    0    0    0    0 -0.00000000000E+00 -0.00000000000E+00 -0.35706278708E+03  0.35706278708E+03  0.00000000000E+00 0.  1.
        -24    2    1    2    0    0  0.19781421108E+01  0.11524244856E+02 -0.27596115018E+03  0.28817069576E+03  0.82164908714E+02 0.  0.
         25    2    1    2    0    0  0.43285209439E+02 -0.35531815659E+01  0.12888642554E+02  0.13303691863E+03  0.12508585114E+03 0.  0.
         24    2    1    2    0    0 -0.45263351550E+02 -0.79710632906E+01  0.12636863497E+03  0.15621408711E+03  0.79507862908E+02 0.  0.
        -13    1    5    5    0    0 -0.86104805330E+01 -0.35855111014E+00  0.11740496272E+03  0.11772083165E+03  0.00000000000E+00 0.  1.
         14    1    5    5    0    0 -0.36652871017E+02 -0.76125121804E+01  0.89636722488E+01  0.38493255457E+02  0.00000000000E+00 0. -1.
         11    1    3    3    0    0  0.19388387694E+02 -0.63265108494E+01 -0.13343180832E+02  0.24371598052E+02  0.00000000000E+00 0. -1.
        -12    1    3    3    0    0 -0.17410245583E+02  0.17850755706E+02 -0.26261796934E+03  0.26379909771E+03  0.00000000000E+00 0.  1.
          5    1    4    4  501    0 -0.21426700105E+02 -0.22049397738E+02 -0.37634867312E+02  0.48776378049E+02  0.41800000000E+01 0. -1.
         -5    1    4    4    0  501  0.64711909544E+02  0.18496216172E+02  0.50523509866E+02  0.84260540579E+02  0.41800000000E+01 0. -1.
</event>
<event>
11    1  0.8039394E-009  0.5754501E+03  0.7561462E-02  0.9239123E-01
         22   -1    0    0    0    0  0.00000000000E+00  0.00000000000E+00  0.37615307130E+04  0.37615307130E+04  0.00000000000E+00 0. -1.
         22   -1    0    0    0    0 -0.00000000000E+00 -0.00000000000E+00 -0.30957512120E+03  0.30957512120E+03  0.00000000000E+00 0.  1.
         24    2    1    2    0    0  0.75023275931E+02 -0.29017742883E+03 -0.10649495746E+02  0.31123136511E+03  0.83187251034E+02 0.  0.
         25    2    1    2    0    0  0.33238364911E+03  0.63500782270E+03  0.98715974879E+03  0.12263142535E+04  0.12509377965E+03 0.  0.
        -24    2    1    2    0    0 -0.40740692505E+03 -0.34483039387E+03  0.24754453388E+04  0.25335602156E+04  0.78799350096E+02 0.  0.
        -13    1    3    3    0    0  0.49080349071E+02 -0.25652435453E+03 -0.32942211213E+02  0.26324667977E+03  0.00000000000E+00 0.  1.
         14    1    3    3    0    0  0.25942926860E+02 -0.33653074296E+02  0.22292715466E+02  0.47984685333E+02  0.00000000000E+00 0. -1.
         13    1    5    5    0    0 -0.24393255479E+03 -0.25547433361E+03  0.16256395214E+04  0.16635726855E+04  0.00000000000E+00 0. -1.
        -14    1    5    5    0    0 -0.16347437025E+03 -0.89356060261E+02  0.84980581737E+03  0.86998753007E+03  0.00000000000E+00 0.  1.
          5    1    4    4  501    0  0.12689797545E+03  0.37609279587E+03  0.54597996000E+03  0.67502627830E+03  0.41800000000E+01 0. -1.
         -5    1    4    4    0  501  0.20548567366E+03  0.25891502683E+03  0.44117978879E+03  0.55128797523E+03  0.41800000000E+01 0. -1.
</event>
<event>
11    1  0.8039394E-009  0.1585316E+03  0.7561462E-02  0.1088467E+00
         22   -1    0    0    0    0  0.00000000000E+00  0.00000000000E+00  0.60534775954E+03  0.60534775954E+03  0.00000000000E+00 0.  1.
         22   -1    0    0    0    0 -0.00000000000E+00 -0.00000000000E+00 -0.42761407436E+03  0.42761407436E+03  0.00000000000E+00 0. -1.
         24    2    1    2    0    0 -0.38027536520E+02  0.10473013728E+03 -0.29612494319E+03  0.32532677935E+03  0.75716815773E+02 0.  0.
         25    2    1    2    0    0  0.15163447140E+02 -0.55126115142E+02 -0.70578089280E+02  0.15458939681E+03  0.12509115164E+03 0.  0.
        -24    2    1    2    0    0  0.22864089381E+02 -0.49604022135E+02  0.54443671765E+03  0.55304565775E+03  0.80404194161E+02 0.  0.
        -11    1    3    3    0    0 -0.53647183183E+02  0.64038480055E+02 -0.13810800912E+03  0.16140870290E+03  0.00000000000E+00 0.  1.
         12    1    3    3    0    0  0.15619646663E+02  0.40691657222E+02 -0.15801693408E+03  0.16391807644E+03  0.00000000000E+00 0. -1.
         13    1    5    5    0    0  0.22072426173E+02  0.72593598845E+01  0.47637135915E+02  0.53001764322E+02  0.00000000000E+00 0. -1.
        -14    1    5    5    0    0  0.79166320834E+00 -0.56863382019E+02  0.49679958173E+03  0.50004389343E+03  0.00000000000E+00 0.  1.
          5    1    4    4  501    0 -0.36324698061E+02  0.19541485187E+02 -0.42923261651E+02  0.59676059884E+02  0.41800000000E+01 0. -1.
         -5    1    4    4    0  501  0.51488145200E+02 -0.74667600329E+02 -0.27654827629E+02  0.94913336925E+02  0.41800000000E+01 0. -1.
</event>
<event>
11    1  0.8039394E-009  0.1314929E+03  0.7561462E-02  0.1117448E+00
         22   -1    0    0    0    0  0.00000000000E+00  0.00000000000E+00  0.30005735456E+04  0.30005735456E+04  0.00000000000E+00 0. -1.
         22   -1    0    0    0    0 -0.00000000000E+00 -0.00000000000E+00 -0.81420345573E+03  0.81420345573E+03  0.00000000000E+00 0.  1.
        -24    2    1    2    0    0 -0.13472368259E+02  0.38256336536E+02 -0.79140645571E+03  0.79655699600E+03  0.80832034141E+02 0.  0.
         25    2    1    2    0    0 -0.67616318557E+01 -0.43161990391E+02  0.20344872203E+03  0.24279057576E+03  0.12508878488E+03 0.  0.
         24    2    1    2    0    0  0.20234000115E+02  0.49056538545E+01  0.27743278235E+04  0.27754294295E+04  0.75366874662E+02 0.  0.
        -13    1    5    5    0    0 -0.81002600842E+01 -0.28119247921E+02  0.65297958071E+03  0.65363494333E+03  0.00000000000E+00 0.  1.
         14    1    5    5    0    0  0.28334260199E+02  0.33024901776E+02  0.21213482428E+04  0.21217944862E+04  0.00000000000E+00 0. -1.
         11    1    3    3    0    0 -0.25428439477E+02 -0.15193338436E+02 -0.15550094311E+03  0.15829714582E+03  0.00000000000E+00 0. -1.
        -12    1    3    3    0    0  0.11956071217E+02  0.53449674972E+02 -0.63590551260E+03  0.63825985018E+03  0.00000000000E+00 0.  1.
          5    1    4    4  501    0 -0.16575496592E+02 -0.62823890836E+01 -0.13373908509E+02  0.22595338649E+02  0.41800000000E+01 0.  1.
         -5    1    4    4    0  501  0.98138647361E+01 -0.36879601307E+02  0.21682263054E+03  0.22019523711E+03  0.41800000000E+01 0.  1.
</event>
<event>
11    1  0.8039394E-009  0.1478304E+03  0.7561462E-02  0.1099116E+00
         22   -1    0    0    0    0  0.00000000000E+00  0.00000000000E+00  0.23013270073E+04  0.23013270073E+04  0.00000000000E+00 0.  1.
         22   -1    0    0    0    0 -0.00000000000E+00 -0.00000000000E+00 -0.10604865022E+04  0.10604865022E+04  0.00000000000E+00 0.  1.
         24    2    1    2    0    0 -0.25439985287E+02  0.31813113884E+02 -0.10271977563E+04  0.10312059240E+04  0.81185960013E+02 0.  0.
         25    2    1    2    0    0 -0.16836154792E+02  0.36939574358E+02  0.11537100544E+03  0.17494705497E+03  0.12509202566E+03 0.  0.
        -24    2    1    2    0    0  0.42276140080E+02 -0.68752688242E+02  0.21526672561E+04  0.21556605305E+04  0.79886190276E+02 0.  0.
        -11    1    3    3    0    0 -0.21608063425E+02  0.59108034829E+02 -0.67208742286E+03  0.67502753437E+03  0.00000000000E+00 0.  1.
         12    1    3    3    0    0 -0.38319218624E+01 -0.27294920945E+02 -0.35511033346E+03  0.35617838966E+03  0.00000000000E+00 0. -1.
         13    1    5    5    0    0  0.31883466580E+01 -0.71980486783E+02  0.11751220239E+04  0.11773288101E+04  0.00000000000E+00 0. -1.
        -14    1    5    5    0    0  0.39087793422E+02  0.32277985412E+01  0.97754523216E+03  0.97833172043E+03  0.00000000000E+00 0.  1.
          5    1    4    4  501    0 -0.30135351149E+02  0.53717556893E+01  0.13275803612E+03  0.13630540599E+03  0.41800000000E+01 0. -1.
         -5    1    4    4    0  501  0.13299196356E+02  0.31567818669E+02 -0.17387030686E+02  0.38641648973E+02  0.41800000000E+01 0. -1.
</event>
<event>
11    1  0.8039394E-009  0.1646451E+03  0.7561462E-02  0.1082788E+00
         22   -1    0    0    0    0  0.00000000000E+00  0.00000000000E+00  0.14784427296E+04  0.14784427296E+04  0.00000000000E+00 0.  1.
         22   -1    0    0    0    0 -0.00000000000E+00 -0.00000000000E+00 -0.36093194171E+03  0.36093194171E+03  0.00000000000E+00 0. -1.
        -24    2    1    2    0    0  0.50032345113E+01  0.46071314366E+00 -0.30460050595E+03  0.31498182534E+03  0.80042722695E+02 0.  0.
         25    2    1    2    0    0 -0.74197181481E+02 -0.81810386339E+02  0.97968490921E+02  0.19351428174E+03  0.12510711799E+03 0.  0.
         24    2    1    2    0    0  0.69193946969E+02  0.81349673195E+02  0.13241428029E+04  0.13308785642E+04  0.80486138998E+02 0.  0.
        -13    1    5    5    0    0  0.76267477316E+02  0.92259338099E+02  0.11366849748E+04  0.11429703608E+04  0.00000000000E+00 0.  1.
         14    1    5    5    0    0 -0.70735303465E+01 -0.10909664904E+02  0.18745782807E+03  0.18790820346E+03  0.00000000000E+00 0. -1.
         13    1    3    3    0    0  0.27136786680E+02  0.10454779257E+02 -0.27571290388E+03  0.27724233618E+03  0.00000000000E+00 0. -1.
        -14    1    3    3    0    0 -0.22133552168E+02 -0.99940661129E+01 -0.28887602065E+02  0.37739489161E+02  0.00000000000E+00 0.  1.
          5    1    4    4  501    0 -0.81781756301E+02 -0.16183618643E+01  0.71213442842E+02  0.10853433374E+03  0.41800000000E+01 0. -1.
         -5    1    4    4    0  501  0.75845748201E+01 -0.80192024474E+02  0.26755048079E+02  0.84979948001E+02  0.41800000000E+01 0. -1.
</event>
<event>
11    1  0.8039394E-009  0.1386333E+03  0.7561462E-02  0.1109094E+00
         22   -1    0    0    0    0  0.00000000000E+00  0.00000000000E+00  0.64279429272E+03  0.64279429272E+03  0.00000000000E+00 0. -1.
         22   -1    0    0    0    0 -0.00000000000E+00 -0.00000000000E+00 -0.73653284389E+03  0.73653284389E+03  0.00000000000E+00 0.  1.
        -24    2    1    2    0    0 -0.45388038727E+02  0.40971274391E+02 -0.67156604588E+03  0.67907272491E+03  0.80000577185E+02 0.  0.
         25    2    1    2    0    0  0.36761388574E+02 -0.77337980326E+01  0.15850201426E+02  0.13156773148E+03  0.12509047829E+03 0.  0.
         24    2    1    2    0    0  0.86266501528E+01 -0.33237476358E+02  0.56197729329E+03  0.56868668022E+03  0.80043195619E+02 0.  0.
        -11    1    5    5    0    0  0.34592926637E+02 -0.44184356202E+02  0.43599027709E+03  0.43958668044E+03  0.00000000000E+00 0.  1.
         12    1    5    5    0    0 -0.25966276484E+02  0.10946879843E+02  0.12598701620E+03  0.12909999978E+03  0.00000000000E+00 0. -1.
         11    1    3    3    0    0 -0.39462117327E+02  0.17053908047E+01 -0.12560060145E+03  0.13166502248E+03  0.00000000000E+00 0. -1.
        -12    1    3    3    0    0 -0.59259213997E+01  0.39265883586E+02 -0.54596544444E+03  0.54740770243E+03  0.00000000000E+00 0.  1.
          5    1    4    4  501    0  0.55929788062E+02 -0.45401342020E+02  0.40211187713E+02  0.82606507414E+02  0.41800000000E+01 0.  1.
         -5    1    4    4    0  501 -0.19168399488E+02  0.37667543987E+02 -0.24360986287E+02  0.48961224064E+02  0.41800000000E+01 0.  1.
</event>
<event>
11    1  0.8039394E-009  0.2591830E+03  0.7561462E-02  0.1019118E+00
         22   -1    0    0    0    0  0.00000000000E+00  0.00000000000E+00  0.32284410520E+04  0.32284410520E+04  0.00000000000E+00 0.  1.
         22   -1    0    0    0    0 -0.00000000000E+00 -0.00000000000E+00 -0.46588984642E+02  0.46588984642E+02  0.00000000000E+00 0.  1.
        -24    2    1    2    0    0 -0.21454875679E+02 -0.49185218759E+02  0.88371528410E+02  0.13142770214E+03  0.81143184682E+02 0.  0.
         25    2    1    2    0    0  0.20895530228E+03  0.15519578796E+03  0.11162357341E+04  0.11529866810E+04  0.12509205271E+03 0.  0.
         24    2    1    2    0    0 -0.18750042660E+03 -0.10601056920E+03  0.19772448048E+04  0.19906156534E+04  0.81602761683E+02 0.  0.
        -13    1    5    5    0    0 -0.14863953971E+03 -0.52999087791E+02  0.15921805661E+04  0.15999817409E+04  0.00000000000E+00 0.  1.
         14    1    5    5    0    0 -0.38860886895E+02 -0.53011481412E+02  0.38506423867E+03  0.39063391250E+03  0.00000000000E+00 0. -1.
         11    1    3    3    0    0 -0.80713181585E+01 -0.86898241660E+01  0.87980433748E+02  0.88776212711E+02  0.00000000000E+00 0. -1.
        -12    1    3    3    0    0 -0.13383557521E+02 -0.40495394593E+02  0.39109466221E+00  0.42651489425E+02  0.00000000000E+00 0.  1.
          5    1    4    4  501    0  0.15885621711E+03  0.16755920634E+03  0.98938445201E+03  0.10159775842E+04  0.41800000000E+01 0.  1.
         -5    1    4    4    0  501  0.50099085172E+02 -0.12363418380E+02  0.12685128209E+03  0.13700909684E+03  0.41800000000E+01 0.  1.
</event>
<event>
11    1  0.8039394E-009  0.1407623E+03  0.7561462E-02  0.1106710E+00
         22   -1    0    0    0    0  0.00000000000E+00  0.00000000000E+00  0.41081421476E+02  0.41081421476E+02  0.00000000000E+00 0.  1.
         22   -1    0    0    0    0 -0.00000000000E+00 -0.00000000000E+00 -0.33116994021E+04  0.33116994021E+04  0.00000000000E+00 0.  1.
         24    2    1    2    0    0 -0.70326626969E+02  0.58727959096E+01 -0.23673873879E+04  0.23697561258E+04  0.78998274397E+02 0.  0.
         25    2    1    2    0    0  0.39747181735E+02 -0.42043929074E+01 -0.88717770137E+03  0.89684420661E+03  0.12509093391E+03 0.  0.
        -24    2    1    2    0    0  0.30579445234E+02 -0.16684030023E+01 -0.16052891335E+02  0.86180491111E+02  0.78939823210E+02 0.  0.
        -11    1    3    3    0    0 -0.85707237510E+02 -0.10198808942E-01 -0.16933438150E+04  0.16955114291E+04  0.00000000000E+00 0.  1.
         12    1    3    3    0    0  0.15380610541E+02  0.58829947186E+01 -0.67404357292E+03  0.67424469668E+03  0.00000000000E+00 0. -1.
         11    1    5    5    0    0  0.15227979513E+02 -0.20645225638E+02 -0.42844212106E+02  0.49937392930E+02  0.00000000000E+00 0. -1.
        -12    1    5    5    0    0  0.15351465721E+02  0.18976822635E+02  0.26791320771E+02  0.36243098181E+02  0.00000000000E+00 0.  1.
          5    1    4    4  501    0 -0.90949898578E+01 -0.57798902095E+02 -0.40593401982E+03  0.41015037824E+03  0.41800000000E+01 0. -1.
         -5    1    4    4    0  501  0.48842171593E+02  0.53594509188E+02 -0.48124368154E+03  0.48669382836E+03  0.41800000000E+01 0. -1.
</event>
<event>
11    1  0.8039394E-009  0.1463162E+03  0.7561462E-02  0.1100703E+00
         22   -1    0    0    0    0  0.00000000000E+00  0.00000000000E+00  0.13763204304E+04  0.13763204304E+04  0.00000000000E+00 0.  1.
         22   -1    0    0    0    0 -0.00000000000E+00 -0.00000000000E+00 -0.24408467940E+03  0.24408467940E+03  0.00000000000E+00 0. -1.
        -24    2    1    2    0    0 -0.31863176696E+02  0.34822338495E+02 -0.21379274413E+03  0.22924460306E+03  0.67955082969E+02 0.  0.
         25    2    1    2    0    0  0.17406705664E+02  0.44739280971E+02  0.20781119806E+03  0.24726063102E+03  0.12509088275E+03 0.  0.
         24    2    1    2    0    0  0.14456471032E+02 -0.79561619466E+02  0.11382172971E+04  0.11438998757E+04  0.80182725451E+02 0.  0.
        -11    1    5    5    0    0 -0.19859186497E+02 -0.67208323809E+02  0.53342705008E+03  0.53801093282E+03  0.00000000000E+00 0.  1.
         12    1    5    5    0    0  0.34315657530E+02 -0.12353295657E+02  0.60479024698E+03  0.60588894288E+03  0.00000000000E+00 0. -1.
         13    1    3    3    0    0  0.21448801437E+02  0.12857277907E+02 -0.60347618611E+02  0.65323776301E+02  0.00000000000E+00 0. -1.
        -14    1    3    3    0    0 -0.53311978133E+02  0.21965060588E+02 -0.15344512552E+03  0.16392082676E+03  0.00000000000E+00 0.  1.
          5    1    4    4  501    0  0.31376836040E+02  0.46808491022E+00 -0.25853321638E+01  0.31762891647E+02  0.41800000000E+01 0.  1.
         -5    1    4    4    0  501 -0.13970130376E+02  0.44271196061E+02  0.21039653022E+03  0.21549773937E+03  0.41800000000E+01 0.  1.
</event>
<event>
11    1  0.8039394E-009  0.2391079E+03  0.7561462E-02  0.1029867E+00
         22   -1    0    0    0    0  0.00000000000E+00  0.00000000000E+00  0.17655263553E+04  0.17655263553E+04  0.00000000000E+00 0.  1.
         22   -1    0    0    0    0 -0.00000000000E+00 -0.00000000000E+00 -0.14344303412E+04  0.14344303412E+04  0.00000000000E+00 0.  1.
        -24    2    1    2    0    0  0.23232132498E+02  0.87733197011E+02 -0.13679358131E+04  0.13733123169E+04  0.80631788834E+02 0.  0.
         25    2    1    2    0    0 -0.14346794906E+03  0.85702754513E+02  0.13974816876E+03  0.25120933091E+03  0.12509421540E+03 0.  0.
         24    2    1    2    0    0  0.12023581657E+03 -0.17343595152E+03  0.15592836584E+04  0.15754350486E+04  0.78060131181E+02 0.  0.
        -11    1    5    5    0    0  0.10876342277E+03 -0.18093182812E+03  0.14789834430E+04  0.14939738396E+04  0.00000000000E+00 0.  1.
         12    1    5    5    0    0  0.11472393791E+02  0.74958765983E+01  0.80300215404E+02  0.81461209046E+02  0.00000000000E+00 0. -1.
         13    1    3    3    0    0 -0.23658538814E+02  0.28740185656E+02 -0.24082226830E+03  0.24368235397E+03  0.00000000000E+00 0. -1.
        -14    1    3    3    0    0  0.46890671312E+02  0.58993011355E+02 -0.11271135448E+04  0.11296299630E+04  0.00000000000E+00 0.  1.
          5    1    4    4  501    0 -0.42380281616E+02  0.18390573277E+02 -0.19982406054E+02  0.50508122188E+02  0.41800000000E+01 0. -1.
         -5    1    4    4    0  501 -0.10108766745E+03  0.67312181236E+02  0.15973057481E+03  0.20070120872E+03  0.41800000000E+01 0. -1.
</event>
<event>
11    1  0.8039394E-009  0.1336094E+03  0.7561462E-02  0.1114912E+00
         22   -1    0    0    0    0  0.00000000000E+00  0.00000000000E+00  0.20474384101E+04  0.20474384101E+04  0.00000000000E+00 0. -1.
         22   -1    0    0    0    0 -0.00000000000E+00 -0.00000000000E+00 -0.72233584459E+03  0.72233584459E+03  0.00000000000E+00 0. -1.
         24    2    1    2    0    0 -0.31852919872E+02  0.33820074448E+02 -0.68349750566E+03  0.69026280649E+03  0.84471864226E+02 0.  0.
         25    2    1    2    0    0  0.56315952895E+02 -0.41646817904E+02  0.11434660831E+03  0.18337789041E+03  0.12508541030E+03 0.  0.
        -24    2    1    2    0    0 -0.24463033023E+02  0.78267434558E+01  0.18942534628E+04  0.18961335577E+04  0.80415107187E+02 0.  0.
        -11    1    3    3    0    0 -0.48775509391E+02  0.48206568082E+02 -0.39477394464E+03  0.40068615011E+03  0.00000000000E+00 0.  1.
         12    1    3    3    0    0  0.16922589520E+02 -0.14386493634E+02 -0.28872356102E+03  0.28957665638E+03  0.00000000000E+00 0. -1.
         13    1    5    5    0    0 -0.44538733940E+02  0.77880626522E+01  0.17389732897E+04  0.17395609949E+04  0.00000000000E+00 0. -1.
        -14    1    5    5    0    0  0.20075700917E+02  0.38680803637E-01  0.15528017308E+03  0.15657256278E+03  0.00000000000E+00 0.  1.
          5    1    4    4  501    0 -0.39491468217E+02 -0.22100547303E+02  0.34185685653E+02  0.56869532763E+02  0.41800000000E+01 0.  1.
         -5    1    4    4    0  501  0.95807421112E+02 -0.19546270601E+02  0.80160922655E+02  0.12650835765E+03  0.41800000000E+01 0.  1.
</event>
<event>
11    1  0.8039394E-009  0.1337368E+03  0.7561462E-02  0.1114761E+00
         22   -1    0    0    0    0  0.00000000000E+00  0.00000000000E+00  0.15224078776E+03  0.15224078776E+03  0.00000000000E+00 0.  1.
         22   -1    0    0    0    0 -0.00000000000E+00 -0.00000000000E+00 -0.10091165702E+04  0.10091165702E+04  0.00000000000E+00 0.  1.
        -24    2    1    2    0    0  0.69004712636E+01 -0.37609309821E+02 -0.91135640178E+03  0.91573875700E+03  0.80900576777E+02 0.  0.
         25    2    1    2    0    0  0.14016417098E+02 -0.16137595349E+02 -0.10811232551E+02  0.12736184021E+03  0.12508906292E+03 0.  0.
         24    2    1    2    0    0 -0.20916888361E+02  0.53746905170E+02  0.65291851904E+02  0.11825676073E+03  0.79971179175E+02 0.  0.
        -13    1    5    5    0    0 -0.18878723211E+02  0.40459775974E+01  0.65735297907E+02  0.68512082991E+02  0.00000000000E+00 0.  1.
         14    1    5    5    0    0 -0.20381651503E+01  0.49700927572E+02 -0.44344600305E+00  0.49744677736E+02  0.00000000000E+00 0. -1.
         11    1    3    3    0    0  0.18065790189E+02  0.57249205009E+01 -0.54248072530E+02  0.57463039104E+02  0.00000000000E+00 0. -1.
        -12    1    3    3    0    0 -0.11165318926E+02 -0.43334230322E+02 -0.85710832925E+03  0.85827571790E+03  0.00000000000E+00 0.  1.
          5    1    4    4  501    0 -0.54856432232E+02 -0.90713096666E+01 -0.15411548319E+02  0.57848984761E+02  0.41800000000E+01 0. -1.
         -5    1    4    4    0  501  0.68872849329E+02 -0.70662856825E+01  0.46003157687E+01  0.69512855453E+02  0.41800000000E+01 0. -1.
</event>
<event>
11    1  0.8039394E-009  0.1603099E+03  0.7561462E-02  0.1086786E+00
         22   -1    0    0    0    0  0.00000000000E+00  0.00000000000E+00  0.44792022485E+04  0.44792022485E+04  0.00000000000E+00 0. -1.
         22   -1    0    0    0    0 -0.00000000000E+00 -0.00000000000E+00 -0.14948140061E+02  0.14948140061E+02  0.00000000000E+00 0. -1.
        -24    2    1    2    0    0 -0.54055258579E+02 -0.74763965571E+02  0.40660945125E+03  0.42458028959E+03  0.80159559238E+02 0.  0.
         25    2    1    2    0    0  0.86139748783E+02  0.99499804863E+02  0.16017168197E+04  0.16119747295E+04  0.12508193487E+03 0.  0.
         24    2    1    2    0    0 -0.32084490204E+02 -0.24735839292E+02  0.24559278375E+04  0.24575953695E+04  0.80945543422E+02 0.  0.
        -11    1    5    5    0    0 -0.35447014172E+02  0.15823667728E+02  0.61857056213E+03  0.61978739872E+03  0.00000000000E+00 0.  1.
         12    1    5    5    0    0  0.33625239684E+01 -0.40559507020E+02  0.18373572754E+04  0.18378079708E+04  0.00000000000E+00 0. -1.
         13    1    3    3    0    0  0.20405981603E+02 -0.25700922803E+02  0.98212130621E+02  0.10354981467E+03  0.00000000000E+00 0. -1.
        -14    1    3    3    0    0 -0.74461240182E+02 -0.49063042768E+02  0.30839732063E+03  0.32103047492E+03  0.00000000000E+00 0.  1.
          5    1    4    4  501    0  0.84814560829E+02  0.56134260843E+01  0.89461706040E+03  0.89865576137E+03  0.41800000000E+01 0.  1.
         -5    1    4    4    0  501  0.13251879533E+01  0.93886378778E+02  0.70709975930E+03  0.71331896809E+03  0.41800000000E+01 0.  1.
</event>
<event>
11    1  0.8039394E-009  0.2227614E+03  0.7561462E-02  0.1039501E+00
         22   -1    0    0    0    0  0.00000000000E+00  0.00000000000E+00  0.19163990916E+03  0.19163990916E+03  0.00000000000E+00 0. -1.
         22   -1    0    0    0    0 -0.00000000000E+00 -0.00000000000E+00 -0.95134361370E+03  0.95134361370E+03  0.00000000000E+00 0.  1.
         24    2    1    2    0    0  0.15478256804E+03  0.88355414105E+02 -0.62185788352E+03  0.65236923879E+03  0.84344969317E+02 0.  0.
         25    2    1    2    0    0 -0.13793887650E+03 -0.16696980016E+03 -0.23318900493E+03  0.34195049205E+03  0.12508788583E+03 0.  0.
        -24    2    1    2    0    0 -0.16843691535E+02  0.78614386055E+02  0.95343183912E+02  0.14866379201E+03  0.80911486813E+02 0.  0.
        -13    1    3    3    0    0  0.12325444061E+03  0.99556928907E+02 -0.56071571063E+03  0.58267087396E+03  0.00000000000E+00 0.  1.
         14    1    3    3    0    0  0.31528127422E+02 -0.11201514801E+02 -0.61142172897E+02  0.69698364823E+02  0.00000000000E+00 0. -1.
         11    1    5    5    0    0 -0.38370620693E+02  0.82458891774E+02  0.84950688966E+02  0.12445237210E+03  0.00000000000E+00 0. -1.
        -12    1    5    5    0    0  0.21526929158E+02 -0.38445057192E+01  0.10392494947E+02  0.24211419917E+02  0.00000000000E+00 0.  1.
          5    1    4    4  501    0 -0.13934979851E+03 -0.18382933254E+03 -0.22641373925E+03  0.32325260025E+03  0.41800000000E+01 0. -1.
         -5    1    4    4    0  501  0.14109220079E+01  0.16859532380E+02 -0.67752656818E+01  0.18697891807E+02  0.41800000000E+01 0. -1.
</event>
<event>
11    1  0.8039394E-009  0.1340812E+03  0.7561462E-02  0.1114354E+00
         22   -1    0    0    0    0  0.00000000000E+00  0.00000000000E+00  0.34852964503E+03  0.34852964503E+03  0.00000000000E+00 0. -1.
         22   -1    0    0    0    0 -0.00000000000E+00 -0.00000000000E+00 -0.10348378976E+04  0.10348378976E+04  0.00000000000E+00 0.  1.
         24    2    1    2    0    0 -0.49065553870E+02  0.32947669843E+01 -0.92179002171E+03  0.92654355617E+03  0.79798704800E+02 0.  0.
         25    2    1    2    0    0  0.33730288327E+02  0.28893402552E+02 -0.62949905740E+02  0.14691181759E+03  0.12509128848E+03 0.  0.
        -24    2    1    2    0    0  0.15335265542E+02 -0.32188169536E+02  0.29843167487E+03  0.30991216887E+03  0.75583326350E+02 0.  0.
        -13    1    3    3    0    0 -0.35058434769E+02  0.31073536768E+02 -0.77882740520E+03  0.78023508356E+03  0.00000000000E+00 0.  1.
         14    1    3    3    0    0 -0.14007119101E+02 -0.27778769784E+02 -0.14296261652E+03  0.14630847261E+03  0.00000000000E+00 0. -1.
         11    1    5    5    0    0 -0.16619857280E+02 -0.45786889965E+02  0.18274323371E+03  0.18912363262E+03  0.00000000000E+00 0. -1.
        -12    1    5    5    0    0  0.31955122822E+02  0.13598720430E+02  0.11568844116E+03  0.12078853626E+03  0.00000000000E+00 0.  1.
          5    1    4    4  501    0 -0.81029417548E+01 -0.42812155316E+02 -0.43149525918E+02  0.61464561292E+02  0.41800000000E+01 0. -1.
         -5    1    4    4    0  501  0.41833230082E+02  0.71705557867E+02 -0.19800379822E+02  0.85447256301E+02  0.41800000000E+01 0. -1.
</event>
<event>
11    1  0.8039394E-009  0.1291571E+03  0.7561462E-02  0.1120309E+00
         22   -1    0    0    0    0  0.00000000000E+00  0.00000000000E+00  0.11163381254E+03  0.11163381254E+03  0.00000000000E+00 0.  1.
         22   -1    0    0    0    0 -0.00000000000E+00 -0.00000000000E+00 -0.97922429381E+03  0.97922429381E+03  0.00000000000E+00 0. -1.
        -24    2    1    2    0    0  0.27476317863E+02  0.24230480672E+02 -0.54378698809E+03  0.55073164815E+03  0.79113814389E+02 0.  0.
         25    2    1    2    0    0 -0.14606013133E+02 -0.13355452785E+02 -0.40496205582E+03  0.42430147849E+03  0.12508306941E+03 0.  0.
         24    2    1    2    0    0 -0.12870304730E+02 -0.10875027886E+02  0.81158562635E+02  0.11582497972E+03  0.80899954646E+02 0.  0.
        -11    1    5    5    0    0 -0.93357996021E+01 -0.17997071621E+02  0.96467221356E+02  0.98574725651E+02  0.00000000000E+00 0.  1.
         12    1    5    5    0    0 -0.35345051282E+01  0.71220437350E+01 -0.15308658720E+02  0.17250254064E+02  0.00000000000E+00 0. -1.
         13    1    3    3    0    0  0.10213740452E+02  0.16791822935E+02 -0.52019841464E+03  0.52056956923E+03  0.00000000000E+00 0. -1.
        -14    1    3    3    0    0  0.17262577411E+02  0.74386577369E+01 -0.23588573444E+02  0.30162078923E+02  0.00000000000E+00 0.  1.
          5    1    4    4  501    0  0.57294663124E+01  0.13741098900E+02  0.22806155985E+01  0.15630681070E+02  0.41800000000E+01 0.  1.
         -5    1    4    4    0  501 -0.20335479445E+02 -0.27096551685E+02 -0.40724267142E+03  0.40867079742E+03  0.41800000000E+01 0.  1.
</event>
<event>
11    1  0.8039394E-009  0.1346468E+03  0.7561462E-02  0.1113688E+00
         22   -1    0    0    0    0  0.00000000000E+00  0.00000000000E+00  0.41558188115E+03  0.41558188115E+03  0.00000000000E+00 0.  1.
         22   -1    0    0    0    0 -0.00000000000E+00 -0.00000000000E+00 -0.51705502428E+03  0.51705502428E+03  0.00000000000E+00 0. -1.
        -24    2    1    2    0    0  0.29411635622E+02  0.36439784599E+02 -0.32899807387E+03  0.34323746658E+03  0.85902989742E+02 0.  0.
         25    2    1    2    0    0 -0.50108437837E+02 -0.37877821785E+02 -0.14836603714E+03  0.20397919057E+03  0.12509773892E+03 0.  0.
         24    2    1    2    0    0  0.20696802215E+02  0.14380371862E+01  0.37589096788E+03  0.38542024828E+03  0.82609457556E+02 0.  0.
        -11    1    5    5    0    0  0.87096928866E+01  0.12139731276E+02  0.36650769724E+03  0.36681210989E+03  0.00000000000E+00 0.  1.
         12    1    5    5    0    0  0.11987109329E+02 -0.10701694090E+02  0.93832706392E+01  0.18608138390E+02  0.00000000000E+00 0. -1.
         11    1    3    3    0    0  0.15037110024E+02  0.64475343489E+02 -0.23091557476E+03  0.24021904018E+03  0.00000000000E+00 0. -1.
        -12    1    3    3    0    0  0.14374525598E+02 -0.28035558891E+02 -0.98082499108E+02  0.10301842641E+03  0.00000000000E+00 0.  1.
          5    1    4    4  501    0 -0.82669503249E+02 -0.54650673172E+02 -0.84800823494E+02  0.13049749006E+03  0.41800000000E+01 0.  1.
         -5    1    4    4    0  501  0.32561065412E+02  0.16772851388E+02 -0.63565213643E+02  0.73481700510E+02  0.41800000000E+01 0.  1.
</event>
<event>
11    1  0.8039394E-009  0.2586948E+03  0.7561462E-02  0.1019367E+00
         22   -1    0    0    0    0  0.00000000000E+00  0.00000000000E+00  0.27422289547E+03  0.27422289547E+03  0.00000000000E+00 0.  1.
         22   -1    0    0    0    0 -0.00000000000E+00 -0.00000000000E+00 -0.23939775326E+04  0.23939775326E+04  0.00000000000E+00 0.  1.
         24    2    1    2    0    0  0.65550755705E+01  0.95466840969E+01 -0.19700725268E+04  0.19718172114E+04  0.82117269797E+02 0.  0.
         25    2    1    2    0    0 -0.23132700179E+03  0.94596169010E+01 -0.31117445195E+03  0.40752732815E+03  0.12508923829E+03 0.  0.
        -24    2    1    2    0    0  0.22477192622E+03 -0.19006300998E+02  0.16149234164E+03  0.28885588852E+03  0.80462970554E+02 0.  0.
        -13    1    3    3    0    0  0.16038717466E+02 -0.11019238390E+02 -0.18145548361E+04  0.18146591739E+04  0.00000000000E+00 0.  1.
         14    1    3    3    0    0 -0.94836418951E+01  0.20565922487E+02 -0.15551769069E+03  0.15715803749E+03  0.00000000000E+00 0. -1.
         11    1    5    5    0    0  0.64392436918E+02 -0.88011558436E+01  0.60438493328E+01  0.65271543502E+02  0.00000000000E+00 0. -1.
        -12    1    5    5    0    0  0.16037948930E+03 -0.10205145154E+02  0.15544849231E+03  0.22358434502E+03  0.00000000000E+00 0.  1.
          5    1    4    4  501    0 -0.89335234579E+02 -0.31702244203E+02 -0.49675720172E+02  0.10710259567E+03  0.41800000000E+01 0.  1.
         -5    1    4    4    0  501 -0.14199176721E+03  0.41161861104E+02 -0.26149873178E+03  0.30042473248E+03  0.41800000000E+01 0.  1.
</event>
<event>
11    1  0.8039394E-009  0.1386030E+03  0.7561462E-02  0.1109128E+00
         22   -1    0    0    0    0  0.00000000000E+00  0.00000000000E+00  0.43755130435E+03  0.43755130435E+03  0.00000000000E+00 0.  1.
         22   -1    0    0    0    0 -0.00000000000E+00 -0.00000000000E+00 -0.15360221765E+04  0.15360221765E+04  0.00000000000E+00 0. -1.
        -24    2    1    2    0    0  0.17361976443E+02 -0.15570485776E+02 -0.14593325345E+04  0.14617220582E+04  0.80225000721E+02 0.  0.
         25    2    1    2    0    0 -0.49249500691E+01  0.72825728500E+02  0.80532254344E+01  0.14505450563E+03  0.12509241903E+03 0.  0.
         24    2    1    2    0    0 -0.12437026374E+02 -0.57255242724E+02  0.35280843690E+03  0.36679691710E+03  0.81445336307E+02 0.  0.
        -13    1    5    5    0    0 -0.35386059403E+02 -0.14644369310E+02  0.25290035467E+03  0.25578354159E+03  0.00000000000E+00 0.  1.
         14    1    5    5    0    0  0.22949033029E+02 -0.42610873413E+02  0.99908082223E+02  0.11101337552E+03  0.00000000000E+00 0. -1.
         13    1    3    3    0    0  0.30619206570E+02  0.59665857309E+01 -0.13016923248E+04  0.13020660676E+04  0.00000000000E+00 0. -1.
        -14    1    3    3    0    0 -0.13257230126E+02 -0.21537071507E+02 -0.15764020974E+03  0.15965599058E+03  0.00000000000E+00 0.  1.
          5    1    4    4  501    0 -0.60177468502E+01 -0.16704535771E+02  0.44653529102E+02  0.48235514445E+02  0.41800000000E+01 0. -1.
         -5    1    4    4    0  501  0.10927967811E+01  0.89530264271E+02 -0.36600303667E+02  0.96818991183E+02  0.41800000000E+01 0. -1.
</event>
<event>
11    1  0.8039394E-009  0.1350689E+03  0.7561462E-02  0.1113193E+00
         22   -1    0    0    0    0  0.00000000000E+00  0.00000000000E+00  0.10061346126E+04  0.10061346126E+04  0.00000000000E+00 0.  1.
         22   -1    0    0    0    0 -0.00000000000E+00 -0.00000000000E+00 -0.83181020185E+02  0.83181020185E+02  0.00000000000E+00 0. -1.
         24    2    1    2    0    0 -0.39738857134E+01  0.51016990107E+02 -0.34285564205E+02  0.98579518392E+02  0.76966853166E+02 0.  0.
         25    2    1    2    0    0  0.46321423349E+02 -0.43525326992E+02  0.35229926851E+03  0.37921297026E+03  0.12509026289E+03 0.  0.
        -24    2    1    2    0    0 -0.42347537635E+02 -0.74916631152E+01  0.60493988812E+03  0.61152314415E+03  0.78478332218E+02 0.  0.
        -13    1    3    3    0    0  0.15142543145E+02 -0.97988761735E-01  0.17641714602E+02  0.23249436742E+02  0.00000000000E+00 0.  1.
         14    1    3    3    0    0 -0.19116428859E+02  0.51114978869E+02 -0.51927278807E+02  0.75330081650E+02  0.00000000000E+00 0. -1.
         11    1    5    5    0    0 -0.12329202359E+02 -0.22747484864E+02  0.57552963140E+02  0.63101512380E+02  0.00000000000E+00 0. -1.
        -12    1    5    5    0    0 -0.30018335276E+02  0.15255821749E+02  0.54738692498E+03  0.54842163177E+03  0.00000000000E+00 0.  1.
          5    1    4    4  501    0  0.59940121512E+02 -0.80124630624E+02  0.23290573749E+03  0.25352579663E+03  0.41800000000E+01 0.  1.
         -5    1    4    4    0  501 -0.13618698163E+02  0.36599303632E+02  0.11939353102E+03  0.12568717364E+03  0.41800000000E+01 0.  1.
</event>
<event>
11    1  0.8039394E-009  0.1701386E+03  0.7561462E-02  0.1077911E+00
         22   -1    0    0    0    0  0.00000000000E+00  0.00000000000E+00  0.10183452608E+04  0.10183452608E+04  0.00000000000E+00 0.  1.
         22   -1    0    0    0    0 -0.00000000000E+00 -0.00000000000E+00 -0.31875066539E+03  0.31875066539E+03  0.00000000000E+00 0.  1.
        -24    2    1    2    0    0  0.93020658539E+02  0.63592659029E+02 -0.26689553117E+03  0.30065155814E+03  0.80381998344E+02 0.  0.
         25    2    1    2    0    0 -0.17855421239E+03 -0.69704461046E+02  0.43015418605E+03  0.48725931216E+03  0.12509474353E+03 0.  0.
         24    2    1    2    0    0  0.85533553851E+02  0.61118020171E+01  0.53633594053E+03  0.54918505589E+03  0.81207398376E+02 0.  0.
        -11    1    5    5    0    0  0.86751254163E+02 -0.18700990696E+02  0.34447908607E+03  0.35572650715E+03  0.00000000000E+00 0.  1.
         12    1    5    5    0    0 -0.12177003118E+01  0.24812792713E+02  0.19185685446E+03  0.19345854874E+03  0.00000000000E+00 0. -1.
         13    1    3    3    0    0  0.20684986904E+02  0.29220044732E+01 -0.39366725581E+01  0.21258038108E+02  0.00000000000E+00 0. -1.
        -14    1    3    3    0    0  0.72335671635E+02  0.60670654556E+02 -0.26295885861E+03  0.27939352003E+03  0.00000000000E+00 0.  1.
          5    1    4    4  501    0 -0.15535773024E+03 -0.10416280739E+03  0.35540404472E+03  0.40164091200E+03  0.41800000000E+01 0.  1.
         -5    1    4    4    0  501 -0.23196482148E+02  0.34458346347E+02  0.74750141325E+02  0.85618400155E+02  0.41800000000E+01 0.  1.
</event>
<event>
11    1  0.8039394E-009  0.1332223E+03  0.7561462E-02  0.1115372E+00
         22   -1    0    0    0    0  0.00000000000E+00  0.00000000000E+00  0.74784160069E+03  0.74784160069E+03  0.00000000000E+00 0.  1.
         22   -1    0    0    0    0 -0.00000000000E+00 -0.00000000000E+00 -0.27387733172E+03  0.27387733172E+03  0.00000000000E+00 0. -1.
        -24    2    1    2    0    0 -0.25045949090E+02 -0.77098046441E+01 -0.23886544827E+03  0.25399842233E+03  0.82290676946E+02 0.  0.
         25    2    1    2    0    0 -0.18014181667E+02  0.29901852922E+02  0.15579280313E+03  0.20282340940E+03  0.12508919356E+03 0.  0.
         24    2    1    2    0    0  0.43060130757E+02 -0.22192048278E+02  0.55703691412E+03  0.56489710068E+03  0.80448423195E+02 0.  0.
        -13    1    5    5    0    0  0.42979785001E+02 -0.57475790004E+01  0.53798460548E+03  0.53972931393E+03  0.00000000000E+00 0.  1.
         14    1    5    5    0    0  0.80345755971E-01 -0.16444469278E+02  0.19052308644E+02  0.25167786751E+02  0.00000000000E+00 0. -1.
         11    1    3    3    0    0 -0.42349779071E+02  0.31140484392E+01 -0.22581408294E+03  0.22977206345E+03  0.00000000000E+00 0. -1.
        -12    1    3    3    0    0  0.17303829981E+02 -0.10823853083E+02 -0.13051365330E+02  0.24226358880E+02  0.00000000000E+00 0.  1.
          5    1    4    4  501    0 -0.55754689178E+02 -0.25174614157E+02  0.58471761377E+02  0.84727597876E+02  0.41800000000E+01 0. -1.
         -5    1    4    4    0  501  0.37740507511E+02  0.55076467079E+02  0.97321041750E+02  0.11809581153E+03  0.41800000000E+01 0. -1.
</event>
<event>
11    1  0.8039394E-009  0.6913888E+03  0.7561462E-02  0.9045092E-01
         22   -1    0    0    0    0  0.00000000000E+00  0.00000000000E+00  0.50678523991E+03  0.50678523991E+03  0.00000000000E+00 0. -1.
         22   -1    0    0    0    0 -0.00000000000E+00 -0.00000000000E+00 -0.25000466410E+04  0.25000466410E+04  0.00000000000E+00 0. -1.
         24    2    1    2    0    0  0.21834995525E+03 -0.45536661840E+03 -0.14081545900E+04  0.14981569987E+04  0.80867690551E+02 0.  0.
         25    2    1    2    0    0  0.42011225791E+03  0.62627061145E+02 -0.61090627713E+03  0.75449979087E+03  0.12508795685E+03 0.  0.
        -24    2    1    2    0    0 -0.63846221316E+03  0.39273955725E+03  0.25799465951E+02  0.75417509140E+03  0.78968972226E+02 0.  0.
        -11    1    3    3    0    0  0.17794724037E+03 -0.40345440879E+03 -0.12847197479E+04  0.13582877129E+04  0.00000000000E+00 0.  1.
         12    1    3    3    0    0  0.40402714881E+02 -0.51912209603E+02 -0.12343484205E+03  0.13986928579E+03  0.00000000000E+00 0. -1.
         11    1    5    5    0    0 -0.49518224516E+03  0.28045098661E+03 -0.74042631195E+01  0.56913358267E+03  0.00000000000E+00 0. -1.
        -12    1    5    5    0    0 -0.14327996801E+03  0.11228857064E+03  0.33203729071E+02  0.18504150873E+03  0.00000000000E+00 0.  1.
          5    1    4    4  501    0  0.23899026286E+03  0.95232520458E+02 -0.38547057144E+03  0.46345508147E+03  0.41800000000E+01 0. -1.
         -5    1    4    4    0  501  0.18112199505E+03 -0.32605459313E+02 -0.22543570569E+03  0.29104470940E+03  0.41800000000E+01 0. -1.
</event>
<event>
11    1  0.8039394E-009  0.1574765E+03  0.7561462E-02  0.1089475E+00
         22   -1    0    0    0    0  0.00000000000E+00  0.00000000000E+00  0.90821210940E+03  0.90821210940E+03  0.00000000000E+00 0. -1.
         22   -1    0    0    0    0 -0.00000000000E+00 -0.00000000000E+00 -0.57777288584E+03  0.57777288584E+03  0.00000000000E+00 0. -1.
        -24    2    1    2    0    0  0.31428512628E+02  0.49988748825E+02 -0.54500949369E+03  0.55412393892E+03  0.80816861205E+02 0.  0.
         25    2    1    2    0    0  0.70758345987E+02 -0.50753135958E+02  0.24682000776E+03  0.29008396956E+03  0.12508384719E+03 0.  0.
         24    2    1    2    0    0 -0.10218685861E+03  0.76438713321E+00  0.62862870949E+03  0.64177708676E+03  0.79126710653E+02 0.  0.
        -13    1    5    5    0    0 -0.80978177716E+02 -0.16122847191E+02  0.58209668322E+03  0.58792343045E+03  0.00000000000E+00 0.  1.
         14    1    5    5    0    0 -0.21208680899E+02  0.16887234325E+02  0.46532026275E+02  0.53853656309E+02  0.00000000000E+00 0. -1.
         11    1    3    3    0    0  0.35750176808E+02  0.68654960462E+02 -0.36623163654E+03  0.37432230810E+03  0.00000000000E+00 0. -1.
        -12    1    3    3    0    0 -0.43216641800E+01 -0.18666211636E+02 -0.17877785715E+03  0.17980163082E+03  0.00000000000E+00 0.  1.
          5    1    4    4  501    0  0.74131169380E+01 -0.39640460242E+02  0.21391172766E+03  0.21772004966E+03  0.41800000000E+01 0. -1.
         -5    1    4    4    0  501  0.63345229049E+02 -0.11112675717E+02  0.32908280097E+02  0.72363919903E+02  0.41800000000E+01 0. -1.
</event>
<event>
11    1  0.8039394E-009  0.1935951E+03  0.7561462E-02  0.1059148E+00
         22   -1    0    0    0    0  0.00000000000E+00  0.00000000000E+00  0.29139182348E+04  0.29139182348E+04  0.00000000000E+00 0. -1.
         22   -1    0    0    0    0 -0.00000000000E+00 -0.00000000000E+00 -0.23180929968E+03  0.23180929968E+03  0.00000000000E+00 0.  1.
        -24    2    1    2    0    0 -0.24231713946E+02  0.72260879661E+02 -0.18415801829E+03  0.21293592294E+03  0.74958127567E+02 0.  0.
         25    2    1    2    0    0  0.95241647767E+02 -0.19456577363E+03  0.48340552044E+03  0.54429281952E+03  0.12508782694E+03 0.  0.
         24    2    1    2    0    0 -0.71009933821E+02  0.12230489396E+03  0.23828614330E+04  0.23884987920E+04  0.83048016066E+02 0.  0.
        -11    1    5    5    0    0 -0.47012947369E+02  0.10385260245E+02  0.85597649572E+03  0.85732947696E+03  0.00000000000E+00 0.  1.
         12    1    5    5    0    0 -0.23996986452E+02  0.11191963372E+03  0.15268849373E+04  0.15311693151E+04  0.00000000000E+00 0. -1.
         11    1    3    3    0    0  0.12060397629E+02  0.49124746702E+02 -0.46509476428E+02  0.68715539197E+02  0.00000000000E+00 0. -1.
        -12    1    3    3    0    0 -0.36292111575E+02  0.23136132959E+02 -0.13764854186E+03  0.14422038374E+03  0.00000000000E+00 0.  1.
          5    1    4    4  501    0  0.30567629166E+02 -0.27416840201E+02  0.23124802714E+03  0.23490250219E+03  0.41800000000E+01 0.  1.
         -5    1    4    4    0  501  0.64674018601E+02 -0.16714893343E+03  0.25215749331E+03  0.30939031733E+03  0.41800000000E+01 0.  1.
</event>
<event>
11    1  0.8039394E-009  0.1481629E+03  0.7561462E-02  0.1098771E+00
         22   -1    0    0    0    0  0.00000000000E+00  0.00000000000E+00  0.23300935246E+03  0.23300935246E+03  0.00000000000E+00 0. -1.
         22   -1    0    0    0    0 -0.00000000000E+00 -0.00000000000E+00 -0.11299627086E+04  0.11299627086E+04  0.00000000000E+00 0. -1.
        -24    2    1    2    0    0 -0.42701483428E+02  0.96356460909E+00 -0.89812882015E+03  0.90274599559E+03  0.80564321065E+02 0.  0.
         25    2    1    2    0    0 -0.97540959051E+01 -0.62906490633E+02 -0.19116312272E+03  0.23715643380E+03  0.12508983033E+03 0.  0.
         24    2    1    2    0    0  0.52455579333E+02  0.61942926024E+02  0.19233858675E+03  0.22306963165E+03  0.78596531262E+02 0.  0.
        -11    1    5    5    0    0 -0.21530512683E+00  0.55868855772E+02  0.12826041537E+03  0.13990035580E+03  0.00000000000E+00 0.  1.
         12    1    5    5    0    0  0.52670884460E+02  0.60740702523E+01  0.64078171378E+02  0.83169275856E+02  0.00000000000E+00 0. -1.
         13    1    3    3    0    0  0.32710244536E+01  0.65381660286E+01 -0.66614603787E+03  0.66618615340E+03  0.00000000000E+00 0. -1.
        -14    1    3    3    0    0 -0.45972507881E+02 -0.55746014195E+01 -0.23198278228E+03  0.23655984219E+03  0.00000000000E+00 0.  1.
          5    1    4    4  501    0  0.14924079694E+02  0.25957764452E+02 -0.11049633811E+03  0.11455761357E+03  0.41800000000E+01 0.  1.
         -5    1    4    4    0  501 -0.24678175599E+02 -0.88864255086E+02 -0.80666784603E+02  0.12259882023E+03  0.41800000000E+01 0.  1.
</event>
<event>
11    1  0.8039394E-009  0.1977025E+03  0.7561462E-02  0.1056160E+00
         22   -1    0    0    0    0  0.00000000000E+00  0.00000000000E+00  0.13997624124E+04  0.13997624124E+04  0.00000000000E+00 0. -1.
         22   -1    0    0    0    0 -0.00000000000E+00 -0.00000000000E+00 -0.44061501380E+03  0.44061501380E+03  0.00000000000E+00 0. -1.
         24    2    1    2    0    0  0.78194045732E+02  0.14119825853E+03 -0.34536827788E+03  0.38965443937E+03  0.80623059709E+02 0.  0.
         25    2    1    2    0    0 -0.32637126882E+02 -0.11248090446E+03  0.31381639932E+02  0.17420088909E+03  0.12507600296E+03 0.  0.
        -24    2    1    2    0    0 -0.45556918850E+02 -0.28717354065E+02  0.12731340365E+04  0.12765220977E+04  0.75751381093E+02 0.  0.
        -13    1    3    3    0    0  0.47220881625E+02  0.17066018774E+02 -0.71413140739E+02  0.87297750993E+02  0.00000000000E+00 0.  1.
         14    1    3    3    0    0  0.30973164107E+02  0.12413223976E+03 -0.27395513714E+03  0.30235668838E+03  0.00000000000E+00 0. -1.
         13    1    5    5    0    0 -0.39205591126E+02  0.40079268831E+00  0.11097345862E+04  0.11104269858E+04  0.00000000000E+00 0. -1.
        -14    1    5    5    0    0 -0.63513277239E+01 -0.29118146753E+02  0.16339945029E+03  0.16609511187E+03  0.00000000000E+00 0.  1.
          5    1    4    4  501    0  0.31571737376E+02  0.53694815424E+01 -0.98081011558E+01  0.33753180313E+02  0.41800000000E+01 0. -1.
         -5    1    4    4    0  501 -0.64208864257E+02 -0.11785038601E+03  0.41189741088E+02  0.14044770878E+03  0.41800000000E+01 0. -1.
</event>
<event>
11    1  0.8039394E-009  0.1534288E+03  0.7561462E-02  0.1093426E+00
         22   -1    0    0    0    0  0.00000000000E+00  0.00000000000E+00  0.21225369529E+04  0.21225369529E+04  0.00000000000E+00 0. -1.
         22   -1    0    0    0    0 -0.00000000000E+00 -0.00000000000E+00 -0.38881438880E+03  0.38881438880E+03  0.00000000000E+00 0. -1.
        -24    2    1    2    0    0  0.11701382616E+02 -0.22821769745E+02 -0.34131827015E+03  0.35162572830E+03  0.80527856864E+02 0.  0.
         25    2    1    2    0    0 -0.69655454247E+02 -0.45062123277E+02  0.98475597677E+02  0.17951908975E+03  0.12508870048E+03 0.  0.
         24    2    1    2    0    0  0.57954071632E+02  0.67883893022E+02  0.19765652366E+04  0.19802065237E+04  0.80254872129E+02 0.  0.
        -11    1    5    5    0    0 -0.89926678033E+01  0.33653632479E+02  0.31096599624E+03  0.31291098714E+03  0.00000000000E+00 0.  1.
         12    1    5    5    0    0  0.66946739435E+02  0.34230260543E+02  0.16655992403E+04  0.16672955365E+04  0.00000000000E+00 0. -1.
         13    1    3    3    0    0 -0.19024344536E+02 -0.40546965830E+02 -0.24326095805E+03  0.24734970353E+03  0.00000000000E+00 0. -1.
        -14    1    3    3    0    0  0.30725727151E+02  0.17725196085E+02 -0.98057312098E+02  0.10427602477E+03  0.00000000000E+00 0.  1.
          5    1    4    4  501    0 -0.47067206266E+02  0.28360575393E+02  0.71120866018E+00  0.55114629275E+02  0.41800000000E+01 0.  1.
         -5    1    4    4    0  501 -0.22588247981E+02 -0.73422698671E+02  0.97764389017E+02  0.12440446048E+03  0.41800000000E+01 0.  1.
</event>
<event>
11    1  0.8039394E-009  0.3622424E+03  0.7561462E-02  0.9768241E-01
         22   -1    0    0    0    0  0.00000000000E+00  0.00000000000E+00  0.15405560086E+04  0.15405560086E+04  0.00000000000E+00 0. -1.
         22   -1    0    0    0    0 -0.00000000000E+00 -0.00000000000E+00 -0.50787980163E+03  0.50787980163E+03  0.00000000000E+00 0.  1.
        -24    2    1    2    0    0  0.42992565482E+01  0.16354974599E+02 -0.10488103481E+03  0.13288178878E+03  0.79822111754E+02 0.  0.
         25    2    1    2    0    0  0.29652864612E+03  0.14333201537E+03 -0.28337102777E+03  0.45212877287E+03  0.12509189935E+03 0.  0.
         24    2    1    2    0    0 -0.30082790267E+03 -0.15968698997E+03  0.14209282695E+04  0.14634252486E+04  0.81110721617E+02 0.  0.
        -11    1    5    5    0    0 -0.17044475647E+03 -0.49393385797E+02  0.64832500647E+03  0.67217292089E+03  0.00000000000E+00 0.  1.
         12    1    5    5    0    0 -0.13038314620E+03 -0.11029360417E+03  0.77260326307E+03  0.79125232766E+03  0.00000000000E+00 0. -1.
         13    1    3    3    0    0 -0.19170253277E+02  0.41373808255E+02 -0.72874866910E+02  0.85965323517E+02  0.00000000000E+00 0. -1.
        -14    1    3    3    0    0  0.23469509825E+02 -0.25018833656E+02 -0.32006167903E+02  0.46916465263E+02  0.00000000000E+00 0.  1.
          5    1    4    4  501    0  0.28048399981E+03  0.14180368346E+03 -0.29559086421E+03  0.43147536453E+03  0.41800000000E+01 0. -1.
         -5    1    4    4    0  501  0.16044646304E+02  0.15283319125E+01  0.12219836441E+02  0.20653408341E+02  0.41800000000E+01 0. -1.
</event>
<event>
11    1  0.8039394E-009  0.1725582E+03  0.7561462E-02  0.1075827E+00
         22   -1    0    0    0    0  0.00000000000E+00  0.00000000000E+00  0.17920383567E+04  0.17920383567E+04  0.00000000000E+00 0.  1.
         22   -1    0    0    0    0 -0.00000000000E+00 -0.00000000000E+00 -0.72801145327E+03  0.72801145327E+03  0.00000000000E+00 0.  1.
        -24    2    1    2    0    0  0.42848531283E+02 -0.11214593912E+03 -0.67950661005E+03  0.69469444496E+03  0.80364360671E+02 0.  0.
         25    2    1    2    0    0 -0.31121021167E+02  0.89521980129E+02  0.11484187285E+03  0.19446875116E+03  0.12508691591E+03 0.  0.
         24    2    1    2    0    0 -0.11727510116E+02  0.22623958994E+02  0.16286916406E+04  0.16308866139E+04  0.80655495688E+02 0.  0.
        -11    1    5    5    0    0  0.63463075566E+01 -0.12479505023E+01  0.14241824523E+04  0.14241971389E+04  0.00000000000E+00 0.  1.
         12    1    5    5    0    0 -0.18073817672E+02  0.23871909496E+02  0.20450918835E+03  0.20668947498E+03  0.00000000000E+00 0. -1.
         11    1    3    3    0    0 -0.13317525965E+01  0.12320698557E+02 -0.57616519151E+02  0.58934170537E+02  0.00000000000E+00 0. -1.
        -12    1    3    3    0    0  0.44180283879E+02 -0.12446663768E+03 -0.62189009090E+03  0.63576027442E+03  0.00000000000E+00 0.  1.
          5    1    4    4  501    0 -0.68829722726E+02  0.38948576810E+02  0.10335936792E+03  0.13021195684E+03  0.41800000000E+01 0. -1.
         -5    1    4    4    0  501  0.37708701559E+02  0.50573403319E+02  0.11482504925E+02  0.64256794317E+02  0.41800000000E+01 0. -1.
</event>
<event>
11    1  0.8039394E-009  0.1370479E+03  0.7561462E-02  0.1110900E+00
         22   -1    0    0    0    0  0.00000000000E+00  0.00000000000E+00  0.38407657063E+03  0.38407657063E+03  0.00000000000E+00 0.  1.
         22   -1    0    0    0    0 -0.00000000000E+00 -0.00000000000E+00 -0.87107601333E+03  0.87107601333E+03  0.00000000000E+00 0. -1.
        -24    2    1    2    0    0 -0.57217598331E+02  0.20835923130E+01 -0.74385360000E+03  0.75018683398E+03  0.78637858124E+02 0.  0.
         25    2    1    2    0    0  0.41484195192E+02  0.17118497164E+02 -0.81858418665E+02  0.15608570201E+03  0.12509182336E+03 0.  0.
         24    2    1    2    0    0  0.15733403139E+02 -0.19202089477E+02  0.33871257597E+03  0.34888004796E+03  0.79842460728E+02 0.  0.
        -11    1    5    5    0    0  0.97801492204E+01 -0.19381550164E+02  0.34158042283E+03  0.34226960290E+03  0.00000000000E+00 0.  1.
         12    1    5    5    0    0  0.59532539184E+01  0.17946068714E+00 -0.28678468646E+01  0.66104450678E+01  0.00000000000E+00 0. -1.
         13    1    3    3    0    0 -0.55940326664E+02 -0.24826064998E+02 -0.63913090741E+03  0.64205449181E+03  0.00000000000E+00 0. -1.
        -14    1    3    3    0    0 -0.12772716661E+01  0.26909657311E+02 -0.10472269259E+03  0.10813234217E+03  0.00000000000E+00 0.  1.
          5    1    4    4  501    0  0.54620687441E+01  0.59943209659E+02 -0.79654035390E+02  0.99926274489E+02  0.41800000000E+01 0. -1.
         -5    1    4    4    0  501  0.36022126448E+02 -0.42824712495E+02 -0.22043832749E+01  0.56159427523E+02  0.41800000000E+01 0. -1.
</event>
<event>
11    1  0.8565673E-009  0.1603884E+03  0.7561462E-02  0.1086713E+00
         22   -1    0    0    0    0  0.00000000000E+00  0.00000000000E+00  0.10449633969E+04  0.10449633969E+04  0.00000000000E+00 0.  1.
         22   -1    0    0    0    0 -0.00000000000E+00 -0.00000000000E+00 -0.51851356647E+03  0.51851356647E+03  0.00000000000E+00 0. -1.
        -24    2    1    2    0    0  0.23737328549E+02 -0.21438494154E+02 -0.34443558698E+03  0.35503929012E+03  0.79962204520E+02 0.  0.
         25    2    1    2    0    0  0.75284321731E+02  0.40613327843E+02 -0.12976626641E+03  0.19950558289E+03  0.12508406058E+03 0.  0.
         24    2    1    2    0    0 -0.99021650280E+02 -0.19174833689E+02  0.10006516838E+04  0.10089320904E+04  0.80418960236E+02 0.  0.
        -11    1    5    5    0    0 -0.98170700840E+02 -0.12402242526E+02  0.99543510839E+03  0.10003411204E+04  0.00000000000E+00 0.  1.
         12    1    5    5    0    0 -0.85094943952E+00 -0.67725911629E+01  0.52165754412E+01  0.85909699885E+01  0.00000000000E+00 0. -1.
         13    1    3    3    0    0  0.93120361568E+01 -0.46555009227E+02 -0.28493554684E+03  0.28886389313E+03  0.00000000000E+00 0. -1.
        -14    1    3    3    0    0  0.14425292392E+02  0.25116515073E+02 -0.59500040146E+02  0.66175396994E+02  0.00000000000E+00 0.  1.
          5    1    4    4  501    0  0.48145785439E+02 -0.20474149981E+02  0.11000659150E+01  0.52496571488E+02  0.41800000000E+01 0.  1.
         -5    1    4    4    0  501  0.27138536292E+02  0.61087477824E+02 -0.13086633232E+03  0.14700901140E+03  0.41800000000E+01 0. -1.
</event>
<event>
11    1  0.8039394E-009  0.5795646E+03  0.7561462E-02  0.9231434E-01
         22   -1    0    0    0    0  0.00000000000E+00  0.00000000000E+00  0.71727763773E+03  0.71727763773E+03  0.00000000000E+00 0. -1.
         22   -1    0    0    0    0 -0.00000000000E+00 -0.00000000000E+00 -0.25096999395E+04  0.25096999395E+04  0.00000000000E+00 0. -1.
        -24    2    1    2    0    0 -0.55113425934E+02  0.12692312044E+03 -0.20319167068E+04  0.20381748945E+04  0.79526280008E+02 0.  0.
         25    2    1    2    0    0 -0.51030759523E+03  0.97066304784E+02  0.11086591142E+02  0.53442148935E+03  0.12509079302E+03 0.  0.
         24    2    1    2    0    0  0.56542102117E+03 -0.22398942522E+03  0.22840781389E+03  0.65438119331E+03  0.78564768974E+02 0.  0.
        -11    1    5    5    0    0  0.58506016494E+02  0.12508991851E+01  0.21327189178E+02  0.62284570425E+02  0.00000000000E+00 0.  1.
         12    1    5    5    0    0  0.50691500467E+03 -0.22524032441E+03  0.20708062472E+03  0.59209662289E+03  0.00000000000E+00 0. -1.
         13    1    3    3    0    0 -0.57996071270E+02  0.11046286472E+03 -0.19728170420E+04  0.19767581213E+04  0.00000000000E+00 0. -1.
        -14    1    3    3    0    0  0.28826453360E+01  0.16460255720E+02 -0.59099664750E+02  0.61416773247E+02  0.00000000000E+00 0.  1.
          5    1    4    4  501    0 -0.19310180633E+03 -0.23568639131E+02  0.13088306611E+02  0.19501939526E+03  0.41800000000E+01 0.  1.
         -5    1    4    4    0  501 -0.31720578891E+03  0.12063494392E+03 -0.20017154689E+01  0.33940209409E+03  0.41800000000E+01 0.  1.
</event>
<event>
11    1  0.8039394E-009  0.1602119E+03  0.7561462E-02  0.1086878E+00
         22   -1    0    0    0    0  0.00000000000E+00  0.00000000000E+00  0.16960822102E+03  0.16960822102E+03  0.00000000000E+00 0. -1.
         22   -1    0    0    0    0 -0.00000000000E+00 -0.00000000000E+00 -0.32015503918E+04  0.32015503918E+04  0.00000000000E+00 0.  1.
         24    2    1    2    0    0  0.16403701180E+02 -0.24287634489E+02 -0.21381906734E+04  0.21400197648E+04  0.83464169455E+02 0.  0.
         25    2    1    2    0    0  0.81152606259E+02 -0.36296425538E+00 -0.10316900192E+04  0.10424095980E+04  0.12509035542E+03 0.  0.
        -24    2    1    2    0    0 -0.97556307439E+02  0.24650598744E+02  0.13793852187E+03  0.18872924992E+03  0.80416471072E+02 0.  0.
        -11    1    3    3    0    0  0.29241611082E+02 -0.50701699388E+02 -0.15329770719E+04  0.15340940119E+04  0.00000000000E+00 0.  1.
         12    1    3    3    0    0 -0.12837909902E+02  0.26414064900E+02 -0.60521360144E+03  0.60592575298E+03  0.00000000000E+00 0. -1.
         13    1    5    5    0    0 -0.95516457109E+02  0.41751681002E+02  0.89751429031E+02  0.13755695351E+03  0.00000000000E+00 0. -1.
        -14    1    5    5    0    0 -0.20398503306E+01 -0.17101082258E+02  0.48187092840E+02  0.51172296412E+02  0.00000000000E+00 0.  1.
          5    1    4    4  501    0  0.10177291946E+03 -0.24398645488E+02 -0.92848707892E+03  0.93437612831E+03  0.41800000000E+01 0.  1.
         -5    1    4    4    0  501 -0.20620313197E+02  0.24035681232E+02 -0.10320294030E+03  0.10803346970E+03  0.41800000000E+01 0.  1.
</event>
<event>
11    1  0.8039394E-009  0.2882914E+03  0.7561462E-02  0.1005272E+00
         22   -1    0    0    0    0  0.00000000000E+00  0.00000000000E+00  0.30094867240E+03  0.30094867240E+03  0.00000000000E+00 0. -1.
         22   -1    0    0    0    0 -0.00000000000E+00 -0.00000000000E+00 -0.90670331998E+03  0.90670331998E+03  0.00000000000E+00 0.  1.
        -24    2    1    2    0    0  0.28502017525E+02  0.25801970642E+03 -0.67276762675E+03  0.72556515273E+03  0.80261929646E+02 0.  0.
         25    2    1    2    0    0 -0.13219146330E+03 -0.24395743423E+03 -0.41811148901E+02  0.30722186532E+03  0.12508912691E+03 0.  0.
         24    2    1    2    0    0  0.10368944578E+03 -0.14062272189E+02  0.10882412807E+03  0.17486497434E+03  0.88237292213E+02 0.  0.
        -13    1    5    5    0    0  0.29299762325E+02 -0.12483992218E+02 -0.11105133216E+02  0.33729069328E+02  0.00000000000E+00 0.  1.
         14    1    5    5    0    0  0.74389683451E+02 -0.15782799711E+01  0.11992926129E+03  0.14113590502E+03  0.00000000000E+00 0. -1.
         13    1    3    3    0    0  0.29586851621E+00  0.90638572690E+01 -0.99810893372E+02  0.10022203092E+03  0.00000000000E+00 0. -1.
        -14    1    3    3    0    0  0.28206149009E+02  0.24895584915E+03 -0.57295673338E+03  0.62534312181E+03  0.00000000000E+00 0.  1.
          5    1    4    4  501    0 -0.10393609386E+03 -0.80736536546E+02  0.13895831393E+02  0.13240719947E+03  0.41800000000E+01 0. -1.
         -5    1    4    4    0  501 -0.28255369439E+02 -0.16322089768E+03 -0.55706980294E+02  0.17481466585E+03  0.41800000000E+01 0. -1.
</event>
<event>
11    1  0.8039394E-009  0.2959007E+03  0.7561462E-02  0.1001941E+00
         22   -1    0    0    0    0  0.00000000000E+00  0.00000000000E+00  0.78638564244E+03  0.78638564244E+03  0.00000000000E+00 0.  1.
         22   -1    0    0    0    0 -0.00000000000E+00 -0.00000000000E+00 -0.40715303055E+04  0.40715303055E+04  0.00000000000E+00 0. -1.
        -24    2    1    2    0    0  0.23200200206E+03 -0.18559055615E+03 -0.22376511433E+04  0.22578709215E+04  0.51280362706E+02 0.  0.
         25    2    1    2    0    0 -0.24111470653E+03  0.63940031231E+02 -0.18061468780E+04  0.18275777394E+04  0.12509683914E+03 0.  0.
         24    2    1    2    0    0  0.91127044715E+01  0.12165052492E+03  0.75865335827E+03  0.77246728704E+03  0.79176384994E+02 0.  0.
        -13    1    5    5    0    0  0.19648730862E+02  0.12269851257E+03  0.74446201420E+03  0.75476134520E+03  0.00000000000E+00 0.  1.
         14    1    5    5    0    0 -0.10536026390E+02 -0.10479876522E+01  0.14191344065E+02  0.17705941844E+02  0.00000000000E+00 0. -1.
         13    1    3    3    0    0  0.11631386820E+03 -0.11898411276E+03 -0.11244423487E+04  0.11366867337E+04  0.00000000000E+00 0. -1.
        -14    1    3    3    0    0  0.11568813386E+03 -0.66606443395E+02 -0.11132087946E+04  0.11211841878E+04  0.00000000000E+00 0.  1.
          5    1    4    4  501    0 -0.12150407884E+03 -0.27089005270E+02 -0.97681420236E+03  0.98472357223E+03  0.41800000000E+01 0. -1.
         -5    1    4    4    0  501 -0.11961062769E+03  0.91029036502E+02 -0.82933267567E+03  0.84285416715E+03  0.41800000000E+01 0. -1.
</event>
<event>
11    1  0.8039394E-009  0.1412517E+03  0.7561462E-02  0.1106169E+00
         22   -1    0    0    0    0  0.00000000000E+00  0.00000000000E+00  0.93830381655E+03  0.93830381655E+03  0.00000000000E+00 0.  1.
         22   -1    0    0    0    0 -0.00000000000E+00 -0.00000000000E+00 -0.23075890801E+03  0.23075890801E+03  0.00000000000E+00 0. -1.
         24    2    1    2    0    0  0.91428943457E+00 -0.61895681670E+02 -0.16798131462E+03  0.19683356797E+03  0.81815769148E+02 0.  0.
         25    2    1    2    0    0  0.25571987956E+02  0.10389661850E+03  0.10382383896E+03  0.19461428696E+03  0.12508755833E+03 0.  0.
        -24    2    1    2    0    0 -0.26486277391E+02 -0.42000936827E+02  0.77170238420E+03  0.77761486963E+03  0.81821232630E+02 0.  0.
        -11    1    3    3    0    0  0.35586228564E+02 -0.28077009433E+02 -0.12159788456E+03  0.12977189084E+03  0.00000000000E+00 0.  1.
         12    1    3    3    0    0 -0.34671939129E+02 -0.33818672237E+02 -0.46383430061E+02  0.67061677127E+02  0.00000000000E+00 0. -1.
         11    1    5    5    0    0  0.19518802357E+02 -0.16010411718E+02  0.79804560247E+02  0.83702358181E+02  0.00000000000E+00 0. -1.
        -12    1    5    5    0    0 -0.46005079747E+02 -0.25990525109E+02  0.69189782396E+03  0.69391251145E+03  0.00000000000E+00 0.  1.
          5    1    4    4  501    0  0.64065086408E+02  0.88476108832E+02  0.36152078348E+02  0.11513818784E+03  0.41800000000E+01 0. -1.
         -5    1    4    4    0  501 -0.38493098452E+02  0.15420509665E+02  0.67671760609E+02  0.79476099116E+02  0.41800000000E+01 0. -1.
</event>
<event>
11    1  0.9926497E-009  0.1733148E+03  0.7561462E-02  0.1075183E+00
         22   -1    0    0    0    0  0.00000000000E+00  0.00000000000E+00  0.11244337878E+04  0.11244337878E+04  0.00000000000E+00 0. -1.
         22   -1    0    0    0    0 -0.00000000000E+00 -0.00000000000E+00 -0.66817001433E+03  0.66817001433E+03  0.00000000000E+00 0. -1.
         24    2    1    2    0    0  0.55065013514E+01 -0.57655145446E+01 -0.59189825572E+03  0.59741519671E+03  0.80608990971E+02 0.  0.
         25    2    1    2    0    0  0.11427633272E+03  0.17181157199E+02  0.37514313394E+02  0.17436525032E+03  0.12506655998E+03 0.  0.
        -24    2    1    2    0    0 -0.11978283407E+03 -0.11415642654E+02  0.10106477158E+04  0.10208233551E+04  0.78697348366E+02 0.  0.
        -13    1    3    3    0    0  0.39918032293E+02 -0.49685961461E+01 -0.19980990208E+03  0.20381887356E+03  0.00000000000E+00 0.  1.
         14    1    3    3    0    0 -0.34411530941E+02 -0.79691839844E+00 -0.39208835364E+03  0.39359632316E+03  0.00000000000E+00 0. -1.
         13    1    5    5    0    0 -0.11665085705E+03 -0.32862448459E+02  0.89426464995E+03  0.90243926506E+03  0.00000000000E+00 0. -1.
        -14    1    5    5    0    0 -0.31319770194E+01  0.21446805805E+02  0.11638306584E+03  0.11838409004E+03  0.00000000000E+00 0.  1.
          5    1    4    4  501    0  0.72170219690E+02  0.66464405338E+02 -0.22085105311E+01  0.98226308624E+02  0.41800000000E+01 0.  1.
         -5    1    4    4    0  501  0.42106113032E+02 -0.49283248140E+02  0.39722823925E+02  0.76138941695E+02  0.41800000000E+01 0.  1.
</event>
<event>
11    1  0.8039394E-009  0.1437841E+03  0.7561462E-02  0.1103405E+00
         22   -1    0    0    0    0  0.00000000000E+00  0.00000000000E+00  0.11008319360E+03  0.11008319360E+03  0.00000000000E+00 0. -1.
         22   -1    0    0    0    0 -0.00000000000E+00 -0.00000000000E+00 -0.12674403387E+04  0.12674403387E+04  0.00000000000E+00 0. -1.
        -24    2    1    2    0    0  0.26809478802E+01 -0.72444372376E+02 -0.10958374251E+04  0.11013066360E+04  0.82226939233E+02 0.  0.
         25    2    1    2    0    0 -0.64652357322E+01  0.52347212814E+02 -0.11473523660E+03  0.17774409680E+03  0.12508700759E+03 0.  0.
         24    2    1    2    0    0  0.37842878520E+01  0.20097159562E+02  0.53215516648E+02  0.98472799518E+02  0.80291869923E+02 0.  0.
        -11    1    5    5    0    0 -0.17652646341E+02 -0.12980627302E+02 -0.99126291331E+01  0.24049383034E+02  0.00000000000E+00 0.  1.
         12    1    5    5    0    0  0.21436934193E+02  0.33077786864E+02  0.63128145781E+02  0.74423416484E+02  0.00000000000E+00 0. -1.
         11    1    3    3    0    0  0.27146890030E+02  0.37004399455E+01 -0.38773781524E+03  0.38870459254E+03  0.00000000000E+00 0. -1.
        -12    1    3    3    0    0 -0.24465942150E+02 -0.76144812322E+02 -0.70809960989E+03  0.71260204343E+03  0.00000000000E+00 0.  1.
          5    1    4    4  501    0  0.33036423357E+02  0.44414344050E+02 -0.12429236220E+03  0.13612532066E+03  0.41800000000E+01 0.  1.
         -5    1    4    4    0  501 -0.39501659089E+02  0.79328687646E+01  0.95571255942E+01  0.41618776139E+02  0.41800000000E+01 0.  1.
</event>
<event>
11    1  0.8039394E-009  0.1289974E+03  0.7561462E-02  0.1120507E+00
         22   -1    0    0    0    0  0.00000000000E+00  0.00000000000E+00  0.40089195800E+03  0.40089195800E+03  0.00000000000E+00 0. -1.
         22   -1    0    0    0    0 -0.00000000000E+00 -0.00000000000E+00 -0.14997515307E+03  0.14997515307E+03  0.00000000000E+00 0.  1.
         24    2    1    2    0    0 -0.61723117305E+01 -0.22678791938E+02 -0.99339170067E+02  0.13018519195E+03  0.80792873805E+02 0.  0.
         25    2    1    2    0    0 -0.17657382739E+02 -0.51350421509E+01  0.12404155072E+03  0.17712410880E+03  0.12509393186E+03 0.  0.
        -24    2    1    2    0    0  0.23829694469E+02  0.27813834089E+02  0.22621442427E+03  0.24355781032E+03  0.82498348561E+02 0.  0.
        -11    1    3    3    0    0  0.11133917472E+01 -0.51180209899E+02 -0.80009325534E+02  0.94984976175E+02  0.00000000000E+00 0.  1.
         12    1    3    3    0    0 -0.72857034777E+01  0.28501417961E+02 -0.19329844533E+02  0.35200215775E+02  0.00000000000E+00 0. -1.
         11    1    5    5    0    0  0.29608608282E+02 -0.22926738019E+02  0.72797356081E+02  0.81864278247E+02  0.00000000000E+00 0. -1.
        -12    1    5    5    0    0 -0.57789138132E+01  0.50740572108E+02  0.15341706819E+03  0.16169353207E+03  0.00000000000E+00 0.  1.
          5    1    4    4  501    0 -0.58724442281E+02  0.13854307608E+02  0.20181023140E+02  0.63759297796E+02  0.41800000000E+01 0.  1.
         -5    1    4    4    0  501  0.41067059542E+02 -0.18989349759E+02  0.10386052758E+03  0.11336481100E+03  0.41800000000E+01 0.  1.
</event>
<event>
11    1  0.8039394E-009  0.1803326E+03  0.7561462E-02  0.1069374E+00
         22   -1    0    0    0    0  0.00000000000E+00  0.00000000000E+00  0.20735404487E+04  0.20735404487E+04  0.00000000000E+00 0.  1.
         22   -1    0    0    0    0 -0.00000000000E+00 -0.00000000000E+00 -0.11969122187E+03  0.11969122187E+03  0.00000000000E+00 0.  1.
         24    2    1    2    0    0 -0.12684889666E+03 -0.24351702127E+02 -0.43382621654E+02  0.15896857434E+03  0.81885943769E+02 0.  0.
         25    2    1    2    0    0  0.13741000125E+03  0.53514110227E+01  0.47999461397E+03  0.51473629867E+03  0.12509389149E+03 0.  0.
        -24    2    1    2    0    0 -0.10561104593E+02  0.19000291104E+02  0.15172372345E+04  0.15195267975E+04  0.80500401828E+02 0.  0.
        -11    1    3    3    0    0 -0.10023369769E+03 -0.21919246248E+02 -0.67626634525E+02  0.12288453607E+03  0.00000000000E+00 0.  1.
         12    1    3    3    0    0 -0.26615198967E+02 -0.24324558794E+01  0.24244012871E+02  0.36084038269E+02  0.00000000000E+00 0. -1.
         13    1    5    5    0    0 -0.30216374533E+02 -0.12094013880E+01  0.22983320894E+03  0.23181414080E+03  0.00000000000E+00 0. -1.
        -14    1    5    5    0    0  0.19655269940E+02  0.20209692492E+02  0.12874040256E+04  0.12877126567E+04  0.00000000000E+00 0.  1.
          5    1    4    4  501    0  0.10341837581E+03  0.60535487517E+02  0.33659737644E+03  0.35731662700E+03  0.41800000000E+01 0. -1.
         -5    1    4    4    0  501  0.33991625439E+02 -0.55184076494E+02  0.14339723754E+03  0.15741967168E+03  0.41800000000E+01 0. -1.
</event>
<event>
11    1  0.8039394E-009  0.2257872E+03  0.7561462E-02  0.1037652E+00
         22   -1    0    0    0    0  0.00000000000E+00  0.00000000000E+00  0.34757789417E+03  0.34757789417E+03  0.00000000000E+00 0. -1.
         22   -1    0    0    0    0 -0.00000000000E+00 -0.00000000000E+00 -0.29614950565E+04  0.29614950565E+04  0.00000000000E+00 0.  1.
        -24    2    1    2    0    0 -0.18250646941E+03  0.42234548324E+02 -0.28471939158E+04  0.28546064723E+04  0.84690901312E+02 0.  0.
         25    2    1    2    0    0  0.21759497886E+03 -0.14488866285E+02  0.59295585188E+02  0.25830456350E+03  0.12509108295E+03 0.  0.
         24    2    1    2    0    0 -0.35088509447E+02 -0.27745682039E+02  0.17398116827E+03  0.19616191494E+03  0.78797357768E+02 0.  0.
        -13    1    5    5    0    0 -0.14988505054E+02 -0.53942404639E+02  0.12642241259E+03  0.13826447377E+03  0.00000000000E+00 0.  1.
         14    1    5    5    0    0 -0.20100004393E+02  0.26196722600E+02  0.47558755685E+02  0.57897441169E+02  0.00000000000E+00 0. -1.
         11    1    3    3    0    0 -0.47281040555E+02 -0.26793802155E+01 -0.32974201831E+03  0.33312531353E+03  0.00000000000E+00 0. -1.
        -12    1    3    3    0    0 -0.13522542886E+03  0.44913928539E+02 -0.25174518975E+04  0.25214811587E+04  0.00000000000E+00 0.  1.
          5    1    4    4  501    0  0.14358090300E+03 -0.67424587885E+02  0.23399385054E+02  0.16039499487E+03  0.41800000000E+01 0.  1.
         -5    1    4    4    0  501  0.74014075861E+02  0.52935721600E+02  0.35896200135E+02  0.97909568638E+02  0.41800000000E+01 0.  1.
</event>
<event>
11    1  0.8039394E-009  0.2188068E+03  0.7561462E-02  0.1041967E+00
         22   -1    0    0    0    0  0.00000000000E+00  0.00000000000E+00  0.76249290839E+03  0.76249290839E+03  0.00000000000E+00 0. -1.
         22   -1    0    0    0    0 -0.00000000000E+00 -0.00000000000E+00 -0.15265638186E+04  0.15265638186E+04  0.00000000000E+00 0. -1.
         24    2    1    2    0    0  0.38177328897E+01 -0.14850693548E+03 -0.14299542199E+04  0.14398676339E+04  0.79880203812E+02 0.  0.
         25    2    1    2    0    0  0.50376768248E+02  0.29073700171E+03  0.27497941252E+03  0.42228217169E+03  0.12507090899E+03 0.  0.
        -24    2    1    2    0    0 -0.54194501138E+02 -0.14223006623E+03  0.39090389724E+03  0.42690692141E+03  0.79228952903E+02 0.  0.
        -11    1    3    3    0    0 -0.18910447452E+01 -0.41375053421E+02 -0.15602171744E+03  0.16142567147E+03  0.00000000000E+00 0.  1.
         12    1    3    3    0    0  0.57087776350E+01 -0.10713188206E+03 -0.12739325025E+04  0.12784419624E+04  0.00000000000E+00 0. -1.
         11    1    5    5    0    0 -0.46147408211E+02 -0.24241183992E+02  0.97378244552E+02  0.11045243681E+03  0.00000000000E+00 0. -1.
        -12    1    5    5    0    0 -0.80470929266E+01 -0.11798888224E+03  0.29352565269E+03  0.31645448460E+03  0.00000000000E+00 0.  1.
          5    1    4    4  501    0 -0.20413381303E+02  0.18048169567E+03  0.11321377170E+03  0.21406816464E+03  0.41800000000E+01 0. -1.
         -5    1    4    4    0  501  0.70790149551E+02  0.11025530604E+03  0.16176564082E+03  0.20821400705E+03  0.41800000000E+01 0. -1.
</event>
<event>
11    1  0.8039394E-009  0.1303044E+03  0.7561462E-02  0.1118895E+00
         22   -1    0    0    0    0  0.00000000000E+00  0.00000000000E+00  0.18044058131E+04  0.18044058131E+04  0.00000000000E+00 0. -1.
         22   -1    0    0    0    0 -0.00000000000E+00 -0.00000000000E+00 -0.23932922226E+03  0.23932922226E+03  0.00000000000E+00 0. -1.
         24    2    1    2    0    0 -0.52691705566E+00 -0.38139921728E+02 -0.21289993912E+03  0.23804312520E+03  0.99414355619E+02 0.  0.
         25    2    1    2    0    0 -0.23237078553E+02 -0.67027498227E+01  0.32178207861E+03  0.34608457274E+03  0.12508371876E+03 0.  0.
        -24    2    1    2    0    0  0.23763995609E+02  0.44842671551E+02  0.14561944514E+04  0.14596073375E+04  0.85881934102E+02 0.  0.
        -11    1    3    3    0    0  0.23775001898E+02  0.25715548825E+02 -0.46907127119E+02  0.58539036045E+02  0.00000000000E+00 0.  1.
         12    1    3    3    0    0 -0.24301918954E+02 -0.63855470553E+02 -0.16599281201E+03  0.17950408915E+03  0.00000000000E+00 0. -1.
         11    1    5    5    0    0 -0.17432782164E+01 -0.28165820103E+01  0.10291413678E+04  0.10291466985E+04  0.00000000000E+00 0. -1.
        -12    1    5    5    0    0  0.25507273825E+02  0.47659253561E+02  0.42705308364E+03  0.43046063899E+03  0.00000000000E+00 0.  1.
          5    1    4    4  501    0 -0.43503723794E+02 -0.55437382063E+02  0.14062834230E+03  0.15735209046E+03  0.41800000000E+01 0. -1.
         -5    1    4    4    0  501  0.20266645241E+02  0.48734632240E+02  0.18115373632E+03  0.18873248229E+03  0.41800000000E+01 0. -1.
</event>
<event>
11    1  0.8039394E-009  0.2070683E+03  0.7561462E-02  0.1049635E+00
         22   -1    0    0    0    0  0.00000000000E+00  0.00000000000E+00  0.28814065701E+03  0.28814065701E+03  0.00000000000E+00 0. -1.
         22   -1    0    0    0    0 -0.00000000000E+00 -0.00000000000E+00 -0.10143687952E+04  0.10143687952E+04  0.00000000000E+00 0. -1.
        -24    2    1    2    0    0 -0.27486020067E+02 -0.70756515011E+02 -0.75018618163E+03  0.75846970911E+03  0.82067209115E+02 0.  0.
         25    2    1    2    0    0  0.10394734956E+03 -0.83294766360E+02 -0.18635196010E+03  0.26099352224E+03  0.12508995177E+03 0.  0.
         24    2    1    2    0    0 -0.76461329495E+02  0.15405128137E+03  0.21031000358E+03  0.28304622082E+03  0.79414943914E+02 0.  0.
        -11    1    5    5    0    0 -0.28759269542E+02  0.34737298660E+02  0.11359630748E+03  0.12222068800E+03  0.00000000000E+00 0.  1.
         12    1    5    5    0    0 -0.47702059952E+02  0.11931398271E+03  0.96713696100E+02  0.16082553282E+03  0.00000000000E+00 0. -1.
         11    1    3    3    0    0 -0.13793358304E+02 -0.37648949796E+02 -0.66297178292E+03  0.66418317135E+03  0.00000000000E+00 0. -1.
        -12    1    3    3    0    0 -0.13692661762E+02 -0.33107565215E+02 -0.87214398710E+02  0.94286537761E+02  0.00000000000E+00 0.  1.
          5    1    4    4  501    0  0.76759956224E+02 -0.48588278724E+02 -0.19564100633E+03  0.21574472755E+03  0.41800000000E+01 0.  1.
         -5    1    4    4    0  501  0.27187393337E+02 -0.34706487637E+02  0.92890462317E+01  0.45248794685E+02  0.41800000000E+01 0.  1.
</event>
<event>
11    1  0.8039394E-009  0.1471553E+03  0.7561462E-02  0.1099821E+00
         22   -1    0    0    0    0  0.00000000000E+00  0.00000000000E+00  0.74483709525E+03  0.74483709525E+03  0.00000000000E+00 0. -1.
         22   -1    0    0    0    0 -0.00000000000E+00 -0.00000000000E+00 -0.12751664226E+03  0.12751664226E+03  0.00000000000E+00 0.  1.
        -24    2    1    2    0    0  0.22079135257E+02  0.12197101509E+02 -0.73899176685E+02  0.11038113397E+03  0.78016978423E+02 0.  0.
         25    2    1    2    0    0 -0.69822596296E+01  0.67085411223E+02  0.15100688776E+03  0.20735576954E+03  0.12507649924E+03 0.  0.
         24    2    1    2    0    0 -0.15096875627E+02 -0.79282512732E+02  0.54021274192E+03  0.55461683401E+03  0.96210153067E+02 0.  0.
        -11    1    5    5    0    0 -0.10981945560E+02  0.47876494339E+01  0.52622110380E+01  0.13084937157E+02  0.00000000000E+00 0.  1.
         12    1    5    5    0    0 -0.41149300674E+01 -0.84070162166E+02  0.53495053088E+03  0.54153189685E+03  0.00000000000E+00 0. -1.
         13    1    3    3    0    0 -0.60368756995E+01  0.40163780933E+02 -0.26122181409E+02  0.48290180458E+02  0.00000000000E+00 0. -1.
        -14    1    3    3    0    0  0.28116010957E+02 -0.27966679425E+02 -0.47776995276E+02  0.62090953510E+02  0.00000000000E+00 0.  1.
          5    1    4    4  501    0  0.51370761562E+02  0.65221088516E+02  0.80471571121E+02  0.11569741436E+03  0.41800000000E+01 0. -1.
         -5    1    4    4    0  501 -0.58353021192E+02  0.18643227072E+01  0.70535316637E+02  0.91658355181E+02  0.41800000000E+01 0. -1.
</event>
<event>
11    1  0.8039394E-009  0.1368946E+03  0.7561462E-02  0.1111076E+00
         22   -1    0    0    0    0  0.00000000000E+00  0.00000000000E+00  0.10587155594E+04  0.10587155594E+04  0.00000000000E+00 0. -1.
         22   -1    0    0    0    0 -0.00000000000E+00 -0.00000000000E+00 -0.11160632498E+03  0.11160632498E+03  0.00000000000E+00 0.  1.
        -24    2    1    2    0    0  0.16110421253E+02 -0.50605731638E+00 -0.50235486324E+02  0.96945681423E+02  0.81333014781E+02 0.  0.
         25    2    1    2    0    0 -0.24266938158E+02  0.55296397989E+02  0.10119176326E+03  0.17185519589E+03  0.12509140452E+03 0.  0.
         24    2    1    2    0    0  0.81565169058E+01 -0.54790340673E+02  0.89615295750E+03  0.90152100709E+03  0.81126400074E+02 0.  0.
        -11    1    5    5    0    0  0.41354821927E+02 -0.49200569058E+02  0.55400094132E+03  0.55771673839E+03  0.00000000000E+00 0.  1.
         12    1    5    5    0    0 -0.33198305021E+02 -0.55897716147E+01  0.34215201617E+03  0.34380426870E+03  0.00000000000E+00 0. -1.
         11    1    3    3    0    0  0.45022233339E+02  0.93496046723E+01 -0.11104963740E+02  0.47304723041E+02  0.00000000000E+00 0. -1.
        -12    1    3    3    0    0 -0.28911812087E+02 -0.98556619887E+01 -0.39130522583E+02  0.49640958381E+02  0.00000000000E+00 0.  1.
          5    1    4    4  501    0  0.83522839896E+01  0.88473247837E+02  0.48090440420E+02  0.10113080189E+03  0.41800000000E+01 0.  1.
         -5    1    4    4    0  501 -0.32619222148E+02 -0.33176849848E+02  0.53101322838E+02  0.70724393998E+02  0.41800000000E+01 0.  1.
</event>
<event>
11    1  0.8039394E-009  0.2683014E+03  0.7561462E-02  0.1014578E+00
         22   -1    0    0    0    0  0.00000000000E+00  0.00000000000E+00  0.48312413744E+03  0.48312413744E+03  0.00000000000E+00 0. -1.
         22   -1    0    0    0    0 -0.00000000000E+00 -0.00000000000E+00 -0.21087993993E+03  0.21087993993E+03  0.00000000000E+00 0. -1.
        -24    2    1    2    0    0  0.11864938478E+03  0.19974880183E+03  0.66561559095E+01  0.24754268177E+03  0.85181069196E+02 0.  0.
         25    2    1    2    0    0 -0.12925091314E+03 -0.21006551166E+03  0.15276792850E+03  0.31594112908E+03  0.12508972511E+03 0.  0.
         24    2    1    2    0    0  0.10601528368E+02  0.10316709832E+02  0.11282011310E+03  0.13052026652E+03  0.63940090294E+02 0.  0.
        -13    1    5    5    0    0  0.31773324300E+02 -0.12711456398E+02  0.54900491015E+02  0.64693038069E+02  0.00000000000E+00 0.  1.
         14    1    5    5    0    0 -0.21171795933E+02  0.23028166231E+02  0.57919622086E+02  0.65827228451E+02  0.00000000000E+00 0. -1.
         11    1    3    3    0    0  0.87690172851E+02  0.18727879235E+03  0.26857875899E+02  0.20852879412E+03  0.00000000000E+00 0. -1.
        -12    1    3    3    0    0  0.30959211926E+02  0.12470009476E+02 -0.20201719990E+02  0.39013887655E+02  0.00000000000E+00 0.  1.
          5    1    4    4  501    0 -0.12961371595E+03 -0.22080723252E+03  0.16035508727E+03  0.30213701480E+03  0.41800000000E+01 0.  1.
         -5    1    4    4    0  501  0.36280280309E+00  0.10741720864E+02 -0.75871587675E+01  0.13804114284E+02  0.41800000000E+01 0.  1.
</event>
<event>
11    1  0.8039394E-009  0.1396852E+03  0.7561462E-02  0.1107910E+00
         22   -1    0    0    0    0  0.00000000000E+00  0.00000000000E+00  0.87774304724E+03  0.87774304724E+03  0.00000000000E+00 0.  1.
         22   -1    0    0    0    0 -0.00000000000E+00 -0.00000000000E+00 -0.16196254773E+04  0.16196254773E+04  0.00000000000E+00 0.  1.
         24    2    1    2    0    0 -0.42777307067E+02 -0.28055516159E+02 -0.14436890556E+04  0.14468760547E+04  0.81210951706E+02 0.  0.
         25    2    1    2    0    0  0.71700092115E+02 -0.27063151680E+02 -0.13991061873E+03  0.20272054427E+03  0.12508924992E+03 0.  0.
        -24    2    1    2    0    0 -0.28922785048E+02  0.55118667839E+02  0.84171724421E+03  0.84777192555E+03  0.79716519668E+02 0.  0.
        -11    1    3    3    0    0 -0.44926156335E+02 -0.13454664738E+02 -0.13995420056E+04  0.14003275377E+04  0.00000000000E+00 0.  1.
         12    1    3    3    0    0  0.21488492674E+01 -0.14600851421E+02 -0.44147049995E+02  0.46548517041E+02  0.00000000000E+00 0. -1.
         11    1    5    5    0    0  0.24050990126E+01  0.32173808824E+02  0.10079399881E+03  0.10583179424E+03  0.00000000000E+00 0. -1.
        -12    1    5    5    0    0 -0.31327884061E+02  0.22944859015E+02  0.74092324539E+03  0.74194013130E+03  0.00000000000E+00 0.  1.
          5    1    4    4  501    0  0.88619297081E+02 -0.60740688006E+02 -0.91187059494E+02  0.14098000998E+03  0.41800000000E+01 0.  1.
         -5    1    4    4    0  501 -0.16919204965E+02  0.33677536326E+02 -0.48723559235E+02  0.61740534288E+02  0.41800000000E+01 0.  1.
</event>
<event>
11    1  0.8039394E-009  0.1644304E+03  0.7561462E-02  0.1082983E+00
         22   -1    0    0    0    0  0.00000000000E+00  0.00000000000E+00  0.71462600899E+03  0.71462600899E+03  0.00000000000E+00 0. -1.
         22   -1    0    0    0    0 -0.00000000000E+00 -0.00000000000E+00 -0.11583729114E+04  0.11583729114E+04  0.00000000000E+00 0. -1.
        -24    2    1    2    0    0  0.13125793312E+02  0.14280531913E+02 -0.67813592058E+03  0.68318040393E+03  0.80566230429E+02 0.  0.
         25    2    1    2    0    0 -0.11649032236E+03  0.11783807289E+02 -0.45521716441E+03  0.48639155266E+03  0.12508086350E+03 0.  0.
         24    2    1    2    0    0  0.10336452905E+03 -0.26064339202E+02  0.68960618258E+03  0.70342696379E+03  0.88821341416E+02 0.  0.
        -13    1    5    5    0    0  0.32918946246E+02 -0.53753450270E+02  0.30605569305E+03  0.31247908359E+03  0.00000000000E+00 0.  1.
         14    1    5    5    0    0  0.70445582802E+02  0.27689111068E+02  0.38355048953E+03  0.39094788020E+03  0.00000000000E+00 0. -1.
         11    1    3    3    0    0 -0.24417868205E+02  0.27321751175E+02 -0.45970843576E+03  0.46116651687E+03  0.00000000000E+00 0. -1.
        -12    1    3    3    0    0  0.37543661517E+02 -0.13041219262E+02 -0.21842748482E+03  0.22201388705E+03  0.00000000000E+00 0.  1.
          5    1    4    4  501    0  0.35098642115E+01 -0.12501563201E+02 -0.22669193912E+03  0.22710199446E+03  0.41800000000E+01 0. -1.
         -5    1    4    4    0  501 -0.12000018657E+03  0.24285370489E+02 -0.22852522529E+03  0.25928955820E+03  0.41800000000E+01 0. -1.
</event>
<event>
11    1  0.8039394E-009  0.2140359E+03  0.7561462E-02  0.1045019E+00
         22   -1    0    0    0    0  0.00000000000E+00  0.00000000000E+00  0.78276804951E+03  0.78276804951E+03  0.00000000000E+00 0.  1.
         22   -1    0    0    0    0 -0.00000000000E+00 -0.00000000000E+00 -0.97153102294E+03  0.97153102294E+03  0.00000000000E+00 0. -1.
        -24    2    1    2    0    0 -0.13062469716E+03  0.12731727651E+02 -0.88084115974E+03  0.89418412463E+03  0.80369096351E+02 0.  0.
         25    2    1    2    0    0  0.24835174285E+03  0.87546011813E+02  0.24783279794E+03  0.38263277265E+03  0.12507537971E+03 0.  0.
         24    2    1    2    0    0 -0.11772704569E+03 -0.10027773946E+03  0.44424538837E+03  0.47748217518E+03  0.81975485403E+02 0.  0.
        -13    1    5    5    0    0 -0.70950352945E+02 -0.67503941624E+02  0.37572818341E+03  0.38828134455E+03  0.00000000000E+00 0.  1.
         14    1    5    5    0    0 -0.46776692745E+02 -0.32773797839E+02  0.68517204953E+02  0.89200830622E+02  0.00000000000E+00 0. -1.
         13    1    3    3    0    0 -0.94018039595E+02  0.18940439589E+01 -0.79096856985E+03  0.79653892414E+03  0.00000000000E+00 0. -1.
        -14    1    3    3    0    0 -0.36606657563E+02  0.10837683692E+02 -0.89872589889E+02  0.97645200492E+02  0.00000000000E+00 0.  1.
          5    1    4    4  501    0  0.23874016236E+03  0.50768294041E+02  0.24237709508E+03  0.34400350787E+03  0.41800000000E+01 0. -1.
         -5    1    4    4    0  501  0.96115804868E+01  0.36777717772E+02  0.54557028618E+01  0.38629264783E+02  0.41800000000E+01 0. -1.
</event>
<event>
11    1  0.8039394E-009  0.1326615E+03  0.7561462E-02  0.1116041E+00
         22   -1    0    0    0    0  0.00000000000E+00  0.00000000000E+00  0.75975542653E+03  0.75975542653E+03  0.00000000000E+00 0. -1.
         22   -1    0    0    0    0 -0.00000000000E+00 -0.00000000000E+00 -0.15564157424E+04  0.15564157424E+04  0.00000000000E+00 0.  1.
         24    2    1    2    0    0 -0.14023289187E+02  0.41859957801E+02 -0.15238931728E+04  0.15266947705E+04  0.81225682120E+02 0.  0.
         25    2    1    2    0    0  0.32234177449E+01 -0.50122772508E+02  0.13232658308E+03  0.18889099487E+03  0.12508717203E+03 0.  0.
        -24    2    1    2    0    0  0.10799871442E+02  0.82628147066E+01  0.59490627386E+03  0.60058540356E+03  0.81267711661E+02 0.  0.
        -13    1    3    3    0    0 -0.22228436592E+02  0.20310396493E+02 -0.17272184813E+03  0.17532670196E+03  0.00000000000E+00 0.  1.
         14    1    3    3    0    0  0.82051474053E+01  0.21549561309E+02 -0.13511713247E+04  0.13513680685E+04  0.00000000000E+00 0. -1.
         11    1    5    5    0    0  0.57399463071E+01  0.38834924740E+02  0.47907398287E+03  0.48067970565E+03  0.00000000000E+00 0. -1.
        -12    1    5    5    0    0  0.50599251346E+01 -0.30572110033E+02  0.11583229100E+03  0.11990569791E+03  0.00000000000E+00 0.  1.
          5    1    4    4  501    0 -0.10680844259E+00  0.20542429160E+01  0.13621723728E+03  0.13629687984E+03  0.41800000000E+01 0. -1.
         -5    1    4    4    0  501  0.33302261875E+01 -0.52177015424E+02 -0.38906542053E+01  0.52594115024E+02  0.41800000000E+01 0. -1.
</event>
<event>
11    1  0.8039394E-009  0.1537478E+03  0.7561462E-02  0.1093110E+00
         22   -1    0    0    0    0  0.00000000000E+00  0.00000000000E+00  0.28811113773E+03  0.28811113773E+03  0.00000000000E+00 0.  1.
         22   -1    0    0    0    0 -0.00000000000E+00 -0.00000000000E+00 -0.11842816816E+04  0.11842816816E+04  0.00000000000E+00 0. -1.
         24    2    1    2    0    0 -0.93047193501E+02  0.31935080382E+02 -0.89511036147E+03  0.90426576373E+03  0.82440176353E+02 0.  0.
         25    2    1    2    0    0  0.20068270780E+02 -0.78464713886E+02 -0.24994332097E+03  0.29099381333E+03  0.12508512656E+03 0.  0.
        -24    2    1    2    0    0  0.72978922721E+02  0.46529633503E+02  0.24888313858E+03  0.27713324226E+03  0.85843388458E+02 0.  0.
        -13    1    3    3    0    0 -0.45118730554E+02 -0.12985955937E+02 -0.17577516858E+03  0.18193747494E+03  0.00000000000E+00 0.  1.
         14    1    3    3    0    0 -0.47928462947E+02  0.44921036319E+02 -0.71933519289E+03  0.72232828880E+03  0.00000000000E+00 0. -1.
         11    1    5    5    0    0 -0.15399747044E+02 -0.35818580566E+01  0.66580174812E+02  0.68431729440E+02  0.00000000000E+00 0. -1.
        -12    1    5    5    0    0  0.88378669764E+02  0.50111491560E+02  0.18230296376E+03  0.20870151282E+03  0.00000000000E+00 0.  1.
          5    1    4    4  501    0 -0.15946278168E+02 -0.65374288927E+02 -0.24254751937E+03  0.25174362553E+03  0.41800000000E+01 0.  1.
         -5    1    4    4    0  501  0.36014548948E+02 -0.13090424958E+02 -0.73958015912E+01  0.39250187805E+02  0.41800000000E+01 0.  1.
</event>
<event>
11    1  0.8039394E-009  0.4475933E+03  0.7561462E-02  0.9518910E-01
         22   -1    0    0    0    0  0.00000000000E+00  0.00000000000E+00  0.20796324405E+03  0.20796324405E+03  0.00000000000E+00 0. -1.
         22   -1    0    0    0    0 -0.00000000000E+00 -0.00000000000E+00 -0.12587821274E+04  0.12587821274E+04  0.00000000000E+00 0. -1.
         24    2    1    2    0    0 -0.18993248244E+02  0.50029226888E+02 -0.26477002471E+03  0.28140515352E+03  0.78879828979E+02 0.  0.
         25    2    1    2    0    0  0.82902444256E+01  0.40368754926E+03 -0.42663522926E+03  0.60058056145E+03  0.12508807445E+03 0.  0.
        -24    2    1    2    0    0  0.10703003818E+02 -0.45371677615E+03 -0.35941362937E+03  0.58475965646E+03  0.82414996193E+02 0.  0.
        -11    1    3    3    0    0 -0.42034218508E+02  0.30172762930E+01 -0.99992780034E+02  0.10851053193E+03  0.00000000000E+00 0.  1.
         12    1    3    3    0    0  0.23040970265E+02  0.47011950595E+02 -0.16477724467E+03  0.17289462158E+03  0.00000000000E+00 0. -1.
         13    1    5    5    0    0  0.25129547560E+01 -0.43633601521E+03 -0.32063320342E+03  0.54148045602E+03  0.00000000000E+00 0. -1.
        -14    1    5    5    0    0  0.81900490619E+01 -0.17380760936E+02 -0.38780425942E+02  0.43279200439E+02  0.00000000000E+00 0.  1.
          5    1    4    4  501    0  0.65238502132E+02  0.25980519490E+03 -0.27137943462E+03  0.38133852597E+03  0.41800000000E+01 0. -1.
         -5    1    4    4    0  501 -0.56948257706E+02  0.14388235436E+03 -0.15525579464E+03  0.21924203548E+03  0.41800000000E+01 0. -1.
</event>
<event>
11    1  0.8039394E-009  0.1991802E+03  0.7561462E-02  0.1055105E+00
         22   -1    0    0    0    0  0.00000000000E+00  0.00000000000E+00  0.61609584822E+03  0.61609584822E+03  0.00000000000E+00 0. -1.
         22   -1    0    0    0    0 -0.00000000000E+00 -0.00000000000E+00 -0.32879912411E+03  0.32879912411E+03  0.00000000000E+00 0.  1.
        -24    2    1    2    0    0  0.27410481230E+02  0.32932597655E+02 -0.24556126115E+03  0.26429155591E+03  0.87828258989E+02 0.  0.
         25    2    1    2    0    0 -0.17187328946E+03  0.93050470289E+01  0.14731271687E+03  0.25879678276E+03  0.12509087372E+03 0.  0.
         24    2    1    2    0    0  0.14446280823E+03 -0.42237644684E+02  0.38554526840E+03  0.42180663366E+03  0.81376658945E+02 0.  0.
        -11    1    5    5    0    0  0.18321634128E+02  0.54279120995E+01  0.76678672290E+01  0.20589820172E+02  0.00000000000E+00 0.  1.
         12    1    5    5    0    0  0.12614117410E+03 -0.47665556783E+02  0.37787740117E+03  0.40121681348E+03  0.00000000000E+00 0. -1.
         11    1    3    3    0    0 -0.99979523878E+01  0.39283258715E+02 -0.46682165678E+02  0.61825221873E+02  0.00000000000E+00 0. -1.
        -12    1    3    3    0    0  0.37408433618E+02 -0.63506610606E+01 -0.19887909548E+03  0.20246633404E+03  0.00000000000E+00 0.  1.
          5    1    4    4  501    0 -0.19301058813E+02 -0.18975881385E+02  0.88766491998E+02  0.92895518983E+02  0.41800000000E+01 0.  1.
         -5    1    4    4    0  501 -0.15257223065E+03  0.28280928414E+02  0.58546224868E+02  0.16590126378E+03  0.41800000000E+01 0.  1.
</event>
<event>
11    1  0.8039394E-009  0.1433796E+03  0.7561462E-02  0.1103842E+00
         22   -1    0    0    0    0  0.00000000000E+00  0.00000000000E+00  0.15194584501E+03  0.15194584501E+03  0.00000000000E+00 0.  1.
         22   -1    0    0    0    0 -0.00000000000E+00 -0.00000000000E+00 -0.25754263963E+04  0.25754263963E+04  0.00000000000E+00 0. -1.
        -24    2    1    2    0    0 -0.27095530719E+02  0.19427313007E+02 -0.19350729726E+04  0.19370045594E+04  0.79797653660E+02 0.  0.
         25    2    1    2    0    0 -0.76513773103E+01 -0.80141990076E+02 -0.61034272267E+03  0.62820978453E+03  0.12509201460E+03 0.  0.
         24    2    1    2    0    0  0.34746908029E+02  0.60714677069E+02  0.12193514397E+03  0.16215789739E+03  0.80829355564E+02 0.  0.
        -13    1    5    5    0    0  0.49384710517E+01  0.63280024817E+02  0.11514183498E+03  0.13147772511E+03  0.00000000000E+00 0.  1.
         14    1    5    5    0    0  0.29808436977E+02 -0.25653477480E+01  0.67933089933E+01  0.30680172281E+02  0.00000000000E+00 0. -1.
         13    1    3    3    0    0 -0.38878897961E+02  0.17637673067E+02 -0.18867683060E+04  0.18872512543E+04  0.00000000000E+00 0. -1.
        -14    1    3    3    0    0  0.11783367242E+02  0.17896399409E+01 -0.48304666528E+02  0.49753305047E+02  0.00000000000E+00 0.  1.
          5    1    4    4  501    0  0.38142936194E+02 -0.24932281119E+02 -0.73505134083E+02  0.86585098948E+02  0.41800000000E+01 0.  1.
         -5    1    4    4    0  501 -0.45794313504E+02 -0.55209708958E+02 -0.53683758859E+03  0.54162468559E+03  0.41800000000E+01 0.  1.
</event>
<event>
11    1  0.8039394E-009  0.1474320E+03  0.7561462E-02  0.1099532E+00
         22   -1    0    0    0    0  0.00000000000E+00  0.00000000000E+00  0.12846398476E+04  0.12846398476E+04  0.00000000000E+00 0. -1.
         22   -1    0    0    0    0 -0.00000000000E+00 -0.00000000000E+00 -0.18402827258E+03  0.18402827258E+03  0.00000000000E+00 0.  1.
        -24    2    1    2    0    0 -0.46609694438E+02  0.63273163920E+02 -0.13886905219E+03  0.17866971125E+03  0.80388401989E+02 0.  0.
         25    2    1    2    0    0  0.14106274052E+02 -0.77946753477E+02  0.21092699716E+03  0.25769973374E+03  0.12507706142E+03 0.  0.
         24    2    1    2    0    0  0.32503420385E+02  0.14673589558E+02  0.10285536300E+04  0.10322986751E+04  0.80288220450E+02 0.  0.
        -13    1    5    5    0    0 -0.22992282832E+02  0.95755152749E+01  0.15682493858E+03  0.15879041824E+03  0.00000000000E+00 0.  1.
         14    1    5    5    0    0  0.55495703217E+02  0.50980742829E+01  0.87172869143E+03  0.87350825691E+03  0.00000000000E+00 0. -1.
         11    1    3    3    0    0  0.14875176768E+02  0.76464019532E+01  0.23771674946E+00  0.16727069557E+02  0.00000000000E+00 0. -1.
        -12    1    3    3    0    0 -0.61484871206E+02  0.55626761966E+02 -0.13910676894E+03  0.16194264169E+03  0.00000000000E+00 0.  1.
          5    1    4    4  501    0  0.50899910395E+02 -0.51921707104E+02  0.19748303081E+03  0.21048440418E+03  0.41800000000E+01 0. -1.
         -5    1    4    4    0  501 -0.36793636342E+02 -0.26025046373E+02  0.13443966353E+02  0.47215329558E+02  0.41800000000E+01 0. -1.
</event>
<event>
11    1  0.8039394E-009  0.2335577E+03  0.7561462E-02  0.1033042E+00
         22   -1    0    0    0    0  0.00000000000E+00  0.00000000000E+00  0.21939171367E+03  0.21939171367E+03  0.00000000000E+00 0. -1.
         22   -1    0    0    0    0 -0.00000000000E+00 -0.00000000000E+00 -0.23026811356E+04  0.23026811356E+04  0.00000000000E+00 0. -1.
         24    2    1    2    0    0 -0.55009194829E+02 -0.19047804859E+03 -0.19848221630E+04  0.19962904698E+04  0.79678871286E+02 0.  0.
         25    2    1    2    0    0 -0.85494150021E+01  0.19796528640E+03 -0.25012144108E+03  0.34274166838E+03  0.12509104219E+03 0.  0.
        -24    2    1    2    0    0  0.63558609831E+02 -0.74872378078E+01  0.15165418217E+03  0.18304071109E+03  0.80057200389E+02 0.  0.
        -13    1    3    3    0    0 -0.18245763442E+02 -0.31914639872E+02 -0.15750805112E+03  0.16174126960E+03  0.00000000000E+00 0.  1.
         14    1    3    3    0    0 -0.36763431388E+02 -0.15856340872E+03 -0.18273141119E+04  0.18345492002E+04  0.00000000000E+00 0. -1.
         13    1    5    5    0    0  0.10002416336E+01  0.11028557112E+02  0.97852457508E+02  0.98477068375E+02  0.00000000000E+00 0. -1.
        -14    1    5    5    0    0  0.62558368198E+02 -0.18515794920E+02  0.53801724657E+02  0.84563642715E+02  0.00000000000E+00 0.  1.
          5    1    4    4  501    0 -0.38824605109E+02  0.14312879292E+03 -0.23541474858E+03  0.27826386322E+03  0.41800000000E+01 0. -1.
         -5    1    4    4    0  501  0.30275190107E+02  0.54836493485E+02 -0.14706692498E+02  0.64477805158E+02  0.41800000000E+01 0. -1.
</event>
<event>
11    1  0.8039394E-009  0.6772693E+03  0.7561462E-02  0.9066489E-01
         22   -1    0    0    0    0  0.00000000000E+00  0.00000000000E+00  0.79936588786E+03  0.79936588786E+03  0.00000000000E+00 0. -1.
         22   -1    0    0    0    0 -0.00000000000E+00 -0.00000000000E+00 -0.16949206274E+04  0.16949206274E+04  0.00000000000E+00 0. -1.
        -24    2    1    2    0    0  0.50255510195E+02  0.18454652031E+03 -0.94797418670E+02  0.22799262334E+03  0.80069040511E+02 0.  0.
         25    2    1    2    0    0 -0.10486306003E+03 -0.82635877597E+03 -0.12279556090E+04  0.14890912922E+04  0.12511119454E+03 0.  0.
         24    2    1    2    0    0  0.54607549833E+02  0.64181225566E+03  0.42719828805E+03  0.77720259975E+03  0.81489555966E+02 0.  0.
        -13    1    5    5    0    0  0.31009793596E+02  0.12994008689E+03  0.12118504850E+03  0.18036587665E+03  0.00000000000E+00 0.  1.
         14    1    5    5    0    0  0.23597756236E+02  0.51187216877E+03  0.30601323955E+03  0.59683672310E+03  0.00000000000E+00 0. -1.
         13    1    3    3    0    0 -0.32934585220E+01  0.16507914430E+02 -0.39861537123E+02  0.43270084928E+02  0.00000000000E+00 0. -1.
        -14    1    3    3    0    0  0.53548968717E+02  0.16803860588E+03 -0.54935881547E+02  0.18472253842E+03  0.00000000000E+00 0.  1.
          5    1    4    4  501    0 -0.11350738002E+02 -0.45974391386E+03 -0.60053827465E+03  0.75641060100E+03  0.41800000000E+01 0.  1.
         -5    1    4    4    0  501 -0.93512322025E+02 -0.36661486211E+03 -0.62741733431E+03  0.73268069122E+03  0.41800000000E+01 0.  1.
</event>
<event>
11    1  0.8039394E-009  0.2194796E+03  0.7561462E-02  0.1041544E+00
         22   -1    0    0    0    0  0.00000000000E+00  0.00000000000E+00  0.71498995323E+03  0.71498995323E+03  0.00000000000E+00 0. -1.
         22   -1    0    0    0    0 -0.00000000000E+00 -0.00000000000E+00 -0.18278825999E+03  0.18278825999E+03  0.00000000000E+00 0.  1.
        -24    2    1    2    0    0 -0.61252217702E+02  0.16453731165E+03 -0.45052684566E+02  0.20765751288E+03  0.10132885655E+03 0.  0.
         25    2    1    2    0    0  0.13673813943E+03 -0.15795027434E+03  0.26663770667E+03  0.36109359956E+03  0.12508922051E+03 0.  0.
         24    2    1    2    0    0 -0.75485921724E+02 -0.65870373157E+01  0.31061667113E+03  0.32902710078E+03  0.77682708635E+02 0.  0.
        -11    1    5    5    0    0  0.79457253295E+01 -0.17998767040E+02  0.28652843960E+02  0.34757382424E+02  0.00000000000E+00 0.  1.
         12    1    5    5    0    0 -0.83431647053E+02  0.11411729725E+02  0.28196382717E+03  0.29426971835E+03  0.00000000000E+00 0. -1.
         13    1    3    3    0    0  0.22732339987E+02  0.56875443541E+02  0.67402953706E+01  0.61619858332E+02  0.00000000000E+00 0. -1.
        -14    1    3    3    0    0 -0.83984557689E+02  0.10766186811E+03 -0.51792979937E+02  0.14603765455E+03  0.00000000000E+00 0.  1.
          5    1    4    4  501    0  0.57306891411E+02 -0.76786305158E+02  0.21668085478E+03  0.23695628645E+03  0.41800000000E+01 0. -1.
         -5    1    4    4    0  501  0.79431248015E+02 -0.81163969180E+02  0.49956851893E+02  0.12413731311E+03  0.41800000000E+01 0. -1.
</event>
<event>
11    1  0.8039394E-009  0.1384489E+03  0.7561462E-02  0.1109303E+00
         22   -1    0    0    0    0  0.00000000000E+00  0.00000000000E+00  0.49348107066E+02  0.49348107066E+02  0.00000000000E+00 0. -1.
         22   -1    0    0    0    0 -0.00000000000E+00 -0.00000000000E+00 -0.26149414028E+04  0.26149414028E+04  0.00000000000E+00 0. -1.
         24    2    1    2    0    0 -0.58544604760E+02  0.41404037701E+01 -0.23152204118E+04  0.23176205355E+04  0.87605807148E+02 0.  0.
         25    2    1    2    0    0  0.71569406778E+02  0.49375998037E+01 -0.21644393828E+03  0.26008024895E+03  0.12508875888E+03 0.  0.
        -24    2    1    2    0    0 -0.13024802017E+02 -0.90780035738E+01 -0.33928945634E+02  0.86588725445E+02  0.78066499895E+02 0.  0.
        -13    1    3    3    0    0 -0.70736335309E+02  0.10508470440E+02 -0.10999198679E+04  0.11022421571E+04  0.00000000000E+00 0.  1.
         14    1    3    3    0    0  0.12191730548E+02 -0.63680666696E+01 -0.12153005439E+04  0.12153783784E+04  0.00000000000E+00 0. -1.
         13    1    5    5    0    0  0.21142960403E+02 -0.85737507286E+01  0.14709829157E+02  0.27146142452E+02  0.00000000000E+00 0. -1.
        -14    1    5    5    0    0 -0.34167762420E+02 -0.50425284523E+00 -0.48638774791E+02  0.59442582994E+02  0.00000000000E+00 0.  1.
          5    1    4    4  501    0  0.74464490305E+02 -0.49177373764E+02 -0.12376663010E+03  0.15264018321E+03  0.41800000000E+01 0. -1.
         -5    1    4    4    0  501 -0.28950835270E+01  0.54114973568E+02 -0.92677308189E+02  0.10744006574E+03  0.41800000000E+01 0. -1.
</event>
<event>
11    1  0.8039394E-009  0.2230584E+03  0.7561462E-02  0.1039318E+00
         22   -1    0    0    0    0  0.00000000000E+00  0.00000000000E+00  0.43824354377E+03  0.43824354377E+03  0.00000000000E+00 0. -1.
         22   -1    0    0    0    0 -0.00000000000E+00 -0.00000000000E+00 -0.17729507990E+04  0.17729507990E+04  0.00000000000E+00 0. -1.
         24    2    1    2    0    0  0.11564686937E+03  0.14590172473E+03 -0.16937457890E+04  0.17057939732E+04  0.79352186694E+02 0.  0.
         25    2    1    2    0    0 -0.88981004131E+02 -0.12018085901E+03  0.75159642932E+02  0.20894389221E+03  0.12509004835E+03 0.  0.
        -24    2    1    2    0    0 -0.26665865239E+02 -0.25720865725E+02  0.28387889084E+03  0.29645647737E+03  0.76984329601E+02 0.  0.
        -11    1    3    3    0    0  0.60793414856E+01  0.59497685637E+01 -0.12154609058E+02  0.14835520221E+02  0.00000000000E+00 0.  1.
         12    1    3    3    0    0  0.10956752788E+03  0.13995195617E+03 -0.16815911800E+04  0.16909584530E+04  0.00000000000E+00 0. -1.
         13    1    5    5    0    0  0.14212416540E+02 -0.32612025228E+02  0.19709488954E+03  0.20027963565E+03  0.00000000000E+00 0. -1.
        -14    1    5    5    0    0 -0.40878281779E+02  0.68911595022E+01  0.86784001300E+02  0.96176841714E+02  0.00000000000E+00 0.  1.
          5    1    4    4  501    0 -0.42775849140E+02  0.19050196513E+02  0.85742856560E+01  0.47787802119E+02  0.41800000000E+01 0. -1.
         -5    1    4    4    0  501 -0.46205154991E+02 -0.13923105552E+03  0.66585357276E+02  0.16115609009E+03  0.41800000000E+01 0. -1.
</event>
<event>
11    1  0.8039394E-009  0.1309264E+03  0.7561462E-02  0.1118136E+00
         22   -1    0    0    0    0  0.00000000000E+00  0.00000000000E+00  0.30971505306E+03  0.30971505306E+03  0.00000000000E+00 0.  1.
         22   -1    0    0    0    0 -0.00000000000E+00 -0.00000000000E+00 -0.16403790081E+04  0.16403790081E+04  0.00000000000E+00 0. -1.
         24    2    1    2    0    0  0.27220505578E+02 -0.12853346398E+02 -0.15179632587E+04  0.15201764457E+04  0.76274548937E+02 0.  0.
         25    2    1    2    0    0 -0.30161600354E+02  0.50413779236E+02 -0.71606738398E+02  0.15564753710E+03  0.12508940622E+03 0.  0.
        -24    2    1    2    0    0  0.29410947756E+01 -0.37560432838E+02  0.25890604202E+03  0.27427007842E+03  0.82293992293E+02 0.  0.
        -13    1    3    3    0    0  0.41002818216E+02 -0.68333082099E+01 -0.40815605053E+03  0.41026733575E+03  0.00000000000E+00 0.  1.
         14    1    3    3    0    0 -0.13782312638E+02 -0.60200381881E+01 -0.11098072081E+04  0.11099091099E+04  0.00000000000E+00 0. -1.
         11    1    5    5    0    0  0.35910937882E+01 -0.57656603026E+02  0.11225650002E+03  0.12624857078E+03  0.00000000000E+00 0. -1.
        -12    1    5    5    0    0 -0.64999901253E+00  0.20096170188E+02  0.14664954200E+03  0.14802150764E+03  0.00000000000E+00 0.  1.
          5    1    4    4  501    0  0.25295654858E+02  0.73173283760E+02 -0.47317182520E+02  0.90832746147E+02  0.41800000000E+01 0.  1.
         -5    1    4    4    0  501 -0.55457255212E+02 -0.22759504524E+02 -0.24289555877E+02  0.64814790955E+02  0.41800000000E+01 0.  1.
</event>
<event>
11    1  0.8039394E-009  0.1403502E+03  0.7561462E-02  0.1107168E+00
         22   -1    0    0    0    0  0.00000000000E+00  0.00000000000E+00  0.40706413957E+03  0.40706413957E+03  0.00000000000E+00 0. -1.
         22   -1    0    0    0    0 -0.00000000000E+00 -0.00000000000E+00 -0.30687990272E+03  0.30687990272E+03  0.00000000000E+00 0.  1.
         24    2    1    2    0    0 -0.54366418554E+02 -0.26970012638E+02 -0.24411992144E+03  0.26391850096E+03  0.79845789221E+02 0.  0.
         25    2    1    2    0    0  0.11345299758E+03  0.35002823627E+02  0.13835906044E+03  0.22110496854E+03  0.12508955665E+03 0.  0.
        -24    2    1    2    0    0 -0.59086579030E+02 -0.80328109892E+01  0.20594509784E+03  0.22892057280E+03  0.80221539846E+02 0.  0.
        -13    1    3    3    0    0 -0.47106546634E+02 -0.19094104568E+02 -0.24751628558E+03  0.25268146587E+03  0.00000000000E+00 0.  1.
         14    1    3    3    0    0 -0.72598719200E+01 -0.78759080696E+01  0.33963641430E+01  0.11237035090E+02  0.00000000000E+00 0. -1.
         11    1    5    5    0    0 -0.10621202933E+02 -0.23772094452E+02  0.15388554026E+03  0.15607268156E+03  0.00000000000E+00 0. -1.
        -12    1    5    5    0    0 -0.48465376097E+02  0.15739283463E+02  0.52059557575E+02  0.72847891246E+02  0.00000000000E+00 0.  1.
          5    1    4    4  501    0  0.13102999067E+03  0.51971233235E+00  0.89972300542E+02  0.15900193653E+03  0.41800000000E+01 0. -1.
         -5    1    4    4    0  501 -0.17576993085E+02  0.34483111295E+02  0.48386759902E+02  0.62103032006E+02  0.41800000000E+01 0. -1.
</event>
<event>
11    1  0.8926879E-009  0.1617579E+03  0.7561462E-02  0.1085435E+00
         22   -1    0    0    0    0  0.00000000000E+00  0.00000000000E+00  0.85948924403E+03  0.85948924403E+03  0.00000000000E+00 0. -1.
         22   -1    0    0    0    0 -0.00000000000E+00 -0.00000000000E+00 -0.83584948826E+03  0.83584948826E+03  0.00000000000E+00 0. -1.
        -24    2    1    2    0    0 -0.15037529733E+02  0.42875081096E+02 -0.72147966898E+03  0.72740114939E+03  0.80716290210E+02 0.  0.
         25    2    1    2    0    0 -0.84159180068E+02 -0.12114870564E+02 -0.52035534086E+02  0.15995312222E+03  0.12509103414E+03 0.  0.
         24    2    1    2    0    0  0.99196709801E+02 -0.30760210532E+02  0.79715495884E+03  0.80798446067E+03  0.81219963630E+02 0.  0.
        -13    1    5    5    0    0 -0.11965281380E+02 -0.15117829994E+02  0.98618969552E+02  0.10048590895E+03  0.00000000000E+00 0.  1.
         14    1    5    5    0    0  0.11116199118E+03 -0.15642380539E+02  0.69853598929E+03  0.70749855172E+03  0.00000000000E+00 0. -1.
         11    1    3    3    0    0 -0.10783140457E+02  0.28566360120E+02 -0.70292098559E+03  0.70358384364E+03  0.00000000000E+00 0. -1.
        -12    1    3    3    0    0 -0.42543892769E+01  0.14308720976E+02 -0.18558683390E+02  0.23817305752E+02  0.00000000000E+00 0.  1.
          5    1    4    4  501    0  0.26041624656E+02  0.21065019089E+02 -0.43352629329E+00  0.33757393101E+02  0.41800000000E+01 0. -1.
         -5    1    4    4    0  501 -0.11020080472E+03 -0.33179889653E+02 -0.51602007792E+02  0.12619572912E+03  0.41800000000E+01 0. -1.
</event>
<event>
11    1  0.8039394E-009  0.1316305E+03  0.7561462E-02  0.1117282E+00
         22   -1    0    0    0    0  0.00000000000E+00  0.00000000000E+00  0.86082769732E+02  0.86082769732E+02  0.00000000000E+00 0. -1.
         22   -1    0    0    0    0 -0.00000000000E+00 -0.00000000000E+00 -0.39951459537E+03  0.39951459537E+03  0.00000000000E+00 0.  1.
         24    2    1    2    0    0 -0.13328153910E+02  0.10505253873E+02 -0.21255787795E+03  0.22753369836E+03  0.79389749770E+02 0.  0.
         25    2    1    2    0    0 -0.10444966129E+02 -0.43327844547E+02 -0.10147484250E+03  0.16713867393E+03  0.12510712702E+03 0.  0.
        -24    2    1    2    0    0  0.23773120039E+02  0.32822590674E+02  0.60089480165E+00  0.90924992812E+02  0.81391090104E+02 0.  0.
        -11    1    3    3    0    0 -0.27061892618E+02  0.19240673924E+02 -0.20799641545E+03  0.21063014600E+03  0.00000000000E+00 0.  1.
         12    1    3    3    0    0  0.13733738708E+02 -0.87354200508E+01 -0.45614624980E+01  0.16903552363E+02  0.00000000000E+00 0. -1.
         11    1    5    5    0    0  0.21133992722E+02  0.45135774628E+02  0.30535731520E+02  0.58449248918E+02  0.00000000000E+00 0. -1.
        -12    1    5    5    0    0  0.26391273166E+01 -0.12313183954E+02 -0.29934836718E+02  0.32475743893E+02  0.00000000000E+00 0.  1.
          5    1    4    4  501    0  0.43551090753E+01 -0.86536833458E+02 -0.61998553207E+02  0.10662496668E+03  0.41800000000E+01 0. -1.
         -5    1    4    4    0  501 -0.14800075204E+02  0.43208988911E+02 -0.39476289290E+02  0.60513707248E+02  0.41800000000E+01 0. -1.
</event>
<event>
11    1  0.8039394E-009  0.1800659E+03  0.7561462E-02  0.1069590E+00
         22   -1    0    0    0    0  0.00000000000E+00  0.00000000000E+00  0.14988409701E+03  0.14988409701E+03  0.00000000000E+00 0.  1.
         22   -1    0    0    0    0 -0.00000000000E+00 -0.00000000000E+00 -0.58093779563E+03  0.58093779563E+03  0.00000000000E+00 0.  1.
         24    2    1    2    0    0  0.64958236799E+02  0.11954510487E+03 -0.32323179757E+03  0.35974519909E+03  0.80169873865E+02 0.  0.
         25    2    1    2    0    0 -0.78254580147E+02 -0.90060991994E+02 -0.18618926850E+03  0.25406279769E+03  0.12508676937E+03 0.  0.
        -24    2    1    2    0    0  0.13296343348E+02 -0.29484112878E+02  0.78367367452E+02  0.11701389587E+03  0.80651732076E+02 0.  0.
        -11    1    3    3    0    0  0.73510775148E+02  0.12397334540E+03 -0.27415623447E+03  0.30973353924E+03  0.00000000000E+00 0.  1.
         12    1    3    3    0    0 -0.85525383489E+01 -0.44282405273E+01 -0.49075563108E+02  0.50011659848E+02  0.00000000000E+00 0. -1.
         13    1    5    5    0    0  0.38167386477E+02 -0.27802936861E+02  0.16013215393E+02  0.49861565918E+02  0.00000000000E+00 0. -1.
        -14    1    5    5    0    0 -0.24871043129E+02 -0.16811760177E+01  0.62354152059E+02  0.67152329953E+02  0.00000000000E+00 0.  1.
          5    1    4    4  501    0 -0.22955924442E+02 -0.63980361896E+02 -0.18001865154E+03  0.19246986382E+03  0.41800000000E+01 0. -1.
         -5    1    4    4    0  501 -0.55298655705E+02 -0.26080630098E+02 -0.61706169602E+01  0.61592933870E+02  0.41800000000E+01 0. -1.
</event>
<event>
11    1  0.8039394E-009  0.1589640E+03  0.7561462E-02  0.1088056E+00
         22   -1    0    0    0    0  0.00000000000E+00  0.00000000000E+00  0.22200044900E+04  0.22200044900E+04  0.00000000000E+00 0.  1.
         22   -1    0    0    0    0 -0.00000000000E+00 -0.00000000000E+00 -0.14640646174E+04  0.14640646174E+04  0.00000000000E+00 0. -1.
        -24    2    1    2    0    0 -0.90893985442E+02  0.37683102743E+02 -0.14341110881E+04  0.14398157339E+04  0.81932910203E+02 0.  0.
         25    2    1    2    0    0  0.36719991943E+02 -0.95540924597E+02  0.23083299805E+03  0.28179380781E+03  0.12508977196E+03 0.  0.
         24    2    1    2    0    0  0.54173993499E+02  0.57857821854E+02  0.19592179627E+04  0.19624595656E+04  0.80188354012E+02 0.  0.
        -11    1    5    5    0    0  0.37986667361E+02  0.60710536237E+02  0.18884662028E+04  0.18898236307E+04  0.00000000000E+00 0.  1.
         12    1    5    5    0    0  0.16187326137E+02 -0.28527143830E+01  0.70751759926E+02  0.72635934905E+02  0.00000000000E+00 0. -1.
         13    1    3    3    0    0 -0.69882095281E+02  0.19019046788E+02 -0.13302299264E+04  0.13322000182E+04  0.00000000000E+00 0. -1.
        -14    1    3    3    0    0 -0.21011890161E+02  0.18664055955E+02 -0.10388116171E+03  0.10761571573E+03  0.00000000000E+00 0.  1.
          5    1    4    4  501    0 -0.35107003555E+02 -0.39626386497E+02  0.29379608351E+02  0.60690905351E+02  0.41800000000E+01 0. -1.
         -5    1    4    4    0  501  0.71826995498E+02 -0.55914538100E+02  0.20145338970E+03  0.22110290246E+03  0.41800000000E+01 0. -1.
</event>
<event>
11    1  0.8039394E-009  0.2182660E+03  0.7561462E-02  0.1042309E+00
         22   -1    0    0    0    0  0.00000000000E+00  0.00000000000E+00  0.15065911264E+03  0.15065911264E+03  0.00000000000E+00 0.  1.
         22   -1    0    0    0    0 -0.00000000000E+00 -0.00000000000E+00 -0.10531052825E+04  0.10531052825E+04  0.00000000000E+00 0.  1.
        -24    2    1    2    0    0  0.25653409316E+02 -0.88756794718E+02 -0.58246980525E+03  0.59540084248E+03  0.81824343407E+02 0.  0.
         25    2    1    2    0    0 -0.14846886639E+02  0.25049738681E+03 -0.32270585880E+03  0.42749795067E+03  0.12508419438E+03 0.  0.
         24    2    1    2    0    0 -0.10806522678E+02 -0.16174059209E+03  0.27294941538E+01  0.18086560202E+03  0.80175531136E+02 0.  0.
        -11    1    5    5    0    0  0.17570085704E+02 -0.97763155498E+02  0.32921279564E+02  0.10464297938E+03  0.00000000000E+00 0.  1.
         12    1    5    5    0    0 -0.28376608382E+02 -0.63977436595E+02 -0.30191785410E+02  0.76222622644E+02  0.00000000000E+00 0. -1.
         13    1    3    3    0    0 -0.29474864234E+02 -0.31213560774E+02 -0.17285750086E+03  0.17810887008E+03  0.00000000000E+00 0. -1.
        -14    1    3    3    0    0  0.55128273550E+02 -0.57543233943E+02 -0.40961230439E+03  0.41729197240E+03  0.00000000000E+00 0.  1.
          5    1    4    4  501    0  0.21905666257E+02  0.11042805567E+02 -0.11983589294E+01  0.24914056937E+02  0.41800000000E+01 0.  1.
         -5    1    4    4    0  501 -0.36752552895E+02  0.23945458124E+03 -0.32150749987E+03  0.40258389374E+03  0.41800000000E+01 0.  1.
</event>
<event>
11    1  0.8039394E-009  0.1492877E+03  0.7561462E-02  0.1097609E+00
         22   -1    0    0    0    0  0.00000000000E+00  0.00000000000E+00  0.75779434128E+03  0.75779434128E+03  0.00000000000E+00 0. -1.
         22   -1    0    0    0    0 -0.00000000000E+00 -0.00000000000E+00 -0.50830553501E+03  0.50830553501E+03  0.00000000000E+00 0.  1.
         24    2    1    2    0    0 -0.28147355930E+01  0.47892550460E+02 -0.34888374722E+03  0.36283187197E+03  0.87323989349E+02 0.  0.
         25    2    1    2    0    0 -0.68213952622E+02 -0.86500616490E+02 -0.10080342317E+03  0.19479548404E+03  0.12509376681E+03 0.  0.
        -24    2    1    2    0    0  0.71028688215E+02  0.38608066030E+02  0.69917597667E+03  0.70847252028E+03  0.80935828506E+02 0.  0.
        -11    1    3    3    0    0 -0.18574651202E+02 -0.99525652412E+01 -0.21628494395E+03  0.21730910750E+03  0.00000000000E+00 0.  1.
         12    1    3    3    0    0  0.15759915609E+02  0.57845115701E+02 -0.13259880327E+03  0.14552276447E+03  0.00000000000E+00 0. -1.
         13    1    5    5    0    0  0.72701156582E+02  0.16154021860E+02  0.65154669306E+03  0.65578922211E+03  0.00000000000E+00 0. -1.
        -14    1    5    5    0    0 -0.16724683670E+01  0.22454044170E+02  0.47629283602E+02  0.52683298174E+02  0.00000000000E+00 0.  1.
          5    1    4    4  501    0 -0.94893734130E+02 -0.81359088405E+02 -0.45589442632E+02  0.13311645925E+03  0.41800000000E+01 0. -1.
         -5    1    4    4    0  501  0.26679781508E+02 -0.51415280852E+01 -0.55213980538E+02  0.61679024791E+02  0.41800000000E+01 0. -1.
</event>
<event>
11    1  0.8039394E-009  0.1401634E+03  0.7561462E-02  0.1107376E+00
         22   -1    0    0    0    0  0.00000000000E+00  0.00000000000E+00  0.11410599782E+04  0.11410599782E+04  0.00000000000E+00 0.  1.
         22   -1    0    0    0    0 -0.00000000000E+00 -0.00000000000E+00 -0.59681712324E+03  0.59681712324E+03  0.00000000000E+00 0.  1.
        -24    2    1    2    0    0  0.62759488581E+02  0.10084421854E+02 -0.57120321647E+03  0.58027309104E+03  0.80020601789E+02 0.  0.
         25    2    1    2    0    0 -0.49101620784E+02  0.25774942143E+02  0.23018835764E+03  0.26778807956E+03  0.12509379984E+03 0.  0.
         24    2    1    2    0    0 -0.13657867798E+02 -0.35859363997E+02  0.88525771377E+03  0.88981593082E+03  0.81355636657E+02 0.  0.
        -11    1    5    5    0    0 -0.38606116700E+02 -0.11606366211E+02  0.70966939541E+03  0.71081347114E+03  0.00000000000E+00 0.  1.
         12    1    5    5    0    0  0.24948248903E+02 -0.24252997786E+02  0.17558831836E+03  0.17900245968E+03  0.00000000000E+00 0. -1.
         11    1    3    3    0    0 -0.14217001554E+02  0.68777290038E+01 -0.33011417215E+02  0.36594807773E+02  0.00000000000E+00 0. -1.
        -12    1    3    3    0    0  0.76976490135E+02  0.32066928503E+01 -0.53819179925E+03  0.54367828327E+03  0.00000000000E+00 0.  1.
          5    1    4    4  501    0 -0.56777559080E+02  0.49566027000E+02  0.61949965502E+02  0.97651179579E+02  0.41800000000E+01 0. -1.
         -5    1    4    4    0  501  0.76759382958E+01 -0.23791084857E+02  0.16823839214E+03  0.17013689998E+03  0.41800000000E+01 0. -1.
</event>
<event>
11    1  0.8039394E-009  0.1749782E+03  0.7561462E-02  0.1073779E+00
         22   -1    0    0    0    0  0.00000000000E+00  0.00000000000E+00  0.70962365097E+03  0.70962365097E+03  0.00000000000E+00 0. -1.
         22   -1    0    0    0    0 -0.00000000000E+00 -0.00000000000E+00 -0.21175930784E+03  0.21175930784E+03  0.00000000000E+00 0. -1.
        -24    2    1    2    0    0 -0.11112566747E+03  0.49181994830E+02 -0.15526724526E+03  0.21251672278E+03  0.79294750286E+02 0.  0.
         25    2    1    2    0    0  0.12438816653E+03 -0.47779294141E+02  0.34883513197E+03  0.39381315230E+03  0.12509025825E+03 0.  0.
         24    2    1    2    0    0 -0.13262499053E+02 -0.14027006888E+01  0.30429645642E+03  0.31505308372E+03  0.80524845357E+02 0.  0.
        -13    1    5    5    0    0  0.18588165040E+02 -0.72566241781E+01  0.17823387586E+02  0.26755403549E+02  0.00000000000E+00 0.  1.
         14    1    5    5    0    0 -0.31850664093E+02  0.58539234894E+01  0.28647306884E+03  0.28829768017E+03  0.00000000000E+00 0. -1.
         13    1    3    3    0    0 -0.11002743350E+03  0.43736660773E+02 -0.16393499255E+03  0.20222169369E+03  0.00000000000E+00 0. -1.
        -14    1    3    3    0    0 -0.10982339787E+01  0.54453340567E+01  0.86677472887E+01  0.10295029088E+02  0.00000000000E+00 0.  1.
          5    1    4    4  501    0  0.99695645676E+02  0.17926303382E+02  0.26876551784E+03  0.28725067467E+03  0.41800000000E+01 0.  1.
         -5    1    4    4    0  501  0.24692520852E+02 -0.65705597524E+02  0.80069614127E+02  0.10656247763E+03  0.41800000000E+01 0.  1.
</event>
<event>
11    1  0.8039394E-009  0.1758368E+03  0.7561462E-02  0.1073061E+00
         22   -1    0    0    0    0  0.00000000000E+00  0.00000000000E+00  0.50140351480E+03  0.50140351480E+03  0.00000000000E+00 0.  1.
         22   -1    0    0    0    0 -0.00000000000E+00 -0.00000000000E+00 -0.10649597397E+04  0.10649597397E+04  0.00000000000E+00 0.  1.
        -24    2    1    2    0    0 -0.13774513047E+02  0.22563141332E+01 -0.89848850150E+03  0.90210156914E+03  0.79440704611E+02 0.  0.
         25    2    1    2    0    0  0.13440295438E+03 -0.23926347331E+02 -0.96445237527E+02  0.20876906948E+03  0.12508483635E+03 0.  0.
         24    2    1    2    0    0 -0.12062844133E+03  0.21670033198E+02  0.43137751410E+03  0.45549261590E+03  0.79788171235E+02 0.  0.
        -11    1    5    5    0    0 -0.12737156995E+03  0.12716827548E+02  0.42164970447E+03  0.44065145843E+03  0.00000000000E+00 0.  1.
         12    1    5    5    0    0  0.67431286126E+01  0.89532056497E+01  0.97278096288E+01  0.14841157471E+02  0.00000000000E+00 0. -1.
         11    1    3    3    0    0 -0.12651933152E+02  0.23306161337E+02 -0.10381420313E+03  0.10714773605E+03  0.00000000000E+00 0. -1.
        -12    1    3    3    0    0 -0.11225798950E+01 -0.21049847204E+02 -0.79467429838E+03  0.79495383310E+03  0.00000000000E+00 0.  1.
          5    1    4    4  501    0  0.47617963711E+02  0.43033117989E+02 -0.71696831146E+02  0.96318366412E+02  0.41800000000E+01 0. -1.
         -5    1    4    4    0  501  0.86784990669E+02 -0.66959465320E+02 -0.24748406381E+02  0.11245070306E+03  0.41800000000E+01 0. -1.
</event>
<event>
11    1  0.8039394E-009  0.1559670E+03  0.7561462E-02  0.1090933E+00
         22   -1    0    0    0    0  0.00000000000E+00  0.00000000000E+00  0.96684597585E+03  0.96684597585E+03  0.00000000000E+00 0.  1.
         22   -1    0    0    0    0 -0.00000000000E+00 -0.00000000000E+00 -0.40978204215E+03  0.40978204215E+03  0.00000000000E+00 0. -1.
         24    2    1    2    0    0 -0.89831498429E+02  0.24112232101E+01 -0.33116405501E+03  0.35222189414E+03  0.79467724727E+02 0.  0.
         25    2    1    2    0    0  0.13182449888E+03 -0.20382072895E+02  0.60963707971E+02  0.19277669214E+03  0.12511255709E+03 0.  0.
        -24    2    1    2    0    0 -0.41993000453E+02  0.17970849685E+02  0.82726428075E+03  0.83162943172E+03  0.71798036023E+02 0.  0.
        -11    1    3    3    0    0 -0.50768447909E+02  0.28777919740E+02 -0.95715776904E+02  0.11210313963E+03  0.00000000000E+00 0.  1.
         12    1    3    3    0    0 -0.39063050520E+02 -0.26366696530E+02 -0.23544827811E+03  0.24011875451E+03  0.00000000000E+00 0. -1.
         13    1    5    5    0    0  0.11642769328E+02  0.25455242864E+02  0.18760060546E+03  0.18967738568E+03  0.00000000000E+00 0. -1.
        -14    1    5    5    0    0 -0.53635769780E+02 -0.74843931794E+01  0.63966367529E+03  0.64195204604E+03  0.00000000000E+00 0.  1.
          5    1    4    4  501    0  0.36656890044E+02 -0.66395817688E+02  0.14962420504E+02  0.77417560163E+02  0.41800000000E+01 0.  1.
         -5    1    4    4    0  501  0.95167608837E+02  0.46013744793E+02  0.46001287467E+02  0.11535913198E+03  0.41800000000E+01 0.  1.
</event>
<event>
11    1  0.8039394E-009  0.1312003E+03  0.7561462E-02  0.1117803E+00
         22   -1    0    0    0    0  0.00000000000E+00  0.00000000000E+00  0.19904396080E+04  0.19904396080E+04  0.00000000000E+00 0.  1.
         22   -1    0    0    0    0 -0.00000000000E+00 -0.00000000000E+00 -0.76105664459E+03  0.76105664459E+03  0.00000000000E+00 0.  1.
         24    2    1    2    0    0 -0.40200824000E+02  0.27289162691E+00 -0.67630194763E+03  0.68205636314E+03  0.78742475245E+02 0.  0.
         25    2    1    2    0    0  0.27137979980E+02 -0.31121328612E+02 -0.27233541652E+02  0.13451283205E+03  0.12508808554E+03 0.  0.
        -24    2    1    2    0    0  0.13062844020E+02  0.30848436985E+02  0.19329184527E+04  0.19349270574E+04  0.81527349403E+02 0.  0.
        -13    1    3    3    0    0 -0.30508864688E+02 -0.18110660554E+02 -0.63332957846E+03  0.63432258497E+03  0.00000000000E+00 0.  1.
         14    1    3    3    0    0 -0.96919593126E+01  0.18383552181E+02 -0.42972369173E+02  0.47733778171E+02  0.00000000000E+00 0. -1.
         11    1    5    5    0    0 -0.18832227488E+02  0.23492411709E+02  0.26785777105E+03  0.26954467479E+03  0.00000000000E+00 0. -1.
        -12    1    5    5    0    0  0.31895071508E+02  0.73560252761E+01  0.16650606817E+04  0.16653823826E+04  0.00000000000E+00 0.  1.
          5    1    4    4  501    0  0.23710453218E+02 -0.18274652556E+02  0.48696250619E+02  0.57314446191E+02  0.41800000000E+01 0.  1.
         -5    1    4    4    0  501  0.34275267619E+01 -0.12846676056E+02 -0.75929792271E+02  0.77198385862E+02  0.41800000000E+01 0.  1.
</event>
<event>
11    1  0.8039394E-009  0.1680357E+03  0.7561462E-02  0.1079754E+00
         22   -1    0    0    0    0  0.00000000000E+00  0.00000000000E+00  0.97028924237E+03  0.97028924237E+03  0.00000000000E+00 0.  1.
         22   -1    0    0    0    0 -0.00000000000E+00 -0.00000000000E+00 -0.13676153336E+03  0.13676153336E+03  0.00000000000E+00 0.  1.
        -24    2    1    2    0    0  0.12499424616E+03 -0.10619677793E+02 -0.52809826212E+02  0.15798190741E+03  0.80206397471E+02 0.  0.
         25    2    1    2    0    0  0.73494010970E+01 -0.89864168285E+02  0.43103408710E+03  0.45778520702E+03  0.12508928446E+03 0.  0.
         24    2    1    2    0    0 -0.13234364726E+03  0.10048384608E+03  0.45530344812E+03  0.49128366130E+03  0.80290483209E+02 0.  0.
        -11    1    5    5    0    0 -0.11495154918E+03  0.10528622368E+03  0.33327296207E+03  0.36792650734E+03  0.00000000000E+00 0.  1.
         12    1    5    5    0    0 -0.17392098071E+02 -0.48023776043E+01  0.12203048606E+03  0.12335715396E+03  0.00000000000E+00 0. -1.
         11    1    3    3    0    0  0.90898811469E+02 -0.28713664425E+02 -0.35388096401E+01  0.95391779650E+02  0.00000000000E+00 0. -1.
        -12    1    3    3    0    0  0.34095434690E+02  0.18093986633E+02 -0.49271016572E+02  0.62590127760E+02  0.00000000000E+00 0.  1.
          5    1    4    4  501    0 -0.12547048061E+02 -0.11713258746E+03  0.36408139371E+03  0.38268813035E+03  0.41800000000E+01 0.  1.
         -5    1    4    4    0  501  0.19896449158E+02  0.27268419173E+02  0.66952693384E+02  0.75097076673E+02  0.41800000000E+01 0.  1.
</event>
<event>
11    1  0.8039394E-009  0.3793840E+03  0.7561462E-02  0.9712624E-01
         22   -1    0    0    0    0  0.00000000000E+00  0.00000000000E+00  0.16308514830E+04  0.16308514830E+04  0.00000000000E+00 0. -1.
         22   -1    0    0    0    0 -0.00000000000E+00 -0.00000000000E+00 -0.14541739965E+03  0.14541739965E+03  0.00000000000E+00 0.  1.
         24    2    1    2    0    0 -0.32025843363E+02 -0.13947352558E+03  0.93790500368E+02  0.19010905228E+03  0.82862988245E+02 0.  0.
         25    2    1    2    0    0 -0.34018542079E+03  0.50784045098E+02  0.58983959295E+03  0.69416404013E+03  0.12509128447E+03 0.  0.
        -24    2    1    2    0    0  0.37221126415E+03  0.88689480479E+02  0.80180399004E+03  0.89199579026E+03  0.79748368498E+02 0.  0.
        -11    1    3    3    0    0 -0.42007169750E+02 -0.11267522174E+03  0.35826168688E+02  0.12547438889E+03  0.00000000000E+00 0.  1.
         12    1    3    3    0    0  0.99813263864E+01 -0.26798303839E+02  0.57964331680E+02  0.64634663395E+02  0.00000000000E+00 0. -1.
         11    1    5    5    0    0  0.10097536578E+03  0.28487573034E+01  0.15038522921E+03  0.18116251565E+03  0.00000000000E+00 0. -1.
        -12    1    5    5    0    0  0.27123589837E+03  0.85840723176E+02  0.65141876083E+03  0.71083327460E+03  0.00000000000E+00 0.  1.
          5    1    4    4  501    0 -0.16035831030E+03  0.36904038747E+02  0.16719055162E+03  0.23462064852E+03  0.41800000000E+01 0.  1.
         -5    1    4    4    0  501 -0.17982711048E+03  0.13880006350E+02  0.42264904133E+03  0.45954339161E+03  0.41800000000E+01 0.  1.
</event>
<event>
11    1  0.8039394E-009  0.2664467E+03  0.7561462E-02  0.1015485E+00
         22   -1    0    0    0    0  0.00000000000E+00  0.00000000000E+00  0.21200840623E+03  0.21200840623E+03  0.00000000000E+00 0. -1.
         22   -1    0    0    0    0 -0.00000000000E+00 -0.00000000000E+00 -0.21331323907E+04  0.21331323907E+04  0.00000000000E+00 0. -1.
        -24    2    1    2    0    0  0.20349427960E+03 -0.10697755931E+03 -0.16804294475E+04  0.16980351421E+04  0.81400834575E+02 0.  0.
         25    2    1    2    0    0 -0.25226612123E+03  0.91681670089E+02 -0.37791163682E+03  0.48011276357E+03  0.12508931188E+03 0.  0.
         24    2    1    2    0    0  0.48771841637E+02  0.15295889225E+02  0.13721709983E+03  0.16699289125E+03  0.80283475762E+02 0.  0.
        -13    1    5    5    0    0  0.33601032687E+02  0.40614998805E+02  0.42281367987E+02  0.67574563294E+02  0.00000000000E+00 0.  1.
         14    1    5    5    0    0  0.15170808951E+02 -0.25319109580E+02  0.94935731842E+02  0.99418327960E+02  0.00000000000E+00 0. -1.
         11    1    3    3    0    0  0.18268892925E+03 -0.59946516889E+02 -0.13520975041E+04  0.13657000001E+04  0.00000000000E+00 0. -1.
        -12    1    3    3    0    0  0.20805350347E+02 -0.47031042424E+02 -0.32833194340E+03  0.33233514200E+03  0.00000000000E+00 0.  1.
          5    1    4    4  501    0 -0.16524324642E+03  0.11958344004E+03 -0.27505976733E+03  0.34246295803E+03  0.41800000000E+01 0.  1.
         -5    1    4    4    0  501 -0.87022874815E+02 -0.27901769954E+02 -0.10285186949E+03  0.13764980554E+03  0.41800000000E+01 0.  1.
</event>
<event>
11    1  0.8039394E-009  0.2250563E+03  0.7561462E-02  0.1038096E+00
         22   -1    0    0    0    0  0.00000000000E+00  0.00000000000E+00  0.41107707127E+03  0.41107707127E+03  0.00000000000E+00 0.  1.
         22   -1    0    0    0    0 -0.00000000000E+00 -0.00000000000E+00 -0.72750860396E+03  0.72750860396E+03  0.00000000000E+00 0. -1.
         24    2    1    2    0    0  0.41668534239E+02  0.45864464692E+02 -0.48915942786E+03  0.49969813547E+03  0.81126227918E+02 0.  0.
         25    2    1    2    0    0 -0.17455114633E+03 -0.16408721807E+03 -0.10603176093E+03  0.29031479859E+03  0.12508888894E+03 0.  0.
        -24    2    1    2    0    0  0.13288261210E+03  0.11822275337E+03  0.27875965610E+03  0.34857274116E+03  0.11027965361E+03 0.  0.
        -11    1    3    3    0    0  0.43737935001E+02  0.44040321082E+01 -0.11290790010E+03  0.12116351085E+03  0.00000000000E+00 0.  1.
         12    1    3    3    0    0 -0.20694007624E+01  0.41460432584E+02 -0.37625152776E+03  0.37853462461E+03  0.00000000000E+00 0. -1.
         11    1    5    5    0    0  0.91522779991E+02  0.35036906862E+02  0.71086103634E+02  0.12106708153E+03  0.00000000000E+00 0. -1.
        -12    1    5    5    0    0  0.41359832105E+02  0.83185846512E+02  0.20767355247E+03  0.22750565964E+03  0.00000000000E+00 0.  1.
          5    1    4    4  501    0 -0.18268790385E+03 -0.17667169285E+03 -0.95485462351E+02  0.27151925013E+03  0.41800000000E+01 0. -1.
         -5    1    4    4    0  501  0.81367575189E+01  0.12584474781E+02 -0.10546298579E+02  0.18795548466E+02  0.41800000000E+01 0. -1.
</event>
<event>
11    1  0.8039394E-009  0.1376549E+03  0.7561462E-02  0.1110206E+00
         22   -1    0    0    0    0  0.00000000000E+00  0.00000000000E+00  0.92818792466E+02  0.92818792466E+02  0.00000000000E+00 0.  1.
         22   -1    0    0    0    0 -0.00000000000E+00 -0.00000000000E+00 -0.77725715109E+03  0.77725715109E+03  0.00000000000E+00 0. -1.
         24    2    1    2    0    0  0.42923413004E+02 -0.22000950777E+02 -0.42778227756E+03  0.43796287463E+03  0.80544033567E+02 0.  0.
         25    2    1    2    0    0 -0.84004915795E+02  0.38565788107E+02 -0.29434082452E+03  0.33290959604E+03  0.12509249485E+03 0.  0.
        -24    2    1    2    0    0  0.41081502791E+02 -0.16564837330E+02  0.37684743448E+02  0.99203472887E+02  0.80368560002E+02 0.  0.
        -11    1    3    3    0    0  0.44361535457E+02  0.17596235926E+02 -0.31103227765E+03  0.31467229158E+03  0.00000000000E+00 0.  1.
         12    1    3    3    0    0 -0.14381224526E+01 -0.39597186703E+02 -0.11674999991E+03  0.12329058305E+03  0.00000000000E+00 0. -1.
         13    1    5    5    0    0  0.31404440867E+02  0.25529674103E+02 -0.20361925594E+01  0.40523440699E+02  0.00000000000E+00 0. -1.
        -14    1    5    5    0    0  0.96770619237E+01 -0.42094511433E+02  0.39720936007E+02  0.58680032187E+02  0.00000000000E+00 0.  1.
          5    1    4    4  501    0  0.17321448931E+01  0.56579764042E+02 -0.59532207671E+02  0.82254642271E+02  0.41800000000E+01 0.  1.
         -5    1    4    4    0  501 -0.85737060688E+02 -0.18013975935E+02 -0.23480861684E+03  0.25065495377E+03  0.41800000000E+01 0.  1.
</event>
<event>
11    1  0.8039394E-009  0.1876850E+03  0.7561462E-02  0.1063591E+00
         22   -1    0    0    0    0  0.00000000000E+00  0.00000000000E+00  0.20171048077E+04  0.20171048077E+04  0.00000000000E+00 0.  1.
         22   -1    0    0    0    0 -0.00000000000E+00 -0.00000000000E+00 -0.58437250266E+03  0.58437250266E+03  0.00000000000E+00 0.  1.
        -24    2    1    2    0    0  0.69745987457E+02 -0.12206827725E+03 -0.55417676215E+03  0.57717361551E+03  0.79071686781E+02 0.  0.
         25    2    1    2    0    0 -0.48210158129E+02  0.10578110257E+03  0.39627856542E+03  0.43150805412E+03  0.12509451769E+03 0.  0.
         24    2    1    2    0    0 -0.21535829328E+02  0.16287174686E+02  0.15906305017E+04  0.15927956407E+04  0.78507935755E+02 0.  0.
        -11    1    5    5    0    0  0.12883515000E+02 -0.81402836355E+01  0.11603470028E+04  0.11604470760E+04  0.00000000000E+00 0.  1.
         12    1    5    5    0    0 -0.34419344329E+02  0.24427458321E+02  0.43028349895E+03  0.43234856476E+03  0.00000000000E+00 0. -1.
         11    1    3    3    0    0  0.23218731490E+02 -0.53416145944E+02 -0.10203141307E+03  0.11748533267E+03  0.00000000000E+00 0. -1.
        -12    1    3    3    0    0  0.46527255967E+02 -0.68652131311E+02 -0.45214534908E+03  0.45968828284E+03  0.00000000000E+00 0.  1.
          5    1    4    4  501    0 -0.52184858784E+02  0.99123042764E+02  0.16165521167E+03  0.19671938632E+03  0.41800000000E+01 0.  1.
         -5    1    4    4    0  501  0.39747006547E+01  0.66580598045E+01  0.23462335375E+03  0.23478866780E+03  0.41800000000E+01 0.  1.
</event>
<event>
11    1  0.8039394E-009  0.2220552E+03  0.7561462E-02  0.1039938E+00
         22   -1    0    0    0    0  0.00000000000E+00  0.00000000000E+00  0.99025867097E+03  0.99025867097E+03  0.00000000000E+00 0. -1.
         22   -1    0    0    0    0 -0.00000000000E+00 -0.00000000000E+00 -0.75026819392E+03  0.75026819392E+03  0.00000000000E+00 0.  1.
        -24    2    1    2    0    0 -0.67402742304E+02  0.85991042326E+02 -0.64938149447E+03  0.66343773276E+03  0.80719953353E+02 0.  0.
         25    2    1    2    0    0  0.15883254741E+03 -0.22810158871E+03  0.20410878028E+03  0.36683123134E+03  0.12508655087E+03 0.  0.
         24    2    1    2    0    0 -0.91429805105E+02  0.14211054639E+03  0.68526319123E+03  0.71025790079E+03  0.79535072273E+02 0.  0.
        -11    1    5    5    0    0  0.11781441661E+02  0.20096392480E+02  0.49366780421E+02  0.54587053112E+02  0.00000000000E+00 0.  1.
         12    1    5    5    0    0 -0.10321124677E+03  0.12201415391E+03  0.63589641081E+03  0.65567084768E+03  0.00000000000E+00 0. -1.
         11    1    3    3    0    0 -0.55568947008E+02  0.86250312665E+01 -0.31846155608E+03  0.32338840693E+03  0.00000000000E+00 0. -1.
        -12    1    3    3    0    0 -0.11833795296E+02  0.77366011059E+02 -0.33091993838E+03  0.34004932583E+03  0.00000000000E+00 0.  1.
          5    1    4    4  501    0  0.14346273492E+03 -0.22900985921E+03  0.21677386572E+03  0.34646133000E+03  0.41800000000E+01 0.  1.
         -5    1    4    4    0  501  0.15369812493E+02  0.90827049332E+00 -0.12665085444E+02  0.20369901341E+02  0.41800000000E+01 0.  1.
</event>
<event>
11    1  0.8039394E-009  0.1587356E+03  0.7561462E-02  0.1088273E+00
         22   -1    0    0    0    0  0.00000000000E+00  0.00000000000E+00  0.14328262876E+04  0.14328262876E+04  0.00000000000E+00 0.  1.
         22   -1    0    0    0    0 -0.00000000000E+00 -0.00000000000E+00 -0.24494099305E+03  0.24494099305E+03  0.00000000000E+00 0. -1.
         24    2    1    2    0    0 -0.67579675723E+02 -0.63648280716E+02 -0.18134154095E+03  0.21988006436E+03  0.82730719939E+02 0.  0.
         25    2    1    2    0    0  0.96202068119E+02  0.13771971447E+03  0.22243379652E+03  0.30552151391E+03  0.12508015018E+03 0.  0.
        -24    2    1    2    0    0 -0.28622392396E+02 -0.74071433756E+02  0.11467930390E+04  0.11523657023E+04  0.80663617009E+02 0.  0.
        -13    1    3    3    0    0  0.88552784398E+01 -0.22519291189E+02 -0.71027943244E+01  0.25218725565E+02  0.00000000000E+00 0.  1.
         14    1    3    3    0    0 -0.76434954162E+02 -0.41128989527E+02 -0.17423874662E+03  0.19466133880E+03  0.00000000000E+00 0. -1.
         11    1    5    5    0    0  0.86048849961E+01  0.42509541289E+01  0.19419266062E+02  0.21661545448E+02  0.00000000000E+00 0. -1.
        -12    1    5    5    0    0 -0.37227277392E+02 -0.78322387885E+02  0.11273737729E+04  0.11307041569E+04  0.00000000000E+00 0.  1.
          5    1    4    4  501    0  0.28976106687E+02  0.43752710188E+02  0.17111422184E+03  0.17902922589E+03  0.41800000000E+01 0. -1.
         -5    1    4    4    0  501  0.67225961432E+02  0.93967004285E+02  0.51319574676E+02  0.12649228802E+03  0.41800000000E+01 0. -1.
</event>
<event>
11    1  0.8039394E-009  0.1444539E+03  0.7561462E-02  0.1102684E+00
         22   -1    0    0    0    0  0.00000000000E+00  0.00000000000E+00  0.32800456361E+03  0.32800456361E+03  0.00000000000E+00 0. -1.
         22   -1    0    0    0    0 -0.00000000000E+00 -0.00000000000E+00 -0.53347602206E+03  0.53347602206E+03  0.00000000000E+00 0. -1.
        -24    2    1    2    0    0 -0.62058119502E+02  0.29004243725E+02 -0.32949095131E+03  0.34627288111E+03  0.81536279348E+02 0.  0.
         25    2    1    2    0    0  0.72267387347E+02 -0.47574663503E+02 -0.15921689416E+03  0.22018968345E+03  0.12509018119E+03 0.  0.
         24    2    1    2    0    0 -0.10209267845E+02  0.18570419778E+02  0.28323638702E+03  0.29501802110E+03  0.79772753519E+02 0.  0.
        -13    1    5    5    0    0  0.75324107412E+01  0.32660667053E+02  0.47164440931E+02  0.57861393625E+02  0.00000000000E+00 0.  1.
         14    1    5    5    0    0 -0.17741678586E+02 -0.14090247276E+02  0.23607194609E+03  0.23715662748E+03  0.00000000000E+00 0. -1.
         11    1    3    3    0    0 -0.40253923688E+02  0.43411344188E+02 -0.10728765875E+03  0.12253801409E+03  0.00000000000E+00 0. -1.
        -12    1    3    3    0    0 -0.21804195814E+02 -0.14407100463E+02 -0.22220329256E+03  0.22373486703E+03  0.00000000000E+00 0.  1.
          5    1    4    4  501    0  0.64867432298E+02 -0.25085323254E+02 -0.11606883570E+02  0.70634618721E+02  0.41800000000E+01 0.  1.
         -5    1    4    4    0  501  0.73999550496E+01 -0.22489340249E+02 -0.14761001059E+03  0.14955506473E+03  0.41800000000E+01 0.  1.
</event>
<event>
11    1  0.8039395E-009  0.1875358E+03  0.7561462E-02  0.1063705E+00
         22   -1    0    0    0    0  0.00000000000E+00  0.00000000000E+00  0.30434923002E+04  0.30434923002E+04  0.00000000000E+00 0.  1.
         22   -1    0    0    0    0 -0.00000000000E+00 -0.00000000000E+00 -0.22441356718E+03  0.22441356718E+03  0.00000000000E+00 0.  1.
         24    2    1    2    0    0 -0.64955539503E+02  0.90501971463E+01 -0.14476930178E+03  0.17474356901E+03  0.72636326942E+02 0.  0.
         25    2    1    2    0    0 -0.76815149568E+02 -0.99025659477E+00  0.23921028299E+02  0.14873105620E+03  0.12508862328E+03 0.  0.
        -24    2    1    2    0    0  0.14177068907E+03 -0.80599405515E+01  0.29399270065E+04  0.29444312421E+04  0.79628169737E+02 0.  0.
        -13    1    3    3    0    0 -0.44864270042E+02 -0.20040158977E+02 -0.12483384658E+03  0.13415625200E+03  0.00000000000E+00 0.  1.
         14    1    3    3    0    0 -0.20091269461E+02  0.29090356124E+02 -0.19935455195E+02  0.40587317007E+02  0.00000000000E+00 0. -1.
         13    1    5    5    0    0  0.23303954627E+02  0.26744910955E+02  0.42626613717E+03  0.42773962204E+03  0.00000000000E+00 0. -1.
        -14    1    5    5    0    0  0.11846673444E+03 -0.34804851506E+02  0.25136608693E+04  0.25166916201E+04  0.00000000000E+00 0.  1.
          5    1    4    4  501    0  0.32831441508E+02  0.40053404373E+01  0.19883103788E+02  0.38816961754E+02  0.41800000000E+01 0.  1.
         -5    1    4    4    0  501 -0.10964659108E+03 -0.49955970320E+01  0.40379245105E+01  0.10991409445E+03  0.41800000000E+01 0.  1.
</event>
<event>
11    1  0.8039394E-009  0.1409084E+03  0.7561462E-02  0.1106548E+00
         22   -1    0    0    0    0  0.00000000000E+00  0.00000000000E+00  0.40204129191E+03  0.40204129191E+03  0.00000000000E+00 0. -1.
         22   -1    0    0    0    0 -0.00000000000E+00 -0.00000000000E+00 -0.11638959403E+04  0.11638959403E+04  0.00000000000E+00 0.  1.
         24    2    1    2    0    0  0.34920356783E+02 -0.23377046584E+02 -0.11232512099E+04  0.11268001089E+04  0.78862458042E+02 0.  0.
         25    2    1    2    0    0  0.75662228478E+00 -0.46655103937E+02  0.16342432854E+03  0.21102728499E+03  0.12509089756E+03 0.  0.
        -24    2    1    2    0    0 -0.35676979068E+02  0.70032150521E+02  0.19797223290E+03  0.22810983837E+03  0.81631761100E+02 0.  0.
        -11    1    3    3    0    0  0.59823018826E+02 -0.18622999285E+02 -0.70377076555E+03  0.70655424429E+03  0.00000000000E+00 0.  1.
         12    1    3    3    0    0 -0.24902662042E+02 -0.47540472988E+01 -0.41948044432E+03  0.42024586459E+03  0.00000000000E+00 0. -1.
         11    1    5    5    0    0 -0.42661265662E+02  0.40730437124E+02  0.18695028930E+03  0.19603408572E+03  0.00000000000E+00 0. -1.
        -12    1    5    5    0    0  0.69842865938E+01  0.29301713397E+02  0.11021943601E+02  0.32075752649E+02  0.00000000000E+00 0.  1.
          5    1    4    4  501    0  0.53330141015E+02  0.10459297827E+02  0.53365202072E+02  0.76281177520E+02  0.41800000000E+01 0. -1.
         -5    1    4    4    0  501 -0.52573518730E+02 -0.57114401764E+02  0.11005912647E+03  0.13474610747E+03  0.41800000000E+01 0. -1.
</event>
<event>
11    1  0.8039394E-009  0.2451415E+03  0.7561462E-02  0.1026520E+00
         22   -1    0    0    0    0  0.00000000000E+00  0.00000000000E+00  0.20806937938E+04  0.20806937938E+04  0.00000000000E+00 0. -1.
         22   -1    0    0    0    0 -0.00000000000E+00 -0.00000000000E+00 -0.18939753778E+03  0.18939753778E+03  0.00000000000E+00 0.  1.
        -24    2    1    2    0    0 -0.53421638784E+02  0.73609806408E+02 -0.10286475348E+03  0.15869808110E+03  0.79571655421E+02 0.  0.
         25    2    1    2    0    0  0.25530525533E+03 -0.95136807626E+02  0.38689601547E+03  0.48945768576E+03  0.12509401981E+03 0.  0.
         24    2    1    2    0    0 -0.20188361654E+03  0.21527001218E+02  0.16072649941E+04  0.16219355648E+04  0.78446214965E+02 0.  0.
        -11    1    5    5    0    0 -0.15987097630E+03 -0.15595881757E+02  0.11211966251E+04  0.11326446189E+04  0.00000000000E+00 0.  1.
         12    1    5    5    0    0 -0.42012640247E+02  0.37122882975E+02  0.48606836898E+03  0.48929094587E+03  0.00000000000E+00 0. -1.
         13    1    3    3    0    0  0.11976108482E+02  0.19576140883E+02  0.28822124093E+01  0.23129193989E+02  0.00000000000E+00 0. -1.
        -14    1    3    3    0    0 -0.65397747266E+02  0.54033665525E+02 -0.10574696589E+03  0.13556888711E+03  0.00000000000E+00 0.  1.
          5    1    4    4  501    0  0.32360927030E+02 -0.26322300306E+02  0.15461769644E+03  0.16020049171E+03  0.41800000000E+01 0. -1.
         -5    1    4    4    0  501  0.22294432830E+03 -0.68814507320E+02  0.23227831903E+03  0.32925719405E+03  0.41800000000E+01 0. -1.
</event>
<event>
11    1  0.8039394E-009  0.1637075E+03  0.7561462E-02  0.1083641E+00
         22   -1    0    0    0    0  0.00000000000E+00  0.00000000000E+00  0.98819442164E+03  0.98819442164E+03  0.00000000000E+00 0.  1.
         22   -1    0    0    0    0 -0.00000000000E+00 -0.00000000000E+00 -0.60061572672E+03  0.60061572672E+03  0.00000000000E+00 0. -1.
         24    2    1    2    0    0  0.74978874759E+02 -0.75673074396E+02 -0.55583254982E+03  0.57149160362E+03  0.79401408819E+02 0.  0.
         25    2    1    2    0    0 -0.59942282184E+02  0.61936027704E+02  0.12997145083E+03  0.19992290793E+03  0.12508973724E+03 0.  0.
        -24    2    1    2    0    0 -0.15036592575E+02  0.13737046692E+02  0.81343979391E+03  0.81739563680E+03  0.77695065253E+02 0.  0.
        -11    1    3    3    0    0  0.27320039081E+02 -0.43898403382E+02 -0.10505895492E+03  0.11709328915E+03  0.00000000000E+00 0.  1.
         12    1    3    3    0    0  0.47658835678E+02 -0.31774671013E+02 -0.45077359491E+03  0.45439831448E+03  0.00000000000E+00 0. -1.
         13    1    5    5    0    0 -0.18581066866E+02  0.44986878261E+02  0.52164694074E+03  0.52391278477E+03  0.00000000000E+00 0. -1.
        -14    1    5    5    0    0  0.35444742909E+01 -0.31249831569E+02  0.29179285318E+03  0.29348285203E+03  0.00000000000E+00 0.  1.
          5    1    4    4  501    0 -0.66686082348E+02  0.28983647252E+02  0.14544665507E+03  0.16266310970E+03  0.41800000000E+01 0.  1.
         -5    1    4    4    0  501  0.67438001647E+01  0.32952380452E+02 -0.15475204237E+02  0.37259798232E+02  0.41800000000E+01 0.  1.
</event>
<event>
11    1  0.8039394E-009  0.1533252E+03  0.7561462E-02  0.1093529E+00
         22   -1    0    0    0    0  0.00000000000E+00  0.00000000000E+00  0.82700059288E+03  0.82700059288E+03  0.00000000000E+00 0.  1.
         22   -1    0    0    0    0 -0.00000000000E+00 -0.00000000000E+00 -0.32538813424E+03  0.32538813424E+03  0.00000000000E+00 0. -1.
        -24    2    1    2    0    0  0.29930879182E+02  0.20589387243E+02 -0.28888582026E+03  0.30197274274E+03  0.80079584261E+02 0.  0.
         25    2    1    2    0    0  0.64982516303E+02 -0.18325625605E+02  0.18967356134E+03  0.23702822418E+03  0.12509101968E+03 0.  0.
         24    2    1    2    0    0 -0.94913395485E+02 -0.22637616382E+01  0.60082471756E+03  0.61338776020E+03  0.78996999142E+02 0.  0.
        -13    1    5    5    0    0 -0.64803082969E+02  0.79510489608E+01  0.54692835059E+03  0.55081147357E+03  0.00000000000E+00 0.  1.
         14    1    5    5    0    0 -0.30110312517E+02 -0.10214810599E+02  0.53896366973E+02  0.62576286629E+02  0.00000000000E+00 0. -1.
         13    1    3    3    0    0  0.22615916293E+01  0.43979754296E+02 -0.21756033779E+03  0.22197259778E+03  0.00000000000E+00 0. -1.
        -14    1    3    3    0    0  0.27669287553E+02 -0.23390367053E+02 -0.71325482468E+02  0.80000144961E+02  0.00000000000E+00 0.  1.
          5    1    4    4  501    0 -0.20915226219E+02 -0.83158696650E+01 -0.54728056425E+01  0.23537722441E+02  0.41800000000E+01 0. -1.
         -5    1    4    4    0  501  0.85897742522E+02 -0.10009755940E+02  0.19514636698E+03  0.21349050173E+03  0.41800000000E+01 0. -1.
</event>
<event>
11    1  0.8039394E-009  0.1889334E+03  0.7561462E-02  0.1062637E+00
         22   -1    0    0    0    0  0.00000000000E+00  0.00000000000E+00  0.10491555884E+03  0.10491555884E+03  0.00000000000E+00 0.  1.
         22   -1    0    0    0    0 -0.00000000000E+00 -0.00000000000E+00 -0.17299489123E+04  0.17299489123E+04  0.00000000000E+00 0.  1.
        -24    2    1    2    0    0  0.47183315310E+02  0.15198702914E+02 -0.11576442944E+04  0.11616368615E+04  0.82477995482E+02 0.  0.
         25    2    1    2    0    0 -0.23128097938E+02 -0.15357632119E+03 -0.46975844085E+03  0.51033443816E+03  0.12509056993E+03 0.  0.
         24    2    1    2    0    0 -0.24055217372E+02  0.13837761827E+03  0.23693818491E+01  0.16289317146E+03  0.82471526102E+02 0.  0.
        -11    1    5    5    0    0  0.57560695172E+01  0.11084423551E+03  0.28541695035E+02  0.11460456028E+03  0.00000000000E+00 0.  1.
         12    1    5    5    0    0 -0.29811286889E+02  0.27533382764E+02 -0.26172313186E+02  0.48288611183E+02  0.00000000000E+00 0. -1.
         13    1    3    3    0    0 -0.95167260386E+00  0.14638810185E+01  0.93236013858E+00  0.19793746006E+01  0.00000000000E+00 0. -1.
        -14    1    3    3    0    0  0.48134987914E+02  0.13734821895E+02 -0.11585766546E+04  0.11596574869E+04  0.00000000000E+00 0.  1.
          5    1    4    4  501    0 -0.31205488788E+02 -0.85043221408E+02 -0.10349685610E+03  0.13760524576E+03  0.41800000000E+01 0.  1.
         -5    1    4    4    0  501  0.80773908501E+01 -0.68533099778E+02 -0.36626158475E+03  0.37272919240E+03  0.41800000000E+01 0.  1.
</event>
<event>
11    1  0.8039394E-009  0.1448574E+03  0.7561462E-02  0.1102252E+00
         22   -1    0    0    0    0  0.00000000000E+00  0.00000000000E+00  0.12105460178E+04  0.12105460178E+04  0.00000000000E+00 0. -1.
         22   -1    0    0    0    0 -0.00000000000E+00 -0.00000000000E+00 -0.18164505699E+04  0.18164505699E+04  0.00000000000E+00 0.  1.
        -24    2    1    2    0    0  0.70486553564E+02 -0.14962739930E+01 -0.15135857577E+04  0.15178486176E+04  0.89173914855E+02 0.  0.
         25    2    1    2    0    0 -0.98056630098E+02  0.19248459575E+02 -0.27771372503E+03  0.32055931596E+03  0.12509099120E+03 0.  0.
         24    2    1    2    0    0  0.27570076534E+02 -0.17752185583E+02  0.11853949306E+04  0.11885886542E+04  0.80663486536E+02 0.  0.
        -13    1    5    5    0    0 -0.11404625250E+02 -0.16851655342E+02  0.81370178448E+02  0.83875799284E+02  0.00000000000E+00 0.  1.
         14    1    5    5    0    0  0.38974701784E+02 -0.90053024009E+00  0.11040247522E+04  0.11047128549E+04  0.00000000000E+00 0. -1.
         11    1    3    3    0    0  0.18190980826E+02  0.18978341328E+02 -0.10844085626E+03  0.11158184677E+03  0.00000000000E+00 0. -1.
        -12    1    3    3    0    0  0.52295572739E+02 -0.20474615321E+02 -0.14051449015E+04  0.14062667709E+04  0.00000000000E+00 0.  1.
          5    1    4    4  501    0 -0.38885659896E+02  0.46720753767E+02 -0.23428235080E+03  0.24207564040E+03  0.41800000000E+01 0. -1.
         -5    1    4    4    0  501 -0.59170970202E+02 -0.27472294192E+02 -0.43431374230E+02  0.78483675566E+02  0.41800000000E+01 0. -1.
</event>
<event>
11    1  0.1291170E-008  0.3689905E+04  0.7561462E-02  0.7594749E-01
         22   -1    0    0    0    0  0.00000000000E+00  0.00000000000E+00  0.12626007462E+04  0.12626007462E+04  0.00000000000E+00 0.  1.
         22   -1    0    0    0    0 -0.00000000000E+00 -0.00000000000E+00 -0.26959035468E+04  0.26959035468E+04  0.00000000000E+00 0.  1.
        -24    2    1    2    0    0 -0.12681962495E+04 -0.27200935207E+02 -0.60433968258E+03  0.14074407727E+04  0.81249360066E+02 0.  0.
         25    2    1    2    0    0  0.17132505744E+04 -0.28741531155E+03 -0.95417123435E+03  0.19859319226E+04  0.12509102576E+03 0.  0.
         24    2    1    2    0    0 -0.44505432490E+03  0.31461624675E+03  0.12520811634E+03  0.56513159780E+03  0.81485677281E+02 0.  0.
        -11    1    5    5    0    0 -0.11523671348E+03  0.12248776767E+03  0.21116511240E+02  0.16949531088E+03  0.00000000000E+00 0.  1.
         12    1    5    5    0    0 -0.32981761143E+03  0.19212847908E+03  0.10409160510E+03  0.39563628693E+03  0.00000000000E+00 0. -1.
         11    1    3    3    0    0 -0.72949181937E+03  0.20864044063E+02 -0.32849769915E+03  0.80031516368E+03  0.00000000000E+00 0. -1.
        -12    1    3    3    0    0 -0.53870443011E+03 -0.48064979269E+02 -0.27584198343E+03  0.60712560898E+03  0.00000000000E+00 0.  1.
          5    1    4    4  501    0  0.97592923221E+03 -0.18367056910E+03 -0.61174829179E+03  0.11663730917E+04  0.41800000000E+01 0. -1.
         -5    1    4    4    0  501  0.73732134218E+03 -0.10374474244E+03 -0.34242294255E+03  0.81955883084E+03  0.41800000000E+01 0. -1.
</event>
<event>
11    1  0.8039394E-009  0.2169901E+03  0.7561462E-02  0.1043119E+00
         22   -1    0    0    0    0  0.00000000000E+00  0.00000000000E+00  0.36436363631E+03  0.36436363631E+03  0.00000000000E+00 0.  1.
         22   -1    0    0    0    0 -0.00000000000E+00 -0.00000000000E+00 -0.54620335030E+03  0.54620335030E+03  0.00000000000E+00 0. -1.
         24    2    1    2    0    0  0.11033844533E+03 -0.12608822237E+03 -0.30535349581E+03  0.35737167948E+03  0.80005922038E+02 0.  0.
         25    2    1    2    0    0 -0.10421556702E+03  0.17810040894E+03 -0.13542059215E+03  0.27670685222E+03  0.12508918905E+03 0.  0.
        -24    2    1    2    0    0 -0.61228783073E+01 -0.52012186574E+02  0.25893437396E+03  0.27648845490E+03  0.81584915812E+02 0.  0.
        -11    1    3    3    0    0  0.32371502502E+02 -0.33488951209E+02 -0.27003347613E+02  0.53838692495E+02  0.00000000000E+00 0.  1.
         12    1    3    3    0    0  0.77966942824E+02 -0.92599271158E+02 -0.27835014819E+03  0.30353298699E+03  0.00000000000E+00 0. -1.
         11    1    5    5    0    0 -0.36836556767E+02 -0.15435419397E+02  0.61289604003E+02  0.73154628324E+02  0.00000000000E+00 0. -1.
        -12    1    5    5    0    0  0.30713678460E+02 -0.36576767176E+02  0.19764476995E+03  0.20333382658E+03  0.00000000000E+00 0.  1.
          5    1    4    4  501    0 -0.10865827144E+03  0.84512295512E+02 -0.11791185791E+03  0.18129982537E+03  0.41800000000E+01 0.  1.
         -5    1    4    4    0  501  0.44427044252E+01  0.93588113428E+02 -0.17508734239E+02  0.95407026850E+02  0.41800000000E+01 0.  1.
</event>
<event>
11    1  0.8039394E-009  0.1382208E+03  0.7561462E-02  0.1109562E+00
         22   -1    0    0    0    0  0.00000000000E+00  0.00000000000E+00  0.22764481902E+04  0.22764481902E+04  0.00000000000E+00 0.  1.
         22   -1    0    0    0    0 -0.00000000000E+00 -0.00000000000E+00 -0.45393512719E+03  0.45393512719E+03  0.00000000000E+00 0. -1.
         24    2    1    2    0    0 -0.12088350495E+02 -0.16510224769E+02 -0.43726850266E+03  0.44486793568E+03  0.79278124576E+02 0.  0.
         25    2    1    2    0    0 -0.25022444870E+02  0.61402399179E+02  0.42097863563E+03  0.44415025053E+03  0.12510018394E+03 0.  0.
        -24    2    1    2    0    0  0.37110795366E+02 -0.44892174410E+02  0.18388029300E+04  0.18413651312E+04  0.77696926167E+02 0.  0.
        -13    1    3    3    0    0  0.11324365815E+02 -0.40191941288E+02 -0.15094180216E+03  0.15661117790E+03  0.00000000000E+00 0.  1.
         14    1    3    3    0    0 -0.23412716310E+02  0.23681716519E+02 -0.28632670050E+03  0.28825675777E+03  0.00000000000E+00 0. -1.
         13    1    5    5    0    0  0.98520495976E+01 -0.89412647254E+01  0.43355720955E+02  0.45351159144E+02  0.00000000000E+00 0. -1.
        -14    1    5    5    0    0  0.27258745768E+02 -0.35950909685E+02  0.17954472091E+04  0.17960139720E+04  0.00000000000E+00 0.  1.
          5    1    4    4  501    0 -0.66981944159E+02  0.62109066635E+02  0.21074262761E+03  0.22972602049E+03  0.41800000000E+01 0.  1.
         -5    1    4    4    0  501  0.41959499289E+02 -0.70666745612E+00  0.21023600802E+03  0.21442423004E+03  0.41800000000E+01 0.  1.
</event>
<event>
11    1  0.8039394E-009  0.5276399E+03  0.7561462E-02  0.9333795E-01
         22   -1    0    0    0    0  0.00000000000E+00  0.00000000000E+00  0.20485995343E+04  0.20485995343E+04  0.00000000000E+00 0.  1.
         22   -1    0    0    0    0 -0.00000000000E+00 -0.00000000000E+00 -0.35415461339E+03  0.35415461339E+03  0.00000000000E+00 0. -1.
        -24    2    1    2    0    0  0.15386252941E+03  0.49670081313E+03 -0.67177710212E+02  0.53060538886E+03  0.81509865730E+02 0.  0.
         25    2    1    2    0    0 -0.23080165706E+03 -0.41907817265E+03  0.12921982452E+04  0.13835890668E+04  0.12508589474E+03 0.  0.
         24    2    1    2    0    0  0.76939127651E+02 -0.77622640480E+02  0.46942438590E+03  0.48855969205E+03  0.79915048289E+02 0.  0.
        -11    1    5    5    0    0 -0.11013924045E+02 -0.84712970232E+01  0.13930531668E+03  0.13999657371E+03  0.00000000000E+00 0.  1.
         12    1    5    5    0    0  0.87953051695E+02 -0.69151343457E+02  0.33011906922E+03  0.34856311834E+03  0.00000000000E+00 0. -1.
         11    1    3    3    0    0  0.10093543623E+03  0.33420691649E+03 -0.83403257296E+02  0.35894056422E+03  0.00000000000E+00 0. -1.
        -12    1    3    3    0    0  0.52927093174E+02  0.16249389664E+03  0.16225547084E+02  0.17166482463E+03  0.00000000000E+00 0.  1.
          5    1    4    4  501    0 -0.19038606191E+03 -0.21928168766E+03  0.73987210760E+03  0.79483301335E+03  0.41800000000E+01 0.  1.
         -5    1    4    4    0  501 -0.40415595154E+02 -0.19979648500E+03  0.55232613762E+03  0.58875605343E+03  0.41800000000E+01 0.  1.
</event>
<event>
11    1  0.8039394E-009  0.1446713E+03  0.7561462E-02  0.1102451E+00
         22   -1    0    0    0    0  0.00000000000E+00  0.00000000000E+00  0.32620209663E+03  0.32620209663E+03  0.00000000000E+00 0.  1.
         22   -1    0    0    0    0 -0.00000000000E+00 -0.00000000000E+00 -0.41375309122E+03  0.41375309122E+03  0.00000000000E+00 0. -1.
         24    2    1    2    0    0 -0.75670725708E+02 -0.37685138450E+02 -0.29499870787E+03  0.31689400362E+03  0.79065438056E+02 0.  0.
         25    2    1    2    0    0  0.28571073672E+02  0.40017066212E+01 -0.56973881495E+02  0.14044869807E+03  0.12508994248E+03 0.  0.
        -24    2    1    2    0    0  0.47099652036E+02  0.33683431829E+02  0.26442159478E+03  0.28261248616E+03  0.81228607917E+02 0.  0.
        -11    1    3    3    0    0 -0.18416073363E+02 -0.53275308429E+02 -0.14788359455E+03  0.15826233849E+03  0.00000000000E+00 0.  1.
         12    1    3    3    0    0 -0.57254652345E+02  0.15590169979E+02 -0.14711511332E+03  0.15863166513E+03  0.00000000000E+00 0. -1.
         11    1    5    5    0    0 -0.95066117659E+01  0.31091935884E+01  0.15757273980E+03  0.15788987010E+03  0.00000000000E+00 0. -1.
        -12    1    5    5    0    0  0.56606263802E+02  0.30574238241E+02  0.10684885498E+03  0.12472261606E+03  0.00000000000E+00 0.  1.
          5    1    4    4  501    0  0.41514488042E+02 -0.53567704673E+02 -0.40426095067E+02  0.79023371630E+02  0.41800000000E+01 0.  1.
         -5    1    4    4    0  501 -0.12943414370E+02  0.57569411294E+02 -0.16547786428E+02  0.61425326438E+02  0.41800000000E+01 0.  1.
</event>
<event>
11    1  0.8039394E-009  0.1279971E+03  0.7561462E-02  0.1121755E+00
         22   -1    0    0    0    0  0.00000000000E+00  0.00000000000E+00  0.55446887636E+03  0.55446887636E+03  0.00000000000E+00 0. -1.
         22   -1    0    0    0    0 -0.00000000000E+00 -0.00000000000E+00 -0.25243747987E+03  0.25243747987E+03  0.00000000000E+00 0.  1.
        -24    2    1    2    0    0  0.21372290581E+02 -0.17424014694E+02 -0.19913608843E+03  0.21577228283E+03  0.78371711918E+02 0.  0.
         25    2    1    2    0    0 -0.20448184349E+02  0.85518325286E+01  0.54487123978E+02  0.13823969022E+03  0.12510037246E+03 0.  0.
         24    2    1    2    0    0 -0.92410623194E+00  0.88721821659E+01  0.44668036093E+03  0.45289438319E+03  0.74232121707E+02 0.  0.
        -13    1    5    5    0    0 -0.14399431375E+02  0.32233401780E+02  0.11953542312E+03  0.12463969350E+03  0.00000000000E+00 0.  1.
         14    1    5    5    0    0  0.13475325143E+02 -0.23361219614E+02  0.32714493781E+03  0.32825468970E+03  0.00000000000E+00 0. -1.
         11    1    3    3    0    0  0.38105511102E+02  0.18193967864E+02 -0.12336090477E+03  0.13038774202E+03  0.00000000000E+00 0. -1.
        -12    1    3    3    0    0 -0.16733220522E+02 -0.35617982558E+02 -0.75775183653E+02  0.85384540803E+02  0.00000000000E+00 0.  1.
          5    1    4    4  501    0  0.10976953850E+02 -0.54423742404E+02  0.16079583406E+02  0.57952244612E+02  0.41800000000E+01 0.  1.
         -5    1    4    4    0  501 -0.31425138199E+02  0.62975574932E+02  0.38407540572E+02  0.80287445605E+02  0.41800000000E+01 0.  1.
</event>
<event>
11    1  0.8039394E-009  0.1505036E+03  0.7561462E-02  0.1096365E+00
         22   -1    0    0    0    0  0.00000000000E+00  0.00000000000E+00  0.34257386419E+03  0.34257386419E+03  0.00000000000E+00 0. -1.
         22   -1    0    0    0    0 -0.00000000000E+00 -0.00000000000E+00 -0.46397005990E+03  0.46397005990E+03  0.00000000000E+00 0. -1.
         24    2    1    2    0    0  0.11935848672E+01 -0.12006664678E+02 -0.37259683808E+03  0.38270776176E+03  0.86551964300E+02 0.  0.
         25    2    1    2    0    0  0.32375088855E+02  0.86908414493E+02  0.98507372260E+01  0.15603108754E+03  0.12508974525E+03 0.  0.
        -24    2    1    2    0    0 -0.33568673722E+02 -0.74901749815E+02  0.24134990515E+03  0.26780507479E+03  0.82052747599E+02 0.  0.
        -13    1    3    3    0    0  0.15218928620E+02  0.33889449499E+02 -0.12099243296E+03  0.12656729202E+03  0.00000000000E+00 0.  1.
         14    1    3    3    0    0 -0.14025343753E+02 -0.45896114177E+02 -0.25160440511E+03  0.25614046974E+03  0.00000000000E+00 0. -1.
         13    1    5    5    0    0 -0.48437146573E+02 -0.34424494647E+02  0.19773868512E+03  0.20647467301E+03  0.00000000000E+00 0. -1.
        -14    1    5    5    0    0  0.14868472851E+02 -0.40477255168E+02  0.43611220025E+02  0.61330401784E+02  0.00000000000E+00 0.  1.
          5    1    4    4  501    0  0.31956673686E+02  0.78441202590E+02  0.60713868723E+02  0.10429715966E+03  0.41800000000E+01 0. -1.
         -5    1    4    4    0  501  0.41841516870E+00  0.84672119028E+01 -0.50863131497E+02  0.51733927884E+02  0.41800000000E+01 0. -1.
</event>
<event>
11    1  0.8039394E-009  0.1467847E+03  0.7561462E-02  0.1100210E+00
         22   -1    0    0    0    0  0.00000000000E+00  0.00000000000E+00  0.66773991647E+03  0.66773991647E+03  0.00000000000E+00 0.  1.
         22   -1    0    0    0    0 -0.00000000000E+00 -0.00000000000E+00 -0.38359946436E+03  0.38359946436E+03  0.00000000000E+00 0.  1.
         24    2    1    2    0    0  0.74366489720E+02  0.16297416762E+02 -0.34510152068E+03  0.36293779724E+03  0.82660779707E+02 0.  0.
         25    2    1    2    0    0 -0.95532851728E+02 -0.82546583305E+01  0.21790743547E+03  0.26893391927E+03  0.12508851808E+03 0.  0.
        -24    2    1    2    0    0  0.21166362008E+02 -0.80427584320E+01  0.41133453732E+03  0.41946766433E+03  0.79021003425E+02 0.  0.
        -11    1    3    3    0    0  0.10010700571E+02  0.63922038709E+01 -0.23296454393E+03  0.23326712826E+03  0.00000000000E+00 0.  1.
         12    1    3    3    0    0  0.64355789149E+02  0.99052128915E+01 -0.11213697674E+03  0.12967066898E+03  0.00000000000E+00 0. -1.
         11    1    5    5    0    0  0.37930058876E+02 -0.16155131370E+02  0.10862028540E+03  0.11618108295E+03  0.00000000000E+00 0. -1.
        -12    1    5    5    0    0 -0.16763696868E+02  0.81123729384E+01  0.30271425192E+03  0.30328658137E+03  0.00000000000E+00 0.  1.
          5    1    4    4  501    0 -0.66835703528E+02 -0.71574168571E+01  0.22836321354E+03  0.23808710503E+03  0.41800000000E+01 0. -1.
         -5    1    4    4    0  501 -0.28697148200E+02 -0.10972414734E+01 -0.10455778071E+02  0.30846814240E+02  0.41800000000E+01 0. -1.
</event>
<event>
11    1  0.8039394E-009  0.1842339E+03  0.7561462E-02  0.1066269E+00
         22   -1    0    0    0    0  0.00000000000E+00  0.00000000000E+00  0.31836746783E+03  0.31836746783E+03  0.00000000000E+00 0. -1.
         22   -1    0    0    0    0 -0.00000000000E+00 -0.00000000000E+00 -0.11257424291E+04  0.11257424291E+04  0.00000000000E+00 0.  1.
         24    2    1    2    0    0 -0.33648673565E+02 -0.13145494887E+03 -0.10306035205E+04  0.10424613833E+04  0.78546053150E+02 0.  0.
         25    2    1    2    0    0  0.61297178014E+02  0.11599232303E+03  0.22020429360E+02  0.18260258207E+03  0.12508893090E+03 0.  0.
        -24    2    1    2    0    0 -0.27648504448E+02  0.15462625837E+02  0.20120812987E+03  0.21904593151E+03  0.80578384127E+02 0.  0.
        -11    1    3    3    0    0 -0.48737732059E+02 -0.63221592453E+02 -0.39198101706E+03  0.40002681662E+03  0.00000000000E+00 0.  1.
         12    1    3    3    0    0  0.15089058494E+02 -0.68233356418E+02 -0.63862250342E+03  0.64243456670E+03  0.00000000000E+00 0. -1.
         11    1    5    5    0    0 -0.24085276344E+02  0.46906959270E+02  0.14830946511E+03  0.15740413211E+03  0.00000000000E+00 0. -1.
        -12    1    5    5    0    0 -0.35632281047E+01 -0.31444333433E+02  0.52898664767E+02  0.61641799403E+02  0.00000000000E+00 0.  1.
          5    1    4    4  501    0 -0.38139161016E+01  0.61961712063E+02 -0.43153666716E+02  0.75719951591E+02  0.41800000000E+01 0. -1.
         -5    1    4    4    0  501  0.65111094115E+02  0.54030610970E+02  0.65174096076E+02  0.10688263048E+03  0.41800000000E+01 0. -1.
</event>
<event>
11    1  0.8039394E-009  0.1559599E+03  0.7561462E-02  0.1090940E+00
         22   -1    0    0    0    0  0.00000000000E+00  0.00000000000E+00  0.12923260671E+04  0.12923260671E+04  0.00000000000E+00 0.  1.
         22   -1    0    0    0    0 -0.00000000000E+00 -0.00000000000E+00 -0.14478555074E+04  0.14478555074E+04  0.00000000000E+00 0. -1.
        -24    2    1    2    0    0 -0.21278748635E+02  0.90274267329E+02 -0.13956543475E+04  0.14011468860E+04  0.82215021709E+02 0.  0.
         25    2    1    2    0    0  0.47505955887E+02 -0.10725864560E+03  0.10604737189E+03  0.20163052277E+03  0.12509032628E+03 0.  0.
         24    2    1    2    0    0 -0.26227207252E+02  0.16984378275E+02  0.11340775353E+04  0.11374041657E+04  0.81117473404E+02 0.  0.
        -11    1    5    5    0    0 -0.24214871857E+02 -0.10847784461E+02  0.11812051958E+03  0.12106399792E+03  0.00000000000E+00 0.  1.
         12    1    5    5    0    0 -0.20123353944E+01  0.27832162735E+02  0.10159570157E+04  0.10163401678E+04  0.00000000000E+00 0. -1.
         13    1    3    3    0    0  0.72118297126E+01  0.72527459140E+02 -0.12282488609E+04  0.12304094876E+04  0.00000000000E+00 0. -1.
        -14    1    3    3    0    0 -0.28490578347E+02  0.17746808190E+02 -0.16740548659E+03  0.17073739835E+03  0.00000000000E+00 0.  1.
          5    1    4    4  501    0  0.66092450948E+02 -0.19239308074E+02  0.84429987080E+02  0.10901494469E+03  0.41800000000E+01 0.  1.
         -5    1    4    4    0  501 -0.18586495061E+02 -0.88019337530E+02  0.21617384809E+02  0.92615578084E+02  0.41800000000E+01 0.  1.
</event>
<event>
11    1  0.8039394E-009  0.3255098E+03  0.7561462E-02  0.9899378E-01
         22   -1    0    0    0    0  0.00000000000E+00  0.00000000000E+00  0.89522083068E+03  0.89522083068E+03  0.00000000000E+00 0. -1.
         22   -1    0    0    0    0 -0.00000000000E+00 -0.00000000000E+00 -0.97901722971E+03  0.97901722971E+03  0.00000000000E+00 0. -1.
        -24    2    1    2    0    0 -0.33082178656E+02 -0.28636517825E+02 -0.66189128599E+03  0.66804859034E+03  0.79210882387E+02 0.  0.
         25    2    1    2    0    0  0.26461302399E+03 -0.16177979126E+03 -0.18516709659E+03  0.38226594462E+03  0.12509054893E+03 0.  0.
         24    2    1    2    0    0 -0.23153084534E+03  0.19041630908E+03  0.76326198355E+03  0.82392352543E+03  0.80101292876E+02 0.  0.
        -13    1    5    5    0    0 -0.11162911837E+03  0.12791416168E+03  0.34803711011E+03  0.38723755350E+03  0.00000000000E+00 0.  1.
         14    1    5    5    0    0 -0.11990172696E+03  0.62502147404E+02  0.41522487344E+03  0.43668597193E+03  0.00000000000E+00 0. -1.
         11    1    3    3    0    0 -0.35141132238E+02 -0.33127387268E+01 -0.60144240875E+03  0.60247725638E+03  0.00000000000E+00 0. -1.
        -12    1    3    3    0    0  0.20589535824E+01 -0.25323779099E+02 -0.60448877240E+02  0.65571333960E+02  0.00000000000E+00 0.  1.
          5    1    4    4  501    0  0.84470095150E+02 -0.40405588286E+02 -0.12610584414E+03  0.15712404292E+03  0.41800000000E+01 0.  1.
         -5    1    4    4    0  501  0.18014292884E+03 -0.12137420297E+03 -0.59061252455E+02  0.22514190170E+03  0.41800000000E+01 0.  1.
</event>
<event>
11    1  0.8039394E-009  0.1292113E+03  0.7561462E-02  0.1120242E+00
         22   -1    0    0    0    0  0.00000000000E+00  0.00000000000E+00  0.22049263337E+03  0.22049263337E+03  0.00000000000E+00 0. -1.
         22   -1    0    0    0    0 -0.00000000000E+00 -0.00000000000E+00 -0.72925730144E+03  0.72925730144E+03  0.00000000000E+00 0. -1.
        -24    2    1    2    0    0 -0.13999071170E+00 -0.40261767468E+02 -0.31818944575E+03  0.33124755451E+03  0.82821431167E+02 0.  0.
         25    2    1    2    0    0  0.41236646210E+01  0.19979083837E+02 -0.38530986528E+03  0.40562010398E+03  0.12509119900E+03 0.  0.
         24    2    1    2    0    0 -0.39836739093E+01  0.20282683631E+02  0.19473464296E+03  0.21288227633E+03  0.83486678543E+02 0.  0.
        -13    1    5    5    0    0  0.55902378536E+01  0.35355250229E+02  0.28671099751E+02  0.45861491896E+02  0.00000000000E+00 0.  1.
         14    1    5    5    0    0 -0.95739117629E+01 -0.15072566598E+02  0.16606354321E+03  0.16702078443E+03  0.00000000000E+00 0. -1.
         13    1    3    3    0    0  0.17354033958E+02 -0.57805317622E+02 -0.27417466990E+03  0.28073896569E+03  0.00000000000E+00 0. -1.
        -14    1    3    3    0    0 -0.17494024670E+02  0.17543550154E+02 -0.44014775856E+02  0.50508588822E+02  0.00000000000E+00 0.  1.
          5    1    4    4  501    0 -0.31227561931E+02 -0.36629222303E+02 -0.25072587500E+03  0.25533859353E+03  0.41800000000E+01 0. -1.
         -5    1    4    4    0  501  0.35351226552E+02  0.56608306140E+02 -0.13458399028E+03  0.15028151045E+03  0.41800000000E+01 0. -1.
</event>
<event>
11    1  0.8039394E-009  0.1592185E+03  0.7561462E-02  0.1087815E+00
         22   -1    0    0    0    0  0.00000000000E+00  0.00000000000E+00  0.40975420729E+03  0.40975420729E+03  0.00000000000E+00 0.  1.
         22   -1    0    0    0    0 -0.00000000000E+00 -0.00000000000E+00 -0.28003939257E+03  0.28003939257E+03  0.00000000000E+00 0. -1.
        -24    2    1    2    0    0 -0.10843218971E+03 -0.52170415640E+02 -0.10311405331E+03  0.17797068917E+03  0.81004729383E+02 0.  0.
         25    2    1    2    0    0  0.10485628584E+03 -0.52292324885E+02 -0.62259122709E+02  0.18234560210E+03  0.12507754523E+03 0.  0.
         24    2    1    2    0    0  0.35759038671E+01  0.10446274052E+03  0.29508799074E+03  0.32947730859E+03  0.10272839603E+03 0.  0.
        -13    1    5    5    0    0  0.46576882494E+02  0.68642627645E+02  0.22488299632E+03  0.23969476079E+03  0.00000000000E+00 0.  1.
         14    1    5    5    0    0 -0.43000978626E+02  0.35820112879E+02  0.70204994415E+02  0.89782547805E+02  0.00000000000E+00 0. -1.
         13    1    3    3    0    0 -0.46273368838E+02  0.18149522021E+02 -0.23885848780E+02  0.55146745916E+02  0.00000000000E+00 0. -1.
        -14    1    3    3    0    0 -0.62158820871E+02 -0.70319937661E+02 -0.79228204529E+02  0.12282394326E+03  0.00000000000E+00 0.  1.
          5    1    4    4  501    0  0.11920361198E+03 -0.74754180114E+02 -0.65339560620E+02  0.15519155626E+03  0.41800000000E+01 0.  1.
         -5    1    4    4    0  501 -0.14347326135E+02  0.22461855230E+02  0.30804379111E+01  0.27154045837E+02  0.41800000000E+01 0.  1.
</event>
<event>
11    1  0.8039394E-009  0.1749604E+03  0.7561462E-02  0.1073794E+00
         22   -1    0    0    0    0  0.00000000000E+00  0.00000000000E+00  0.80587288590E+03  0.80587288590E+03  0.00000000000E+00 0. -1.
         22   -1    0    0    0    0 -0.00000000000E+00 -0.00000000000E+00 -0.57911663027E+03  0.57911663027E+03  0.00000000000E+00 0.  1.
        -24    2    1    2    0    0 -0.17110735688E+02  0.12192104361E+03 -0.48991275049E+03  0.51138310953E+03  0.79628283083E+02 0.  0.
         25    2    1    2    0    0 -0.82324549503E+02 -0.12239734121E+03  0.56952715721E+02  0.20161734712E+03  0.12508997660E+03 0.  0.
         24    2    1    2    0    0  0.99435285192E+02  0.47629759761E+00  0.65971629041E+03  0.67198905952E+03  0.80349919003E+02 0.  0.
        -13    1    5    5    0    0  0.62607243375E+02 -0.37732236764E+02  0.43442404163E+03  0.44053108467E+03  0.00000000000E+00 0.  1.
         14    1    5    5    0    0  0.36828041816E+02  0.38208534361E+02  0.22529224877E+03  0.23145797485E+03  0.00000000000E+00 0. -1.
         13    1    3    3    0    0  0.52815523023E+01  0.10240162352E+03 -0.25885978083E+03  0.27842839910E+03  0.00000000000E+00 0. -1.
        -14    1    3    3    0    0 -0.22392287991E+02  0.19519420095E+02 -0.23105296966E+03  0.23295471043E+03  0.00000000000E+00 0.  1.
          5    1    4    4  501    0 -0.62836535681E+02 -0.11841525490E+03  0.90920658017E+02  0.16203284008E+03  0.41800000000E+01 0. -1.
         -5    1    4    4    0  501 -0.19488013822E+02 -0.39820863078E+01 -0.33967942295E+02  0.39584507043E+02  0.41800000000E+01 0. -1.
</event>
<event>
11    1  0.8039394E-009  0.2549465E+03  0.7561462E-02  0.1021297E+00
         22   -1    0    0    0    0  0.00000000000E+00  0.00000000000E+00  0.14224423580E+04  0.14224423580E+04  0.00000000000E+00 0.  1.
         22   -1    0    0    0    0 -0.00000000000E+00 -0.00000000000E+00 -0.77724471015E+03  0.77724471015E+03  0.00000000000E+00 0.  1.
         24    2    1    2    0    0  0.28185274334E+02  0.27647366326E+02 -0.64236819378E+03  0.64791615256E+03  0.74830861333E+02 0.  0.
         25    2    1    2    0    0  0.17964470915E+03  0.58980068336E+02 -0.15240855115E+02  0.22722425932E+03  0.12509080850E+03 0.  0.
        -24    2    1    2    0    0 -0.20782998348E+03 -0.86627434663E+02  0.13028066968E+04  0.13245466563E+04  0.80130774830E+02 0.  0.
        -11    1    3    3    0    0  0.43400599877E+02 -0.89284967363E+01 -0.37990167437E+03  0.38247694351E+03  0.00000000000E+00 0.  1.
         12    1    3    3    0    0 -0.15215325543E+02  0.36575863063E+02 -0.26246651941E+03  0.26543920905E+03  0.00000000000E+00 0. -1.
         11    1    5    5    0    0 -0.21625647720E+01 -0.43548397889E+01  0.24254686274E+01  0.54336188717E+01  0.00000000000E+00 0. -1.
        -12    1    5    5    0    0 -0.20566741871E+03 -0.82272594874E+02  0.13003812282E+04  0.13191130374E+04  0.00000000000E+00 0.  1.
          5    1    4    4  501    0  0.26027265852E+02  0.58735889693E+02  0.23850063557E+02  0.68655817215E+02  0.41800000000E+01 0. -1.
         -5    1    4    4    0  501  0.15361744330E+03  0.24417864349E+00 -0.39090918672E+02  0.15856844210E+03  0.41800000000E+01 0. -1.
</event>
<event>
11    1  0.8039394E-009  0.2240480E+03  0.7561462E-02  0.1038711E+00
         22   -1    0    0    0    0  0.00000000000E+00  0.00000000000E+00  0.14859332957E+03  0.14859332957E+03  0.00000000000E+00 0. -1.
         22   -1    0    0    0    0 -0.00000000000E+00 -0.00000000000E+00 -0.29561423284E+04  0.29561423284E+04  0.00000000000E+00 0.  1.
        -24    2    1    2    0    0  0.10330360077E+02 -0.18958933150E+03 -0.27048512819E+04  0.27131956566E+04  0.95704663058E+02 0.  0.
         25    2    1    2    0    0  0.72663308420E+02  0.14129771359E+03 -0.15688528699E+03  0.25593932965E+03  0.12508775693E+03 0.  0.
         24    2    1    2    0    0 -0.82993668497E+02  0.48291617909E+02  0.54187570071E+02  0.13560067177E+03  0.78938077404E+02 0.  0.
        -11    1    5    5    0    0 -0.62852910459E+02 -0.66147376088E+01  0.14265135745E+02  0.64789946787E+02  0.00000000000E+00 0.  1.
         12    1    5    5    0    0 -0.20140758038E+02  0.54906355518E+02  0.39922434326E+02  0.70810724986E+02  0.00000000000E+00 0. -1.
         13    1    3    3    0    0  0.30228226564E+02 -0.37312357793E+02 -0.10903580744E+04  0.10914149935E+04  0.00000000000E+00 0. -1.
        -14    1    3    3    0    0 -0.19897866487E+02 -0.15227697371E+03 -0.16144932075E+04  0.16217806630E+04  0.00000000000E+00 0.  1.
          5    1    4    4  501    0  0.92812675036E+02  0.12932835459E+03 -0.16638537488E+03  0.23030757982E+03  0.41800000000E+01 0.  1.
         -5    1    4    4    0  501 -0.20149366616E+02  0.11969359003E+02  0.95000878863E+01  0.25631749839E+02  0.41800000000E+01 0.  1.
</event>
<event>
11    1  0.8039394E-009  0.1681500E+03  0.7561462E-02  0.1079653E+00
         22   -1    0    0    0    0  0.00000000000E+00  0.00000000000E+00  0.59100666255E+03  0.59100666255E+03  0.00000000000E+00 0.  1.
         22   -1    0    0    0    0 -0.00000000000E+00 -0.00000000000E+00 -0.80363334737E+03  0.80363334737E+03  0.00000000000E+00 0. -1.
        -24    2    1    2    0    0  0.33888381306E+02 -0.10711420231E+01 -0.62672791698E+03  0.63143731058E+03  0.69105900890E+02 0.  0.
         25    2    1    2    0    0 -0.10725331895E+02 -0.10923905415E+03 -0.12409546037E+03  0.20761635268E+03  0.12512658758E+03 0.  0.
         24    2    1    2    0    0 -0.23163049410E+02  0.11031019618E+03  0.53819669254E+03  0.55558634666E+03  0.79471016682E+02 0.  0.
        -11    1    5    5    0    0 -0.44006304994E+02  0.28419272224E+02  0.23982003922E+03  0.24547476678E+03  0.00000000000E+00 0.  1.
         12    1    5    5    0    0  0.20843255584E+02  0.81890923952E+02  0.29837665332E+03  0.31011157988E+03  0.00000000000E+00 0. -1.
         13    1    3    3    0    0  0.54025590742E+02  0.58183006020E+01 -0.39231487512E+03  0.39606006908E+03  0.00000000000E+00 0. -1.
        -14    1    3    3    0    0 -0.20137209436E+02 -0.68894426252E+01 -0.23441304186E+03  0.23537724150E+03  0.00000000000E+00 0.  1.
          5    1    4    4  501    0  0.25256293418E+02 -0.14456583868E+02 -0.98745381424E+02  0.10302910233E+03  0.41800000000E+01 0. -1.
         -5    1    4    4    0  501 -0.35981625313E+02 -0.94782470285E+02 -0.25350078949E+02  0.10458725035E+03  0.41800000000E+01 0. -1.
</event>
<event>
11    1  0.8039394E-009  0.1816743E+03  0.7561462E-02  0.1068297E+00
         22   -1    0    0    0    0  0.00000000000E+00  0.00000000000E+00  0.89837877137E+03  0.89837877137E+03  0.00000000000E+00 0. -1.
         22   -1    0    0    0    0 -0.00000000000E+00 -0.00000000000E+00 -0.56426040944E+03  0.56426040944E+03  0.00000000000E+00 0.  1.
         24    2    1    2    0    0  0.11925863015E+01  0.35037417627E+02 -0.51315990026E+03  0.52069688660E+03  0.81013095107E+02 0.  0.
         25    2    1    2    0    0 -0.82681380416E+02  0.74786585130E+02  0.14330806573E+03  0.22048581005E+03  0.12509015449E+03 0.  0.
        -24    2    1    2    0    0  0.81488794114E+02 -0.10982400276E+03  0.70397019647E+03  0.72145648416E+03  0.78890340798E+02 0.  0.
        -11    1    3    3    0    0 -0.26380479340E+02 -0.14894346493E+02 -0.14356943430E+03  0.14673088874E+03  0.00000000000E+00 0.  1.
         12    1    3    3    0    0  0.27573065641E+02  0.49931764120E+02 -0.36959046596E+03  0.37396599785E+03  0.00000000000E+00 0. -1.
         11    1    5    5    0    0  0.70375418141E+02 -0.11102967557E+03  0.49406576718E+03  0.51125460452E+03  0.00000000000E+00 0. -1.
        -12    1    5    5    0    0  0.11113375973E+02  0.12056728099E+01  0.20990442928E+03  0.21020187964E+03  0.00000000000E+00 0.  1.
          5    1    4    4  501    0 -0.25124342692E+02  0.27997345284E+02 -0.18728541183E+02  0.42229309650E+02  0.41800000000E+01 0. -1.
         -5    1    4    4    0  501 -0.57557037723E+02  0.46789239846E+02  0.16203660691E+03  0.17825650040E+03  0.41800000000E+01 0. -1.
</event>
<event>
11    1  0.8039394E-009  0.1329762E+03  0.7561462E-02  0.1115665E+00
         22   -1    0    0    0    0  0.00000000000E+00  0.00000000000E+00  0.26036576612E+04  0.26036576612E+04  0.00000000000E+00 0.  1.
         22   -1    0    0    0    0 -0.00000000000E+00 -0.00000000000E+00 -0.17814300503E+03  0.17814300503E+03  0.00000000000E+00 0.  1.
         24    2    1    2    0    0  0.12662282215E+01  0.23644319296E+02 -0.14900826331E+03  0.17119790892E+03  0.80898728769E+02 0.  0.
         25    2    1    2    0    0  0.24331353215E+02 -0.59728445781E+02  0.27187636449E+03  0.30613270440E+03  0.12506387628E+03 0.  0.
        -24    2    1    2    0    0 -0.25597581437E+02  0.36084126485E+02  0.23026465550E+04  0.23044700529E+04  0.80273078750E+02 0.  0.
        -13    1    3    3    0    0  0.31138309866E+02  0.16690260793E+02 -0.13089246561E+03  0.13557653447E+03  0.00000000000E+00 0.  1.
         14    1    3    3    0    0 -0.29872081644E+02  0.69540585027E+01 -0.18115797702E+02  0.35621374451E+02  0.00000000000E+00 0. -1.
         11    1    5    5    0    0 -0.21087553814E+02 -0.22116866452E+02  0.10779192154E+04  0.10783522966E+04  0.00000000000E+00 0. -1.
        -12    1    5    5    0    0 -0.45100276224E+01  0.58200992936E+02  0.12247273396E+04  0.12261177563E+04  0.00000000000E+00 0.  1.
          5    1    4    4  501    0 -0.17577499825E+02 -0.18511044319E+02 -0.20416887733E+01  0.25947411334E+02  0.41800000000E+01 0. -1.
         -5    1    4    4    0  501  0.41908853040E+02 -0.41217401462E+02  0.27391805327E+03  0.28018529307E+03  0.41800000000E+01 0. -1.
</event>
<event>
11    1  0.1084983E-008  0.1827521E+03  0.7561462E-02  0.1067438E+00
         22   -1    0    0    0    0  0.00000000000E+00  0.00000000000E+00  0.53706599264E+03  0.53706599264E+03  0.00000000000E+00 0.  1.
         22   -1    0    0    0    0 -0.00000000000E+00 -0.00000000000E+00 -0.73749718775E+03  0.73749718775E+03  0.00000000000E+00 0. -1.
        -24    2    1    2    0    0  0.41894736969E+02 -0.31611144588E+02 -0.50919788569E+03  0.51817871910E+03  0.80450386528E+02 0.  0.
         25    2    1    2    0    0  0.32265675317E+02 -0.82334411911E+02 -0.18369947551E+03  0.23919294420E+03  0.12509091920E+03 0.  0.
         24    2    1    2    0    0 -0.74160412286E+02  0.11394555650E+03  0.49246616608E+03  0.51719151709E+03  0.80503316812E+02 0.  0.
        -11    1    5    5    0    0 -0.76712795767E+02  0.74913897676E+02  0.43252149822E+03  0.44561394898E+03  0.00000000000E+00 0.  1.
         12    1    5    5    0    0  0.25523834804E+01  0.39031658824E+02  0.59944667859E+02  0.71577568111E+02  0.00000000000E+00 0. -1.
         11    1    3    3    0    0  0.49746725102E+02  0.10247563961E+02 -0.33623834512E+03  0.34005289876E+03  0.00000000000E+00 0. -1.
        -12    1    3    3    0    0 -0.78519881329E+01 -0.41858708550E+02 -0.17295954057E+03  0.17812582034E+03  0.00000000000E+00 0.  1.
          5    1    4    4  501    0  0.23913132328E+02 -0.91625589549E+02 -0.54529279240E+02  0.10935264630E+03  0.41800000000E+01 0.  1.
         -5    1    4    4    0  501  0.83525429893E+01  0.92911776371E+01 -0.12917019627E+03  0.12984029790E+03  0.41800000000E+01 0.  1.
</event>
<event>
11    1  0.8039394E-009  0.1542808E+03  0.7561462E-02  0.1092583E+00
         22   -1    0    0    0    0  0.00000000000E+00  0.00000000000E+00  0.96491736315E+03  0.96491736315E+03  0.00000000000E+00 0. -1.
         22   -1    0    0    0    0 -0.00000000000E+00 -0.00000000000E+00 -0.71390179625E+03  0.71390179625E+03  0.00000000000E+00 0.  1.
         24    2    1    2    0    0  0.85877520366E+02 -0.19476868213E+02 -0.55433984395E+03  0.56694281868E+03  0.79857373878E+02 0.  0.
         25    2    1    2    0    0 -0.94455759115E+02  0.61312459844E+02 -0.10400857018E+03  0.19787444120E+03  0.12512155548E+03 0.  0.
        -24    2    1    2    0    0  0.85782387489E+01 -0.41835591631E+02  0.90936398104E+03  0.91400189952E+03  0.81442123074E+02 0.  0.
        -13    1    3    3    0    0  0.74928871971E+02  0.27596150896E+01 -0.51511388432E+03  0.52054227989E+03  0.00000000000E+00 0.  1.
         14    1    3    3    0    0  0.10948648395E+02 -0.22236483303E+02 -0.39225959626E+02  0.46400538789E+02  0.00000000000E+00 0. -1.
         13    1    5    5    0    0 -0.21445620050E+02 -0.55063495627E+02  0.60022425936E+03  0.60312607694E+03  0.00000000000E+00 0. -1.
        -14    1    5    5    0    0  0.30023858799E+02  0.13227903996E+02  0.30913972168E+03  0.31087582258E+03  0.00000000000E+00 0.  1.
          5    1    4    4  501    0 -0.68746379918E+02 -0.98021345694E+01 -0.43917980557E+00  0.69568756442E+02  0.41800000000E+01 0.  1.
         -5    1    4    4    0  501 -0.25709379197E+02  0.71114594414E+02 -0.10356939038E+03  0.12830568476E+03  0.41800000000E+01 0.  1.
</event>
<event>
11    1  0.8039394E-009  0.1297204E+03  0.7561462E-02  0.1119613E+00
         22   -1    0    0    0    0  0.00000000000E+00  0.00000000000E+00  0.38574084528E+04  0.38574084528E+04  0.00000000000E+00 0. -1.
         22   -1    0    0    0    0 -0.00000000000E+00 -0.00000000000E+00 -0.47927093431E+03  0.47927093431E+03  0.00000000000E+00 0.  1.
        -24    2    1    2    0    0 -0.15982104713E+02 -0.82142502285E+00 -0.44874513585E+03  0.45656204304E+03  0.82586922604E+02 0.  0.
         25    2    1    2    0    0  0.50023153895E+02 -0.27963825391E+00  0.14778684798E+03  0.19997309763E+03  0.12508354495E+03 0.  0.
         24    2    1    2    0    0 -0.34041049182E+02  0.11010632768E+01  0.36790958063E+04  0.36801442464E+04  0.80967382056E+02 0.  0.
        -13    1    5    5    0    0 -0.29600347927E+02  0.51864804232E+01  0.43247239409E+03  0.43351522675E+03  0.00000000000E+00 0.  1.
         14    1    5    5    0    0 -0.44407012546E+01 -0.40854171465E+01  0.32466234122E+04  0.32466290197E+04  0.00000000000E+00 0. -1.
         13    1    3    3    0    0  0.19843655919E+02 -0.30512902032E+02 -0.15967074057E+03  0.16376676484E+03  0.00000000000E+00 0. -1.
        -14    1    3    3    0    0 -0.35825760632E+02  0.29691477009E+02 -0.28907439527E+03  0.29279527820E+03  0.00000000000E+00 0.  1.
          5    1    4    4  501    0 -0.22418237871E+02 -0.96340886125E+01 -0.94894398849E+01  0.26512542729E+02  0.41800000000E+01 0. -1.
         -5    1    4    4    0  501  0.72441391766E+02  0.93544503586E+01  0.15727628787E+03  0.17346055490E+03  0.41800000000E+01 0. -1.
</event>
<event>
11    1  0.8039394E-009  0.1602291E+03  0.7561462E-02  0.1086862E+00
         22   -1    0    0    0    0  0.00000000000E+00  0.00000000000E+00  0.11702187766E+03  0.11702187766E+03  0.00000000000E+00 0.  1.
         22   -1    0    0    0    0 -0.00000000000E+00 -0.00000000000E+00 -0.21651583545E+04  0.21651583545E+04  0.00000000000E+00 0.  1.
         24    2    1    2    0    0 -0.76080288771E+01 -0.32256763342E+02 -0.19512831691E+04  0.19532197976E+04  0.80393973793E+02 0.  0.
         25    2    1    2    0    0 -0.74899425120E+02 -0.35739879985E+02 -0.12114004463E+03  0.19289863175E+03  0.12509080227E+03 0.  0.
        -24    2    1    2    0    0  0.82507453998E+02  0.67996643327E+02  0.24286736874E+02  0.13606180278E+03  0.80572607740E+02 0.  0.
        -11    1    3    3    0    0  0.16441295109E+02 -0.50855121571E+02 -0.97541563914E+03  0.97687881984E+03  0.00000000000E+00 0.  1.
         12    1    3    3    0    0 -0.24049323986E+02  0.18598358229E+02 -0.97586752995E+03  0.97634097779E+03  0.00000000000E+00 0. -1.
         13    1    5    5    0    0  0.10490753942E+02  0.32409243931E+02 -0.24606327072E+02  0.42022450457E+02  0.00000000000E+00 0. -1.
        -14    1    5    5    0    0  0.72016700055E+02  0.35587399396E+02  0.48893063946E+02  0.94039352320E+02  0.00000000000E+00 0.  1.
          5    1    4    4  501    0 -0.43116198667E+02 -0.78965169232E+02 -0.47895768145E+02  0.10200971300E+03  0.41800000000E+01 0.  1.
         -5    1    4    4    0  501 -0.31783226453E+02  0.43225289247E+02 -0.73244276487E+02  0.90888918754E+02  0.41800000000E+01 0.  1.
</event>
<event>
11    1  0.8039394E-009  0.1359158E+03  0.7561462E-02  0.1112207E+00
         22   -1    0    0    0    0  0.00000000000E+00  0.00000000000E+00  0.24225967203E+04  0.24225967203E+04  0.00000000000E+00 0. -1.
         22   -1    0    0    0    0 -0.00000000000E+00 -0.00000000000E+00 -0.10094167457E+04  0.10094167457E+04  0.00000000000E+00 0. -1.
         24    2    1    2    0    0 -0.47407287477E+02 -0.20843503867E+02 -0.82660261878E+03  0.83195253985E+03  0.78684411655E+02 0.  0.
         25    2    1    2    0    0  0.45853152903E+02  0.65493675393E+02 -0.14852755488E+03  0.20998452911E+03  0.12506452238E+03 0.  0.
        -24    2    1    2    0    0  0.15541345737E+01 -0.44650171526E+02  0.23883101482E+04  0.23900763971E+04  0.80273076020E+02 0.  0.
        -13    1    3    3    0    0  0.14892072731E+02  0.33035311120E+01 -0.45324060355E+02  0.47822145446E+02  0.00000000000E+00 0.  1.
         14    1    3    3    0    0 -0.62299360207E+02 -0.24147034979E+02 -0.78127855842E+03  0.78413039441E+03  0.00000000000E+00 0. -1.
         11    1    5    5    0    0 -0.30346079075E+02 -0.19007330534E+02  0.17945800818E+04  0.17949372783E+04  0.00000000000E+00 0. -1.
        -12    1    5    5    0    0  0.31900213648E+02 -0.25642840991E+02  0.59373006642E+03  0.59513911878E+03  0.00000000000E+00 0.  1.
          5    1    4    4  501    0  0.20549079301E+02  0.97456452721E+02 -0.13288505840E+03  0.16612024556E+03  0.41800000000E+01 0.  1.
         -5    1    4    4    0  501  0.25304073602E+02 -0.31962777328E+02 -0.15642496476E+02  0.43864283551E+02  0.41800000000E+01 0.  1.
</event>
<event>
11    1  0.8039394E-009  0.1682827E+03  0.7561462E-02  0.1079536E+00
         22   -1    0    0    0    0  0.00000000000E+00  0.00000000000E+00  0.74262889310E+02  0.74262889310E+02  0.00000000000E+00 0. -1.
         22   -1    0    0    0    0 -0.00000000000E+00 -0.00000000000E+00 -0.22087058778E+04  0.22087058778E+04  0.00000000000E+00 0. -1.
        -24    2    1    2    0    0 -0.49508909383E+02  0.94692953320E+02 -0.16540359180E+04  0.16595536394E+04  0.82858776063E+02 0.  0.
         25    2    1    2    0    0  0.12768291587E+03 -0.11166468144E+03 -0.46266488196E+03  0.50840788724E+03  0.12509140147E+03 0.  0.
         24    2    1    2    0    0 -0.78174006489E+02  0.16971728125E+02 -0.17742188591E+02  0.11500724045E+03  0.80701085825E+02 0.  0.
        -11    1    5    5    0    0  0.10976576064E+02 -0.16446708498E+01 -0.21133223522E+02  0.23870553004E+02  0.00000000000E+00 0.  1.
         12    1    5    5    0    0 -0.89150582553E+02  0.18616398975E+02  0.33910349308E+01  0.91136687444E+02  0.00000000000E+00 0. -1.
         11    1    3    3    0    0 -0.63715467622E+02  0.57837358989E+02 -0.13806512960E+04  0.13833303373E+04  0.00000000000E+00 0. -1.
        -12    1    3    3    0    0  0.14206558239E+02  0.36855594331E+02 -0.27338462196E+03  0.27622330216E+03  0.00000000000E+00 0.  1.
          5    1    4    4  501    0  0.15256956633E+03 -0.98412556889E+02 -0.38511676063E+03  0.42578738314E+03  0.41800000000E+01 0. -1.
         -5    1    4    4    0  501 -0.24886650455E+02 -0.13252124556E+02 -0.77548121332E+02  0.82620504103E+02  0.41800000000E+01 0. -1.
</event>
<event>
11    1  0.1045792E-008  0.1758424E+03  0.7561462E-02  0.1073056E+00
         22   -1    0    0    0    0  0.00000000000E+00  0.00000000000E+00  0.23687475307E+03  0.23687475307E+03  0.00000000000E+00 0. -1.
         22   -1    0    0    0    0 -0.00000000000E+00 -0.00000000000E+00 -0.13871790165E+04  0.13871790165E+04  0.00000000000E+00 0.  1.
        -24    2    1    2    0    0 -0.77231479595E+02  0.72611217075E+01 -0.10597286692E+04  0.10654907089E+04  0.78918775968E+02 0.  0.
         25    2    1    2    0    0  0.18720532074E+03 -0.44724190774E+02 -0.24776866559E+03  0.33776114315E+03  0.12508873979E+03 0.  0.
         24    2    1    2    0    0 -0.10997384114E+03  0.37463069067E+02  0.15719307138E+03  0.22080191744E+03  0.10269419545E+03 0.  0.
        -11    1    5    5    0    0 -0.48765590110E+02  0.23666645170E+02  0.29497841673E+01  0.54285302790E+02  0.00000000000E+00 0.  1.
         12    1    5    5    0    0 -0.61208251033E+02  0.13796423897E+02  0.15424328721E+03  0.16651661465E+03  0.00000000000E+00 0. -1.
         11    1    3    3    0    0 -0.43611416969E+02  0.35974455768E+02 -0.36455901192E+03  0.36891650862E+03  0.00000000000E+00 0. -1.
        -12    1    3    3    0    0 -0.33620062626E+02 -0.28713334061E+02 -0.69516965726E+03  0.69657420031E+03  0.00000000000E+00 0.  1.
          5    1    4    4  501    0  0.10351092645E+03 -0.16072223703E+02 -0.40537216955E+02  0.11239913980E+03  0.41800000000E+01 0.  1.
         -5    1    4    4    0  501  0.83694394287E+02 -0.28651967071E+02 -0.20723144863E+03  0.22536200335E+03  0.41800000000E+01 0.  1.
</event>
<event>
11    1  0.8039394E-009  0.1587313E+03  0.7561462E-02  0.1088277E+00
         22   -1    0    0    0    0  0.00000000000E+00  0.00000000000E+00  0.93395324232E+03  0.93395324232E+03  0.00000000000E+00 0. -1.
         22   -1    0    0    0    0 -0.00000000000E+00 -0.00000000000E+00 -0.18346179611E+04  0.18346179611E+04  0.00000000000E+00 0. -1.
        -24    2    1    2    0    0 -0.58602883107E+02 -0.83711648931E+02 -0.16288365905E+04  0.16340214799E+04  0.80471237310E+02 0.  0.
         25    2    1    2    0    0 -0.79401597755E+01  0.69677499829E+02 -0.17528142069E+03  0.22647193471E+03  0.12509180889E+03 0.  0.
         24    2    1    2    0    0  0.66543042883E+02  0.14034149102E+02  0.90345329245E+03  0.90807778881E+03  0.61257530082E+02 0.  0.
        -13    1    5    5    0    0 -0.57500504680E+01 -0.10801487494E+02  0.64586637154E+02  0.65735598509E+02  0.00000000000E+00 0.  1.
         14    1    5    5    0    0  0.72293093351E+02  0.24835636596E+02  0.83886665530E+03  0.84234219030E+03  0.00000000000E+00 0. -1.
         13    1    3    3    0    0 -0.27091292932E+02 -0.24724057219E+02 -0.11447244715E+04  0.11453118933E+04  0.00000000000E+00 0. -1.
        -14    1    3    3    0    0 -0.31511590176E+02 -0.58987591712E+02 -0.48411211897E+03  0.48870958659E+03  0.00000000000E+00 0.  1.
          5    1    4    4  501    0  0.33538523500E+02  0.51381351416E+02 -0.16982637940E+03  0.18061934385E+03  0.41800000000E+01 0.  1.
         -5    1    4    4    0  501 -0.41478683275E+02  0.18296148414E+02 -0.54550412908E+01  0.45852590859E+02  0.41800000000E+01 0.  1.
</event>
<event>
11    1  0.8039394E-009  0.1572423E+03  0.7561462E-02  0.1089700E+00
         22   -1    0    0    0    0  0.00000000000E+00  0.00000000000E+00  0.76418818846E+03  0.76418818846E+03  0.00000000000E+00 0.  1.
         22   -1    0    0    0    0 -0.00000000000E+00 -0.00000000000E+00 -0.29031299415E+03  0.29031299415E+03  0.00000000000E+00 0.  1.
        -24    2    1    2    0    0 -0.96504947183E+02 -0.19094196287E+02 -0.22228681056E+03  0.25604242345E+03  0.80427005985E+02 0.  0.
         25    2    1    2    0    0  0.47316734913E+02  0.93379073354E+02  0.10226514578E+03  0.19252065034E+03  0.12509003167E+03 0.  0.
         24    2    1    2    0    0  0.49188212270E+02 -0.74284877067E+02  0.59389685910E+03  0.60593810882E+03  0.80683265216E+02 0.  0.
        -11    1    5    5    0    0  0.45243154824E+02 -0.91008087935E+02  0.53578322992E+03  0.54533758773E+03  0.00000000000E+00 0.  1.
         12    1    5    5    0    0  0.39450574459E+01  0.16723210868E+02  0.58113629172E+02  0.60600521083E+02  0.00000000000E+00 0. -1.
         11    1    3    3    0    0  0.14887678038E+01  0.21091328795E+02 -0.38252310810E+02  0.43706977272E+02  0.00000000000E+00 0. -1.
        -12    1    3    3    0    0 -0.97993714986E+02 -0.40185525082E+02 -0.18403449976E+03  0.21233544618E+03  0.00000000000E+00 0.  1.
          5    1    4    4  501    0  0.51628931735E+02 -0.10529340103E+02  0.60589740054E+02  0.80405239847E+02  0.41800000000E+01 0.  1.
         -5    1    4    4    0  501 -0.43121968222E+01  0.10390841346E+03  0.41675405726E+02  0.11211541050E+03  0.41800000000E+01 0.  1.
</event>
<event>
11    1  0.8039394E-009  0.1412420E+03  0.7561462E-02  0.1106179E+00
         22   -1    0    0    0    0  0.00000000000E+00  0.00000000000E+00  0.18477554383E+03  0.18477554383E+03  0.00000000000E+00 0. -1.
         22   -1    0    0    0    0 -0.00000000000E+00 -0.00000000000E+00 -0.31848189308E+03  0.31848189308E+03  0.00000000000E+00 0. -1.
         24    2    1    2    0    0  0.29082388020E+02  0.45075973271E+02 -0.17160436919E+03  0.19688190233E+03  0.80229640909E+02 0.  0.
         25    2    1    2    0    0 -0.89690827652E+02 -0.30517084203E+02 -0.58893932346E+02  0.16760625844E+03  0.12509046969E+03 0.  0.
        -24    2    1    2    0    0  0.60608439632E+02 -0.14558889068E+02  0.96791952286E+02  0.13876927614E+03  0.77478292234E+02 0.  0.
        -11    1    3    3    0    0  0.11687734498E+02 -0.40552677200E+01  0.45479934648E+01  0.13180765476E+02  0.00000000000E+00 0.  1.
         12    1    3    3    0    0  0.17394653522E+02  0.49131240991E+02 -0.17615236265E+03  0.18370113685E+03  0.00000000000E+00 0. -1.
         11    1    5    5    0    0  0.61864752452E+02  0.18182551177E+02  0.49757924662E+02  0.81447552633E+02  0.00000000000E+00 0. -1.
        -12    1    5    5    0    0 -0.12563128207E+01 -0.32741440244E+02  0.47034027625E+02  0.57321723507E+02  0.00000000000E+00 0.  1.
          5    1    4    4  501    0 -0.33682535955E+02 -0.46020853203E+02  0.27459818122E+02  0.63434581808E+02  0.41800000000E+01 0. -1.
         -5    1    4    4    0  501 -0.56008291696E+02  0.15503769000E+02 -0.86353750467E+02  0.10417167663E+03  0.41800000000E+01 0. -1.
</event>
<event>
11    1  0.8039394E-009  0.1295095E+03  0.7561462E-02  0.1119873E+00
         22   -1    0    0    0    0  0.00000000000E+00  0.00000000000E+00  0.11367547896E+04  0.11367547896E+04  0.00000000000E+00 0. -1.
         22   -1    0    0    0    0 -0.00000000000E+00 -0.00000000000E+00 -0.73234457506E+03  0.73234457506E+03  0.00000000000E+00 0.  1.
        -24    2    1    2    0    0  0.14667253814E+02 -0.24692222401E+02 -0.71017713827E+03  0.71532326352E+03  0.80690578247E+02 0.  0.
         25    2    1    2    0    0  0.16276852028E+02  0.38234866451E+02  0.23172184904E+03  0.26658946132E+03  0.12509230447E+03 0.  0.
         24    2    1    2    0    0 -0.30944105842E+02 -0.13542644051E+02  0.88286550382E+03  0.88718663988E+03  0.80670287205E+02 0.  0.
        -13    1    5    5    0    0  0.15713998796E+02 -0.32167519638E+02  0.29128056256E+03  0.29347239258E+03  0.00000000000E+00 0.  1.
         14    1    5    5    0    0 -0.46658104638E+02  0.18624875587E+02  0.59158494126E+03  0.59371424730E+03  0.00000000000E+00 0. -1.
         13    1    3    3    0    0 -0.16670314862E+01  0.25640939816E+02 -0.38611461460E+03  0.38696864524E+03  0.00000000000E+00 0. -1.
        -14    1    3    3    0    0  0.16334285301E+02 -0.50333162217E+02 -0.32406252367E+03  0.32835461827E+03  0.00000000000E+00 0.  1.
          5    1    4    4  501    0  0.70399762428E+02  0.31034244085E+02  0.13651098087E+03  0.15675449325E+03  0.41800000000E+01 0. -1.
         -5    1    4    4    0  501 -0.54122910400E+02  0.72006223662E+01  0.95210868168E+02  0.10983496807E+03  0.41800000000E+01 0. -1.
</event>
<event>
11    1  0.8039394E-009  0.1370824E+03  0.7561462E-02  0.1110861E+00
         22   -1    0    0    0    0  0.00000000000E+00  0.00000000000E+00  0.16209763580E+04  0.16209763580E+04  0.00000000000E+00 0. -1.
         22   -1    0    0    0    0 -0.00000000000E+00 -0.00000000000E+00 -0.87608823508E+02  0.87608823508E+02  0.00000000000E+00 0. -1.
         24    2    1    2    0    0 -0.21176892223E+02  0.54206957486E+02 -0.45861631959E+02  0.10890324911E+03  0.79810860021E+02 0.  0.
         25    2    1    2    0    0  0.17048011079E+02 -0.18545078948E+02  0.47352190567E+03  0.49041359712E+03  0.12509175212E+03 0.  0.
        -24    2    1    2    0    0  0.41288811442E+01 -0.35661878538E+02  0.11057072608E+04  0.11092683353E+04  0.81233465253E+02 0.  0.
        -11    1    3    3    0    0 -0.28048536717E+02  0.37963056377E+02  0.11759129731E+02  0.48643511319E+02  0.00000000000E+00 0.  1.
         12    1    3    3    0    0  0.68716444942E+01  0.16243901109E+02 -0.57620761689E+02  0.60259737793E+02  0.00000000000E+00 0. -1.
         13    1    5    5    0    0  0.29723745023E+02 -0.11765317708E+02  0.90251319805E+03  0.90307917503E+03  0.00000000000E+00 0. -1.
        -14    1    5    5    0    0 -0.25594863879E+02 -0.23896560830E+02  0.20319406271E+03  0.20618916024E+03  0.00000000000E+00 0.  1.
          5    1    4    4  501    0  0.61502342235E+02  0.14904006396E+02  0.16268454869E+03  0.17460928466E+03  0.41800000000E+01 0. -1.
         -5    1    4    4    0  501 -0.44454331157E+02 -0.33449085343E+02  0.31083735699E+03  0.31580431246E+03  0.41800000000E+01 0. -1.
</event>
<event>
11    1  0.8039394E-009  0.1755845E+03  0.7561462E-02  0.1073271E+00
         22   -1    0    0    0    0  0.00000000000E+00  0.00000000000E+00  0.26350086627E+03  0.26350086627E+03  0.00000000000E+00 0. -1.
         22   -1    0    0    0    0 -0.00000000000E+00 -0.00000000000E+00 -0.13891901517E+04  0.13891901517E+04  0.00000000000E+00 0. -1.
         24    2    1    2    0    0  0.68528024522E+02 -0.21732613365E+01 -0.12326510663E+04  0.12373634279E+04  0.83299388529E+02 0.  0.
         25    2    1    2    0    0  0.24964718645E+02 -0.90977401597E+02 -0.77737221096E+02  0.17490143013E+03  0.12508920793E+03 0.  0.
        -24    2    1    2    0    0 -0.93492743167E+02  0.93150662933E+02  0.18469900199E+03  0.24042615996E+03  0.79202765264E+02 0.  0.
        -13    1    3    3    0    0 -0.15249142959E+01 -0.31489604321E+02 -0.41333370294E+03  0.41453428149E+03  0.00000000000E+00 0.  1.
         14    1    3    3    0    0  0.70052938818E+02  0.29316342985E+02 -0.81931736340E+03  0.82282914641E+03  0.00000000000E+00 0. -1.
         11    1    5    5    0    0 -0.42073269185E+02  0.86642868048E+02  0.14925892228E+03  0.17763831918E+03  0.00000000000E+00 0. -1.
        -12    1    5    5    0    0 -0.51419473982E+02  0.65077948856E+01  0.35440079719E+02  0.62787840776E+02  0.00000000000E+00 0.  1.
          5    1    4    4  501    0 -0.30596023754E+02  0.14299063441E+02 -0.27281467804E+01  0.34139347822E+02  0.41800000000E+01 0. -1.
         -5    1    4    4    0  501  0.55560742399E+02 -0.10527646504E+03 -0.75009074316E+02  0.14076208231E+03  0.41800000000E+01 0. -1.
</event>
<event>
11    1  0.8039394E-009  0.2130583E+03  0.7561462E-02  0.1045655E+00
         22   -1    0    0    0    0  0.00000000000E+00  0.00000000000E+00  0.43613750456E+03  0.43613750456E+03  0.00000000000E+00 0. -1.
         22   -1    0    0    0    0 -0.00000000000E+00 -0.00000000000E+00 -0.20592639723E+04  0.20592639723E+04  0.00000000000E+00 0.  1.
        -24    2    1    2    0    0  0.11637697792E+03 -0.12810387234E+03 -0.15985883404E+04  0.16099969742E+04  0.81555943163E+02 0.  0.
         25    2    1    2    0    0 -0.16523915813E+03  0.75503275168E+02 -0.42053971052E+03  0.47487670817E+03  0.12509802517E+03 0.  0.
         24    2    1    2    0    0  0.48862180213E+02  0.52600597169E+02  0.39600158320E+03  0.41052779445E+03  0.81002966877E+02 0.  0.
        -13    1    5    5    0    0 -0.21979709746E+02  0.21487344690E+02  0.12182086068E+03  0.12563891005E+03  0.00000000000E+00 0.  1.
         14    1    5    5    0    0  0.70841889959E+02  0.31113252479E+02  0.27418072252E+03  0.28488888440E+03  0.00000000000E+00 0. -1.
         13    1    3    3    0    0  0.22058443573E+02 -0.71807511853E+02 -0.45657358703E+03  0.46271193422E+03  0.00000000000E+00 0. -1.
        -14    1    3    3    0    0  0.94318534343E+02 -0.56296360485E+02 -0.11420147534E+04  0.11472850400E+04  0.00000000000E+00 0.  1.
          5    1    4    4  501    0 -0.50787989349E+02  0.69298766064E+02 -0.28302906504E+03  0.29581187078E+03  0.41800000000E+01 0. -1.
         -5    1    4    4    0  501 -0.11445116878E+03  0.62045091041E+01 -0.13751064548E+03  0.17906483739E+03  0.41800000000E+01 0. -1.
</event>
<event>
11    1  0.1313566E-008  0.1579465E+03  0.7561462E-02  0.1089025E+00
         22   -1    0    0    0    0  0.00000000000E+00  0.00000000000E+00  0.16988186490E+04  0.16988186490E+04  0.00000000000E+00 0.  1.
         22   -1    0    0    0    0 -0.00000000000E+00 -0.00000000000E+00 -0.13695348628E+04  0.13695348628E+04  0.00000000000E+00 0. -1.
        -24    2    1    2    0    0 -0.96478198151E+02  0.21463145146E+02 -0.88631016197E+03  0.89539630350E+03  0.80125699957E+02 0.  0.
         25    2    1    2    0    0  0.72042133657E+02 -0.70412336399E+02 -0.46376330959E+03  0.49078607706E+03  0.12508637006E+03 0.  0.
         24    2    1    2    0    0  0.24436064494E+02  0.48949191253E+02  0.16793572578E+04  0.16821711312E+04  0.80410016919E+02 0.  0.
        -13    1    5    5    0    0  0.27557355306E+02  0.55919380660E+02  0.16624561775E+04  0.16636246353E+04  0.00000000000E+00 0.  1.
         14    1    5    5    0    0 -0.31212908125E+01 -0.69701894061E+01  0.16901080248E+02  0.18546495902E+02  0.00000000000E+00 0. -1.
         13    1    3    3    0    0 -0.11033923742E+03  0.15345566358E+02 -0.80689127974E+03  0.81454513137E+03  0.00000000000E+00 0. -1.
        -14    1    3    3    0    0  0.13861039271E+02  0.61175787880E+01 -0.79418882230E+02  0.80851172129E+02  0.00000000000E+00 0.  1.
          5    1    4    4  501    0  0.55932611263E+02 -0.44884138974E+02 -0.87145619352E+02  0.11293747964E+03  0.41800000000E+01 0. -1.
         -5    1    4    4    0  501  0.16109522394E+02 -0.25528197425E+02 -0.37661769024E+03  0.37784859743E+03  0.41800000000E+01 0. -1.
</event>
<event>
11    1  0.8039394E-009  0.3955009E+04  0.7561462E-02  0.7544764E-01
         22   -1    0    0    0    0  0.00000000000E+00  0.00000000000E+00  0.11170008213E+04  0.11170008213E+04  0.00000000000E+00 0.  1.
         22   -1    0    0    0    0 -0.00000000000E+00 -0.00000000000E+00 -0.35009150672E+04  0.35009150672E+04  0.00000000000E+00 0.  1.
         24    2    1    2    0    0  0.64147280841E+03  0.16027815311E+04 -0.21181792489E+04  0.27335164628E+04  0.70943087876E+02 0.  0.
         25    2    1    2    0    0 -0.66967534442E+03 -0.16165968297E+04 -0.17876832202E+03  0.17633649166E+04  0.12508932480E+03 0.  0.
        -24    2    1    2    0    0  0.28202536015E+02  0.13815298691E+02 -0.86966674994E+02  0.12103450909E+03  0.78101884204E+02 0.  0.
        -13    1    3    3    0    0  0.60524969418E+03  0.15152471754E+04 -0.20259465190E+04  0.26012997699E+04  0.00000000000E+00 0.  1.
         14    1    3    3    0    0  0.36223114223E+02  0.87534355656E+02 -0.92232729835E+02  0.13221669288E+03  0.00000000000E+00 0. -1.
         11    1    5    5    0    0  0.27698535655E+02  0.41443159069E+02 -0.76865644339E+02  0.91613708530E+02  0.00000000000E+00 0. -1.
        -12    1    5    5    0    0  0.50400036002E+00 -0.27627860378E+02 -0.10101030655E+02  0.29420800562E+02  0.00000000000E+00 0.  1.
          5    1    4    4  501    0 -0.65286527241E+03 -0.15568847331E+04 -0.19401863699E+03  0.16993480633E+04  0.41800000000E+01 0.  1.
         -5    1    4    4    0  501 -0.16810072016E+02 -0.59712096606E+02  0.15250314963E+02  0.64016853318E+02  0.41800000000E+01 0.  1.
</event>
<event>
11    1  0.8039394E-009  0.1977988E+03  0.7561462E-02  0.1056091E+00
         22   -1    0    0    0    0  0.00000000000E+00  0.00000000000E+00  0.93596422237E+03  0.93596422237E+03  0.00000000000E+00 0. -1.
         22   -1    0    0    0    0 -0.00000000000E+00 -0.00000000000E+00 -0.29880982872E+03  0.29880982872E+03  0.00000000000E+00 0.  1.
         24    2    1    2    0    0  0.44032292889E+02  0.14870926869E+03 -0.24754140001E+03  0.30383957593E+03  0.83596972253E+02 0.  0.
         25    2    1    2    0    0  0.12449255290E+02 -0.13012410604E+03  0.45454752612E+03  0.48923589645E+03  0.12510412440E+03 0.  0.
        -24    2    1    2    0    0 -0.56481548179E+02 -0.18585162653E+02  0.43014826753E+03  0.44169857870E+03  0.80836432436E+02 0.  0.
        -13    1    3    3    0    0 -0.17017140454E+02  0.64630745063E+02 -0.13518184855E+03  0.15080069116E+03  0.00000000000E+00 0.  1.
         14    1    3    3    0    0  0.61049433343E+02  0.84078523631E+02 -0.11235955145E+03  0.15303888477E+03  0.00000000000E+00 0. -1.
         13    1    5    5    0    0 -0.22910317062E+01  0.18317004333E+02  0.23717201207E+03  0.23788931204E+03  0.00000000000E+00 0. -1.
        -14    1    5    5    0    0 -0.54190516473E+02 -0.36902166986E+02  0.19297625546E+03  0.20380926666E+03  0.00000000000E+00 0.  1.
          5    1    4    4  501    0 -0.55033406880E+02 -0.39841562047E+02  0.17790936160E+03  0.19048684806E+03  0.41800000000E+01 0.  1.
         -5    1    4    4    0  501  0.67482662170E+02 -0.90282543995E+02  0.27663816452E+03  0.29874904839E+03  0.41800000000E+01 0.  1.
</event>
<event>
11    1  0.9465638E-009  0.1921722E+03  0.7561462E-02  0.1060201E+00
         22   -1    0    0    0    0  0.00000000000E+00  0.00000000000E+00  0.21489209951E+04  0.21489209951E+04  0.00000000000E+00 0.  1.
         22   -1    0    0    0    0 -0.00000000000E+00 -0.00000000000E+00 -0.14680278206E+03  0.14680278206E+03  0.00000000000E+00 0.  1.
         24    2    1    2    0    0  0.88817618134E+02  0.10170018880E+02 -0.58091499967E+02  0.13422679049E+03  0.81548821824E+02 0.  0.
         25    2    1    2    0    0 -0.13209979986E+03 -0.14652307396E+03  0.24395938967E+03  0.33776254290E+03  0.12509189922E+03 0.  0.
        -24    2    1    2    0    0  0.43282181723E+02  0.13635305508E+03  0.18162503233E+04  0.18237344438E+04  0.82319994676E+02 0.  0.
        -11    1    3    3    0    0  0.82164062845E+02  0.83627367257E+01 -0.77729258143E+02  0.11341387111E+03  0.00000000000E+00 0.  1.
         12    1    3    3    0    0  0.66535552892E+01  0.18072821540E+01  0.19637758176E+02  0.20812919376E+02  0.00000000000E+00 0. -1.
         11    1    5    5    0    0  0.42124537858E+02  0.17033179440E+02  0.55047761070E+03  0.55234971329E+03  0.00000000000E+00 0. -1.
        -12    1    5    5    0    0  0.11576438651E+01  0.11931987564E+03  0.12657727126E+04  0.12713847305E+04  0.00000000000E+00 0.  1.
          5    1    4    4  501    0 -0.31721411615E+02 -0.11323069900E+03  0.17693380533E+03  0.21248643020E+03  0.41800000000E+01 0.  1.
         -5    1    4    4    0  501 -0.10037838824E+03 -0.33292374958E+02  0.67025584347E+02  0.12527611270E+03  0.41800000000E+01 0.  1.
</event>
<event>
11    1  0.8039394E-009  0.1766317E+03  0.7561462E-02  0.1072400E+00
         22   -1    0    0    0    0  0.00000000000E+00  0.00000000000E+00  0.48957077083E+03  0.48957077083E+03  0.00000000000E+00 0.  1.
         22   -1    0    0    0    0 -0.00000000000E+00 -0.00000000000E+00 -0.31252046890E+03  0.31252046890E+03  0.00000000000E+00 0. -1.
         24    2    1    2    0    0  0.25158304827E+01 -0.10585807343E+02 -0.14195101485E+03  0.16423852077E+03  0.81889024711E+02 0.  0.
         25    2    1    2    0    0 -0.23957765524E+02  0.13255320698E+03 -0.89029121828E+02  0.20424723244E+03  0.12508565152E+03 0.  0.
        -24    2    1    2    0    0  0.21441935042E+02 -0.12196739964E+03  0.40803043861E+03  0.43360548651E+03  0.78670680337E+02 0.  0.
        -11    1    3    3    0    0  0.23022461126E+02  0.21157717086E+02 -0.21366900193E+02  0.37871191326E+02  0.00000000000E+00 0.  1.
         12    1    3    3    0    0 -0.20506630643E+02 -0.31743524429E+02 -0.12058411466E+03  0.12636732945E+03  0.00000000000E+00 0. -1.
         11    1    5    5    0    0 -0.25654197501E+02 -0.38867165028E+02  0.87181842855E+02  0.98840619637E+02  0.00000000000E+00 0. -1.
        -12    1    5    5    0    0  0.47096132542E+02 -0.83100234609E+02  0.32084859576E+03  0.33476486687E+03  0.00000000000E+00 0.  1.
          5    1    4    4  501    0 -0.66488376199E+02  0.12274696172E+03 -0.72786249463E+02  0.15748914658E+03  0.41800000000E+01 0. -1.
         -5    1    4    4    0  501  0.42530610675E+02  0.98062452621E+01 -0.16242872365E+02  0.46758085859E+02  0.41800000000E+01 0. -1.
</event>
<event>
11    1  0.8039394E-009  0.1257617E+03  0.7561462E-02  0.1124589E+00
         22   -1    0    0    0    0  0.00000000000E+00  0.00000000000E+00  0.67990215408E+03  0.67990215408E+03  0.00000000000E+00 0.  1.
         22   -1    0    0    0    0 -0.00000000000E+00 -0.00000000000E+00 -0.29812397037E+03  0.29812397037E+03  0.00000000000E+00 0. -1.
         24    2    1    2    0    0  0.19662301526E+02  0.29658415420E+02 -0.25145340780E+03  0.26629184987E+03  0.80101843345E+02 0.  0.
         25    2    1    2    0    0 -0.30761414082E+02 -0.27202087922E+02  0.86652149769E+02  0.15761338473E+03  0.12508863179E+03 0.  0.
        -24    2    1    2    0    0  0.11099112556E+02 -0.24563274980E+01  0.54657944174E+03  0.55412088985E+03  0.90397182433E+02 0.  0.
        -13    1    3    3    0    0  0.28419774603E+01  0.24583863111E+02 -0.14489089062E+02  0.28677113928E+02  0.00000000000E+00 0.  1.
         14    1    3    3    0    0  0.16820324066E+02  0.50745523091E+01 -0.23696431874E+03  0.23761473595E+03  0.00000000000E+00 0. -1.
         11    1    5    5    0    0 -0.24938805319E+02  0.30071389334E+02  0.17035154462E+03  0.17477380015E+03  0.00000000000E+00 0. -1.
        -12    1    5    5    0    0  0.36037917875E+02 -0.32527716832E+02  0.37622789712E+03  0.37934708969E+03  0.00000000000E+00 0.  1.
          5    1    4    4  501    0 -0.43388554092E+02  0.69809437279E+01 -0.17274035706E+02  0.47404271022E+02  0.41800000000E+01 0. -1.
         -5    1    4    4    0  501  0.12627140010E+02 -0.34183031650E+02  0.10392618547E+03  0.11020911371E+03  0.41800000000E+01 0. -1.
</event>
<event>
11    1  0.8039394E-009  0.2061657E+03  0.7561462E-02  0.1050247E+00
         22   -1    0    0    0    0  0.00000000000E+00  0.00000000000E+00  0.96114231726E+03  0.96114231726E+03  0.00000000000E+00 0.  1.
         22   -1    0    0    0    0 -0.00000000000E+00 -0.00000000000E+00 -0.81259981624E+03  0.81259981624E+03  0.00000000000E+00 0.  1.
         24    2    1    2    0    0  0.62778560814E+02 -0.14706010175E+03 -0.63279797776E+03  0.65714729681E+03  0.76429495746E+02 0.  0.
         25    2    1    2    0    0 -0.16013207361E+03  0.13970838992E+03 -0.69670796338E+02  0.25624736163E+03  0.12509186731E+03 0.  0.
        -24    2    1    2    0    0  0.97353512796E+02  0.73517118328E+01  0.85101127511E+03  0.86034747506E+03  0.80285947456E+02 0.  0.
        -11    1    3    3    0    0  0.69228436888E+02 -0.14855604062E+03 -0.54525897867E+03  0.56935825936E+03  0.00000000000E+00 0.  1.
         12    1    3    3    0    0 -0.64498760739E+01  0.14959388745E+01 -0.87538999094E+02  0.87789037453E+02  0.00000000000E+00 0. -1.
         13    1    5    5    0    0  0.24207803634E+02  0.37308225167E+02  0.39971444912E+03  0.40218100684E+03  0.00000000000E+00 0. -1.
        -14    1    5    5    0    0  0.73145709161E+02 -0.29956513334E+02  0.45129682599E+03  0.45816646823E+03  0.00000000000E+00 0.  1.
          5    1    4    4  501    0 -0.11238499950E+03  0.62745978865E+02 -0.97364006009E+02  0.16144555752E+03  0.41800000000E+01 0. -1.
         -5    1    4    4    0  501 -0.47747074112E+02  0.76962411051E+02  0.27693209671E+02  0.94801804112E+02  0.41800000000E+01 0. -1.
</event>
<event>
11    1  0.8039394E-009  0.1360188E+03  0.7561462E-02  0.1112087E+00
         22   -1    0    0    0    0  0.00000000000E+00  0.00000000000E+00  0.34569889960E+03  0.34569889960E+03  0.00000000000E+00 0. -1.
         22   -1    0    0    0    0 -0.00000000000E+00 -0.00000000000E+00 -0.59228984747E+03  0.59228984747E+03  0.00000000000E+00 0. -1.
         24    2    1    2    0    0 -0.53217192080E+02  0.22510770165E+01 -0.52673118522E+03  0.53511331570E+03  0.77867722935E+02 0.  0.
         25    2    1    2    0    0  0.55314495098E+02 -0.24882098787E+02  0.33841147609E+02  0.14308122643E+03  0.12509277309E+03 0.  0.
        -24    2    1    2    0    0 -0.20973030183E+01  0.22631021771E+02  0.24629908975E+03  0.25979420494E+03  0.79455808369E+02 0.  0.
        -13    1    3    3    0    0  0.15011936682E+02 -0.25538565738E+01 -0.29485561492E+02  0.33185520379E+02  0.00000000000E+00 0.  1.
         14    1    3    3    0    0 -0.68229128762E+02  0.48049335903E+01 -0.49724562373E+03  0.50192779532E+03  0.00000000000E+00 0. -1.
         13    1    5    5    0    0 -0.40642178049E+02  0.14289242884E+02  0.12145436406E+03  0.12886866046E+03  0.00000000000E+00 0. -1.
        -14    1    5    5    0    0  0.38544875031E+02  0.83417788873E+01  0.12484472568E+03  0.13092554448E+03  0.00000000000E+00 0.  1.
          5    1    4    4  501    0 -0.24266313500E+02 -0.38886707039E+02 -0.15194601393E+02  0.48470385461E+02  0.41800000000E+01 0.  1.
         -5    1    4    4    0  501  0.79580808598E+02  0.14004608251E+02  0.49035749002E+02  0.94610840973E+02  0.41800000000E+01 0.  1.
</event>
<event>
11    1  0.8039394E-009  0.1331699E+03  0.7561462E-02  0.1115434E+00
         22   -1    0    0    0    0  0.00000000000E+00  0.00000000000E+00  0.11121023070E+03  0.11121023070E+03  0.00000000000E+00 0.  1.
         22   -1    0    0    0    0 -0.00000000000E+00 -0.00000000000E+00 -0.59768911343E+03  0.59768911343E+03  0.00000000000E+00 0. -1.
        -24    2    1    2    0    0  0.42554160342E+01 -0.20923615389E+02 -0.35757911389E+03  0.36665546637E+03  0.78214462094E+02 0.  0.
         25    2    1    2    0    0 -0.15627256169E+02  0.62761365682E+02 -0.18664127150E+03  0.23381323195E+03  0.12510181074E+03 0.  0.
         24    2    1    2    0    0  0.11371840135E+02 -0.41837750293E+02  0.57741502663E+02  0.10843064580E+03  0.80891332799E+02 0.  0.
        -13    1    5    5    0    0  0.63288152707E+01  0.14388617381E+02  0.48807137867E+02  0.51275948745E+02  0.00000000000E+00 0.  1.
         14    1    5    5    0    0  0.50430248639E+01 -0.56226367674E+02  0.89343647955E+01  0.57154697059E+02  0.00000000000E+00 0. -1.
         11    1    3    3    0    0 -0.31109744563E+02 -0.91567185614E+01 -0.26308976786E+03  0.26508090775E+03  0.00000000000E+00 0. -1.
        -12    1    3    3    0    0  0.35365160597E+02 -0.11766896828E+02 -0.94489346028E+02  0.10157455862E+03  0.00000000000E+00 0.  1.
          5    1    4    4  501    0  0.37696722791E+02  0.76113261935E+02 -0.12412349802E+03  0.15046058193E+03  0.41800000000E+01 0.  1.
         -5    1    4    4    0  501 -0.53323978960E+02 -0.13351896253E+02 -0.62517773478E+02  0.83352650026E+02  0.41800000000E+01 0.  1.
</event>
<event>
11    1  0.8039394E-009  0.1413727E+03  0.7561462E-02  0.1106035E+00
         22   -1    0    0    0    0  0.00000000000E+00  0.00000000000E+00  0.84138296455E+02  0.84138296455E+02  0.00000000000E+00 0. -1.
         22   -1    0    0    0    0 -0.00000000000E+00 -0.00000000000E+00 -0.13876061865E+04  0.13876061865E+04  0.00000000000E+00 0.  1.
        -24    2    1    2    0    0 -0.13113313911E+02 -0.92562485547E+01 -0.98374496837E+03  0.98718310008E+03  0.80738300391E+02 0.  0.
         25    2    1    2    0    0  0.58697562268E+02 -0.37949653791E+02 -0.34979046684E+03  0.37800256388E+03  0.12508791936E+03 0.  0.
         24    2    1    2    0    0 -0.45584248357E+02  0.47205902346E+02  0.30067545117E+02  0.10655881904E+03  0.78386247082E+02 0.  0.
        -13    1    5    5    0    0  0.12968621511E+01  0.25682977735E+02 -0.21573496875E+02  0.33566545312E+02  0.00000000000E+00 0.  1.
         14    1    5    5    0    0 -0.46881110508E+02  0.21522924611E+02  0.51641041992E+02  0.72992273730E+02  0.00000000000E+00 0. -1.
         13    1    3    3    0    0  0.68963622382E+01 -0.18529685753E+02 -0.59974791898E+02  0.63149700945E+02  0.00000000000E+00 0. -1.
        -14    1    3    3    0    0 -0.20009676149E+02  0.92734371981E+01 -0.92377017648E+03  0.92403339914E+03  0.00000000000E+00 0.  1.
          5    1    4    4  501    0  0.78089001910E+02 -0.65344122417E+02 -0.20030240954E+03  0.22473601007E+03  0.41800000000E+01 0. -1.
         -5    1    4    4    0  501 -0.19391439643E+02  0.27394468626E+02 -0.14948805730E+03  0.15326655381E+03  0.41800000000E+01 0. -1.
</event>
<event>
11    1  0.8039394E-009  0.3402458E+03  0.7561462E-02  0.9844642E-01
         22   -1    0    0    0    0  0.00000000000E+00  0.00000000000E+00  0.10775791740E+04  0.10775791740E+04  0.00000000000E+00 0.  1.
         22   -1    0    0    0    0 -0.00000000000E+00 -0.00000000000E+00 -0.61529280536E+03  0.61529280536E+03  0.00000000000E+00 0. -1.
         24    2    1    2    0    0 -0.32737490665E+02 -0.32687353561E+03 -0.41067556128E+03  0.53189195770E+03  0.79602678703E+02 0.  0.
         25    2    1    2    0    0 -0.13034817162E+03  0.28029274806E+03  0.75547406444E+02  0.34192080308E+03  0.12509098489E+03 0.  0.
        -24    2    1    2    0    0  0.16308566229E+03  0.46580787551E+02  0.79741452350E+03  0.81905921860E+03  0.78875714017E+02 0.  0.
        -13    1    3    3    0    0  0.14595583491E+02 -0.10625014588E+02 -0.18120494108E+02  0.25578786116E+02  0.00000000000E+00 0.  1.
         14    1    3    3    0    0 -0.47333074156E+02 -0.31624852102E+03 -0.39255506717E+03  0.50631317158E+03  0.00000000000E+00 0. -1.
         13    1    5    5    0    0  0.69296151900E+02  0.60462176940E+02  0.41482293959E+03  0.42489493139E+03  0.00000000000E+00 0. -1.
        -14    1    5    5    0    0  0.93789510388E+02 -0.13881389389E+02  0.38259158391E+03  0.39416428721E+03  0.00000000000E+00 0.  1.
          5    1    4    4  501    0 -0.10763573254E+03  0.16152361030E+03  0.10014352507E+03  0.21845257063E+03  0.41800000000E+01 0. -1.
         -5    1    4    4    0  501 -0.22712439086E+02  0.11876913776E+03 -0.24596118626E+02  0.12346823245E+03  0.41800000000E+01 0. -1.
</event>
<event>
11    1  0.8039394E-009  0.1711624E+03  0.7561462E-02  0.1077025E+00
         22   -1    0    0    0    0  0.00000000000E+00  0.00000000000E+00  0.37000586243E+03  0.37000586243E+03  0.00000000000E+00 0. -1.
         22   -1    0    0    0    0 -0.00000000000E+00 -0.00000000000E+00 -0.60083808373E+03  0.60083808373E+03  0.00000000000E+00 0.  1.
        -24    2    1    2    0    0  0.72290622889E+02 -0.79501896536E+02 -0.40036246812E+03  0.42258056813E+03  0.82083768009E+02 0.  0.
         25    2    1    2    0    0 -0.13493410217E+03  0.10638972177E+03 -0.11640415102E+03  0.24232595672E+03  0.12508380430E+03 0.  0.
         24    2    1    2    0    0  0.62643479286E+02 -0.26887825232E+02  0.28593439785E+03  0.30593742131E+03  0.84806044814E+02 0.  0.
        -11    1    5    5    0    0  0.65634364941E+02 -0.42375715507E+02  0.15032995829E+03  0.16941861611E+03  0.00000000000E+00 0.  1.
         12    1    5    5    0    0 -0.29908856553E+01  0.15487890276E+02  0.13560443956E+03  0.13651880519E+03  0.00000000000E+00 0. -1.
         11    1    3    3    0    0  0.37355065489E+02  0.82492334893E+01 -0.81647904687E+02  0.90165576085E+02  0.00000000000E+00 0. -1.
        -12    1    3    3    0    0  0.34935557400E+02 -0.87751130025E+02 -0.31871456344E+03  0.33241499205E+03  0.00000000000E+00 0.  1.
          5    1    4    4  501    0 -0.99731523101E+02  0.13291590042E+03 -0.10498321188E+03  0.19660101847E+03  0.41800000000E+01 0. -1.
         -5    1    4    4    0  501 -0.35202579074E+02 -0.26526178656E+02 -0.11420939143E+02  0.45724938256E+02  0.41800000000E+01 0. -1.
</event>
<event>
11    1  0.8039394E-009  0.1359293E+03  0.7561462E-02  0.1112191E+00
         22   -1    0    0    0    0  0.00000000000E+00  0.00000000000E+00  0.97488933850E+03  0.97488933850E+03  0.00000000000E+00 0. -1.
         22   -1    0    0    0    0 -0.00000000000E+00 -0.00000000000E+00 -0.24486564484E+03  0.24486564484E+03  0.00000000000E+00 0. -1.
        -24    2    1    2    0    0 -0.21623510615E+02  0.25407624466E+02 -0.22039858909E+03  0.23719776780E+03  0.81080943430E+02 0.  0.
         25    2    1    2    0    0  0.16014787754E+02 -0.70450960408E+02  0.46684459838E+03  0.48868195673E+03  0.12508542901E+03 0.  0.
         24    2    1    2    0    0  0.56087228614E+01  0.45043335942E+02  0.48357768437E+03  0.49387525881E+03  0.89470858705E+02 0.  0.
        -13    1    5    5    0    0  0.31889487418E+02  0.13866502115E+01  0.67250204056E+02  0.74440930624E+02  0.00000000000E+00 0.  1.
         14    1    5    5    0    0 -0.26280764557E+02  0.43656685730E+02  0.41632748032E+03  0.41943432819E+03  0.00000000000E+00 0. -1.
         13    1    3    3    0    0 -0.91072629285E+01  0.16972155215E+02 -0.22124377662E+03  0.22208062721E+03  0.00000000000E+00 0. -1.
        -14    1    3    3    0    0 -0.12516247687E+02  0.84354692515E+01  0.84518753361E+00  0.15117140590E+02  0.00000000000E+00 0.  1.
          5    1    4    4  501    0  0.48425349500E+02  0.86859081198E+01  0.26286561014E+03  0.26746263453E+03  0.41800000000E+01 0.  1.
         -5    1    4    4    0  501 -0.32410561747E+02 -0.79136868528E+02  0.20397898823E+03  0.22121932220E+03  0.41800000000E+01 0.  1.
</event>
<event>
11    1  0.8039394E-009  0.1598751E+03  0.7561462E-02  0.1087195E+00
         22   -1    0    0    0    0  0.00000000000E+00  0.00000000000E+00  0.97466297311E+03  0.97466297311E+03  0.00000000000E+00 0.  1.
         22   -1    0    0    0    0 -0.00000000000E+00 -0.00000000000E+00 -0.10336747849E+03  0.10336747849E+03  0.00000000000E+00 0.  1.
         24    2    1    2    0    0 -0.57547158988E+02  0.10126895111E+03 -0.14772187331E+02  0.14220126315E+03  0.80224097106E+02 0.  0.
         25    2    1    2    0    0 -0.95252112832E+01 -0.49107939418E+02  0.20749497124E+03  0.24739616464E+03  0.12509348435E+03 0.  0.
        -24    2    1    2    0    0  0.67072370271E+02 -0.52161011687E+02  0.67857271071E+03  0.68843302382E+03  0.79117827095E+02 0.  0.
        -13    1    3    3    0    0 -0.76761709899E+01  0.82757531745E+02 -0.27426481302E+02  0.87521109100E+02  0.00000000000E+00 0.  1.
         14    1    3    3    0    0 -0.49870987998E+02  0.18511419360E+02  0.12654293971E+02  0.54680154046E+02  0.00000000000E+00 0. -1.
         11    1    5    5    0    0 -0.55541754672E+01 -0.20567095647E+02  0.43456240433E+02  0.48397304894E+02  0.00000000000E+00 0. -1.
        -12    1    5    5    0    0  0.72626545738E+02 -0.31593916041E+02  0.63511647028E+03  0.64003571892E+03  0.00000000000E+00 0.  1.
          5    1    4    4  501    0  0.55192000079E+02 -0.36325555228E+02  0.80491135764E+02  0.10422091044E+03  0.41800000000E+01 0. -1.
         -5    1    4    4    0  501 -0.64717211362E+02 -0.12782384190E+02  0.12700383547E+03  0.14317525421E+03  0.41800000000E+01 0. -1.
</event>
<event>
11    1  0.8039394E-009  0.1343454E+03  0.7561462E-02  0.1114042E+00
         22   -1    0    0    0    0  0.00000000000E+00  0.00000000000E+00  0.67327410068E+03  0.67327410068E+03  0.00000000000E+00 0.  1.
         22   -1    0    0    0    0 -0.00000000000E+00 -0.00000000000E+00 -0.34035714001E+03  0.34035714001E+03  0.00000000000E+00 0.  1.
         24    2    1    2    0    0  0.24645952010E+02  0.17360463823E+02 -0.24862828673E+03  0.26297628730E+03  0.80197843272E+02 0.  0.
         25    2    1    2    0    0  0.13703141978E+02 -0.48384533250E+02 -0.24911001822E+02  0.13710377353E+03  0.12509215621E+03 0.  0.
        -24    2    1    2    0    0 -0.38349093988E+02  0.31024069427E+02  0.60645624923E+03  0.61355117986E+03  0.78884232848E+02 0.  0.
        -13    1    3    3    0    0 -0.10692142410E+02  0.22099073157E+02 -0.20575632481E+03  0.20721572369E+03  0.00000000000E+00 0.  1.
         14    1    3    3    0    0  0.35338094420E+02 -0.47386093344E+01 -0.42871961922E+02  0.55760563615E+02  0.00000000000E+00 0. -1.
         13    1    5    5    0    0 -0.10213985795E+02 -0.85477969355E+01  0.14818124082E+02  0.19924034219E+02  0.00000000000E+00 0. -1.
        -14    1    5    5    0    0 -0.28135108194E+02  0.39571866363E+02  0.59163812514E+03  0.59362714564E+03  0.00000000000E+00 0.  1.
          5    1    4    4  501    0  0.44428910482E+02  0.17688753326E+02 -0.40104551876E+02  0.62551319427E+02  0.41800000000E+01 0. -1.
         -5    1    4    4    0  501 -0.30725768503E+02 -0.66073286576E+02  0.15193550055E+02  0.74552454100E+02  0.41800000000E+01 0. -1.
</event>
<event>
11    1  0.8039394E-009  0.1857449E+03  0.7561462E-02  0.1065088E+00
         22   -1    0    0    0    0  0.00000000000E+00  0.00000000000E+00  0.45965089031E+03  0.45965089031E+03  0.00000000000E+00 0.  1.
         22   -1    0    0    0    0 -0.00000000000E+00 -0.00000000000E+00 -0.31603243207E+04  0.31603243207E+04  0.00000000000E+00 0.  1.
        -24    2    1    2    0    0 -0.47268249786E+02 -0.13058294461E+03 -0.29657850677E+04  0.29702112022E+04  0.83590218516E+02 0.  0.
         25    2    1    2    0    0  0.13993589734E+02  0.11231544758E+03 -0.14959371296E+03  0.22546794988E+03  0.12508771781E+03 0.  0.
         24    2    1    2    0    0  0.33274660052E+02  0.18267497034E+02  0.41470535032E+03  0.42429605895E+03  0.81275541302E+02 0.  0.
        -13    1    5    5    0    0  0.26592653359E+01  0.37209056567E+02  0.33207347310E+03  0.33416220181E+03  0.00000000000E+00 0.  1.
         14    1    5    5    0    0  0.30615394716E+02 -0.18941559534E+02  0.82631877214E+02  0.90133857141E+02  0.00000000000E+00 0. -1.
         13    1    3    3    0    0 -0.18905437956E+02 -0.21110312554E+02 -0.18787224796E+03  0.18999748008E+03  0.00000000000E+00 0. -1.
        -14    1    3    3    0    0 -0.28362811829E+02 -0.10947263206E+03 -0.27779128198E+04  0.27802137221E+04  0.00000000000E+00 0.  1.
          5    1    4    4  501    0  0.98440550786E+01 -0.14308104885E+02 -0.77725036347E+02  0.79751369649E+02  0.41800000000E+01 0. -1.
         -5    1    4    4    0  501  0.41495346557E+01  0.12662355246E+03 -0.71868676611E+02  0.14571658023E+03  0.41800000000E+01 0. -1.
</event>
<event>
11    1  0.8039394E-009  0.1486255E+03  0.7561462E-02  0.1098292E+00
         22   -1    0    0    0    0  0.00000000000E+00  0.00000000000E+00  0.13649504095E+03  0.13649504095E+03  0.00000000000E+00 0. -1.
         22   -1    0    0    0    0 -0.00000000000E+00 -0.00000000000E+00 -0.10610221462E+04  0.10610221462E+04  0.00000000000E+00 0.  1.
         24    2    1    2    0    0 -0.21498570275E+02 -0.40914160814E+02 -0.82591581291E+03  0.83110556873E+03  0.80395144661E+02 0.  0.
         25    2    1    2    0    0  0.81329698699E+02  0.85497781924E+02 -0.16453343035E+03  0.23799829321E+03  0.12509015655E+03 0.  0.
        -24    2    1    2    0    0 -0.59831128424E+02 -0.44583621109E+02  0.65922138013E+02  0.12841332521E+03  0.81097414327E+02 0.  0.
        -11    1    3    3    0    0 -0.11469778492E+02 -0.21324609972E+02 -0.77800843672E+03  0.77838513759E+03  0.00000000000E+00 0.  1.
         12    1    3    3    0    0 -0.10028791783E+02 -0.19589550842E+02 -0.47907376193E+02  0.52720431148E+02  0.00000000000E+00 0. -1.
         13    1    5    5    0    0 -0.39542858298E+02 -0.56412620207E+02  0.76246131536E+02  0.10275939828E+03  0.00000000000E+00 0. -1.
        -14    1    5    5    0    0 -0.20288270126E+02  0.11828999098E+02 -0.10323993523E+02  0.25653926924E+02  0.00000000000E+00 0.  1.
          5    1    4    4  501    0  0.21300224773E+02  0.32674039148E+01  0.18372038595E+02  0.28624809272E+02  0.41800000000E+01 0. -1.
         -5    1    4    4    0  501  0.60029473926E+02  0.82230378009E+02 -0.18290546895E+03  0.20937348394E+03  0.41800000000E+01 0. -1.
</event>
<event>
11    1  0.8039394E-009  0.1969780E+03  0.7561462E-02  0.1056681E+00
         22   -1    0    0    0    0  0.00000000000E+00  0.00000000000E+00  0.70661848316E+03  0.70661848316E+03  0.00000000000E+00 0. -1.
         22   -1    0    0    0    0 -0.00000000000E+00 -0.00000000000E+00 -0.11540680974E+03  0.11540680974E+03  0.00000000000E+00 0. -1.
         24    2    1    2    0    0  0.15119045455E+03  0.28776951173E+01  0.14664463906E+02  0.17502742495E+03  0.86906376680E+02 0.  0.
         25    2    1    2    0    0 -0.15508267822E+03 -0.38055531890E+02  0.41296798002E+03  0.46009651095E+03  0.12508951303E+03 0.  0.
        -24    2    1    2    0    0  0.38922236721E+01  0.35177836773E+02  0.16357922949E+03  0.18690135701E+03  0.83194490954E+02 0.  0.
        -11    1    3    3    0    0  0.74679338830E+01  0.25959664694E+02 -0.68866419079E+01  0.27876514564E+02  0.00000000000E+00 0.  1.
         12    1    3    3    0    0  0.14372252067E+03 -0.23081969576E+02  0.21551105813E+02  0.14715091039E+03  0.00000000000E+00 0. -1.
         13    1    5    5    0    0 -0.37699580703E+02  0.17293923909E+02  0.52199645469E+02  0.66671891952E+02  0.00000000000E+00 0. -1.
        -14    1    5    5    0    0  0.41591804375E+02  0.17883912864E+02  0.11137958402E+03  0.12022946506E+03  0.00000000000E+00 0.  1.
          5    1    4    4  501    0 -0.13576453077E+03  0.71948987002E+01  0.20269503494E+03  0.24410351078E+03  0.41800000000E+01 0.  1.
         -5    1    4    4    0  501 -0.19318147446E+02 -0.45250430590E+02  0.21027294508E+03  0.21599300017E+03  0.41800000000E+01 0.  1.
</event>
<event>
11    1  0.8039394E-009  0.1421836E+03  0.7561462E-02  0.1105144E+00
         22   -1    0    0    0    0  0.00000000000E+00  0.00000000000E+00  0.78624708336E+03  0.78624708336E+03  0.00000000000E+00 0. -1.
         22   -1    0    0    0    0 -0.00000000000E+00 -0.00000000000E+00 -0.60171280724E+03  0.60171280724E+03  0.00000000000E+00 0.  1.
        -24    2    1    2    0    0 -0.47978320432E+02 -0.45756416599E+02 -0.51567064093E+03  0.52619134725E+03  0.81028113066E+02 0.  0.
         25    2    1    2    0    0  0.10447855017E+03  0.17233716224E+02  0.10159392283E+02  0.16420611414E+03  0.12509063213E+03 0.  0.
         24    2    1    2    0    0 -0.56500229742E+02  0.28522700375E+02  0.69004552477E+03  0.69756242921E+03  0.80154201376E+02 0.  0.
        -13    1    5    5    0    0 -0.10973433927E+02 -0.15821211551E+02  0.39739760021E+02  0.44158527077E+02  0.00000000000E+00 0.  1.
         14    1    5    5    0    0 -0.45526795815E+02  0.44343911926E+02  0.65030576475E+03  0.65340390214E+03  0.00000000000E+00 0. -1.
         13    1    3    3    0    0 -0.17237113645E+01 -0.41010175506E+02 -0.39071173621E+03  0.39286189239E+03  0.00000000000E+00 0. -1.
        -14    1    3    3    0    0 -0.46254609068E+02 -0.47462410935E+01 -0.12495890472E+03  0.13332945486E+03  0.00000000000E+00 0.  1.
          5    1    4    4  501    0  0.12183161940E+03  0.20312958551E+02  0.39484208341E+02  0.12973833234E+03  0.41800000000E+01 0.  1.
         -5    1    4    4    0  501 -0.17353069227E+02 -0.30792423267E+01 -0.29324816058E+02  0.34467781793E+02  0.41800000000E+01 0.  1.
</event>
<event>
11    1  0.8039394E-009  0.1604066E+03  0.7561462E-02  0.1086695E+00
         22   -1    0    0    0    0  0.00000000000E+00  0.00000000000E+00  0.63147185614E+03  0.63147185614E+03  0.00000000000E+00 0. -1.
         22   -1    0    0    0    0 -0.00000000000E+00 -0.00000000000E+00 -0.49677788639E+03  0.49677788639E+03  0.00000000000E+00 0.  1.
         24    2    1    2    0    0 -0.18676107578E+02 -0.81993088908E+02 -0.20465845158E+03  0.23567064842E+03  0.81141290983E+02 0.  0.
         25    2    1    2    0    0  0.57084032494E+02  0.12205704838E+03 -0.24140982324E+03  0.30345359576E+03  0.12509545236E+03 0.  0.
        -24    2    1    2    0    0 -0.38407924916E+02 -0.40063959470E+02  0.58076224456E+03  0.58912549834E+03  0.81876605608E+02 0.  0.
        -11    1    3    3    0    0  0.21138815869E+02 -0.62660264728E+02 -0.15839276202E+03  0.17164330855E+03  0.00000000000E+00 0.  1.
         12    1    3    3    0    0 -0.39814923448E+02 -0.19332824181E+02 -0.46265689560E+02  0.64027339867E+02  0.00000000000E+00 0. -1.
         13    1    5    5    0    0 -0.39246577175E+02 -0.63841804613E+02  0.45552069648E+03  0.46164399135E+03  0.00000000000E+00 0. -1.
        -14    1    5    5    0    0  0.83865225965E+00  0.23777845143E+02  0.12524154808E+03  0.12748150699E+03  0.00000000000E+00 0.  1.
          5    1    4    4  501    0 -0.16312824336E+02  0.22510306213E+02 -0.14189775194E+03  0.14465568267E+03  0.41800000000E+01 0. -1.
         -5    1    4    4    0  501  0.73396856830E+02  0.99546742165E+02 -0.99512071298E+02  0.15879791309E+03  0.41800000000E+01 0. -1.
</event>
<event>
11    1  0.8039394E-009  0.1609641E+04  0.7561462E-02  0.8249062E-01
         22   -1    0    0    0    0  0.00000000000E+00  0.00000000000E+00  0.11769185601E+04  0.11769185601E+04  0.00000000000E+00 0.  1.
         22   -1    0    0    0    0 -0.00000000000E+00 -0.00000000000E+00 -0.55036583591E+03  0.55036583591E+03  0.00000000000E+00 0.  1.
        -24    2    1    2    0    0  0.47389135698E+02  0.63078290310E+03 -0.84072772856E+02  0.64330037771E+03  0.81451481276E+02 0.  0.
         25    2    1    2    0    0 -0.73403477604E+02 -0.69511551813E+03  0.63829711102E+03  0.95480039726E+03  0.12508773964E+03 0.  0.
         24    2    1    2    0    0  0.26014341906E+02  0.64332615035E+02  0.72328386072E+02  0.12918362109E+03  0.81495896725E+02 0.  0.
        -11    1    5    5    0    0  0.37974990887E+02  0.76871034754E+01  0.30004272155E+01  0.38861215321E+02  0.00000000000E+00 0.  1.
         12    1    5    5    0    0 -0.11960648981E+02  0.56645511559E+02  0.69327958857E+02  0.90322405765E+02  0.00000000000E+00 0. -1.
         11    1    3    3    0    0  0.13768893359E+02  0.55110989255E+03 -0.70718034749E+02  0.55579918723E+03  0.00000000000E+00 0. -1.
        -12    1    3    3    0    0  0.33620242339E+02  0.79673010548E+02 -0.13354738108E+02  0.87501190476E+02  0.00000000000E+00 0.  1.
          5    1    4    4  501    0  0.22207729298E+02 -0.94989899086E+02  0.53132940061E+02  0.11116135070E+03  0.41800000000E+01 0.  1.
         -5    1    4    4    0  501 -0.95611206902E+02 -0.60012561905E+03  0.58516417096E+03  0.84363904657E+03  0.41800000000E+01 0.  1.
</event>
<event>
11    1  0.8039394E-009  0.2050230E+03  0.7561462E-02  0.1051027E+00
         22   -1    0    0    0    0  0.00000000000E+00  0.00000000000E+00  0.12899931506E+03  0.12899931506E+03  0.00000000000E+00 0. -1.
         22   -1    0    0    0    0 -0.00000000000E+00 -0.00000000000E+00 -0.17292757354E+04  0.17292757354E+04  0.00000000000E+00 0.  1.
         24    2    1    2    0    0  0.11534137428E+03  0.10687913928E+03 -0.11692113840E+04  0.11822883523E+04  0.77612527010E+02 0.  0.
         25    2    1    2    0    0 -0.20810768584E+03 -0.39535069802E+02 -0.47012606736E+03  0.53060090850E+03  0.12508786611E+03 0.  0.
        -24    2    1    2    0    0  0.92766311559E+02 -0.67344069476E+02  0.39061031030E+02  0.14538578970E+03  0.80439116403E+02 0.  0.
        -11    1    3    3    0    0  0.10876203864E+03  0.61003341931E+02 -0.95595055894E+03  0.96404982232E+03  0.00000000000E+00 0.  1.
         12    1    3    3    0    0  0.65793356388E+01  0.45875797348E+02 -0.21326082510E+03  0.21823852997E+03  0.00000000000E+00 0. -1.
         11    1    5    5    0    0  0.12634616793E+02 -0.35386734931E+02  0.45342846951E+02  0.58888269801E+02  0.00000000000E+00 0. -1.
        -12    1    5    5    0    0  0.80131694766E+02 -0.31957334545E+02 -0.62818159213E+01  0.86497519899E+02  0.00000000000E+00 0.  1.
          5    1    4    4  501    0 -0.10695725592E+03 -0.73537929734E+02 -0.18416108698E+03  0.22534520199E+03  0.41800000000E+01 0.  1.
         -5    1    4    4    0  501 -0.10115042992E+03  0.34002859932E+02 -0.28596498037E+03  0.30525570651E+03  0.41800000000E+01 0.  1.
</event>
<event>
11    1  0.8039394E-009  0.1412337E+03  0.7561462E-02  0.1106189E+00
         22   -1    0    0    0    0  0.00000000000E+00  0.00000000000E+00  0.18888128217E+04  0.18888128217E+04  0.00000000000E+00 0. -1.
         22   -1    0    0    0    0 -0.00000000000E+00 -0.00000000000E+00 -0.21932938324E+03  0.21932938324E+03  0.00000000000E+00 0.  1.
         24    2    1    2    0    0  0.33667800849E+02 -0.55794477505E+02 -0.15963727600E+03  0.20077434987E+03  0.10285783949E+03 0.  0.
         25    2    1    2    0    0 -0.60600108763E+02  0.42183744194E+02  0.10043986419E+03  0.17659867548E+03  0.12508830644E+03 0.  0.
        -24    2    1    2    0    0  0.26932307915E+02  0.13610733311E+02  0.17286808503E+04  0.17307691796E+04  0.79459861794E+02 0.  0.
        -13    1    3    3    0    0  0.13530312044E+02 -0.43939839910E+02 -0.16934150760E+03  0.17547172157E+03  0.00000000000E+00 0.  1.
         14    1    3    3    0    0  0.20137488805E+02 -0.11854637595E+02  0.97042316015E+01  0.25302628299E+02  0.00000000000E+00 0. -1.
         11    1    5    5    0    0  0.28971954922E+02  0.43163716850E+02  0.13160558431E+04  0.13170821777E+04  0.00000000000E+00 0. -1.
        -12    1    5    5    0    0 -0.20396470068E+01 -0.29552983540E+02  0.41262500718E+03  0.41368700190E+03  0.00000000000E+00 0.  1.
          5    1    4    4  501    0  0.12723837249E+01  0.23119346136E+02 -0.25643784936E+02  0.34802287740E+02  0.41800000000E+01 0.  1.
         -5    1    4    4    0  501 -0.61872492488E+02  0.19064398059E+02  0.12608364912E+03  0.14179638774E+03  0.41800000000E+01 0.  1.
</event>
<event>
11    1  0.8039394E-009  0.1902021E+03  0.7561462E-02  0.1061677E+00
         22   -1    0    0    0    0  0.00000000000E+00  0.00000000000E+00  0.30688684767E+03  0.30688684767E+03  0.00000000000E+00 0.  1.
         22   -1    0    0    0    0 -0.00000000000E+00 -0.00000000000E+00 -0.58374376005E+03  0.58374376005E+03  0.00000000000E+00 0.  1.
        -24    2    1    2    0    0 -0.56800879697E+02 -0.89449797356E+02 -0.42739608093E+03  0.44755354055E+03  0.80057201337E+02 0.  0.
         25    2    1    2    0    0  0.14384088549E+03 -0.33644560344E+02 -0.29349988126E+02  0.19578522362E+03  0.12509306617E+03 0.  0.
         24    2    1    2    0    0 -0.87040005796E+02  0.12309435770E+03  0.17988915668E+03  0.24729184355E+03  0.77877876768E+02 0.  0.
        -13    1    5    5    0    0 -0.61843359406E+02  0.12785216060E+03  0.13705898222E+03  0.19737259354E+03  0.00000000000E+00 0.  1.
         14    1    5    5    0    0 -0.25196646390E+02 -0.47578029017E+01  0.42830174451E+02  0.49919250007E+02  0.00000000000E+00 0. -1.
         11    1    3    3    0    0 -0.63678303759E+02 -0.93051163422E+02 -0.30944604218E+03  0.32934829346E+03  0.00000000000E+00 0. -1.
        -12    1    3    3    0    0  0.68774240615E+01  0.36013660659E+01 -0.11795003876E+03  0.11820524710E+03  0.00000000000E+00 0.  1.
          5    1    4    4  501    0  0.15458775478E+02 -0.15930547435E+02  0.42070570149E+02  0.47751035104E+02  0.41800000000E+01 0. -1.
         -5    1    4    4    0  501  0.12838211002E+03 -0.17714012909E+02 -0.71420558275E+02  0.14803418852E+03  0.41800000000E+01 0. -1.
</event>
<event>
11    1  0.8039394E-009  0.1400248E+03  0.7561462E-02  0.1107531E+00
         22   -1    0    0    0    0  0.00000000000E+00  0.00000000000E+00  0.61351755736E+03  0.61351755736E+03  0.00000000000E+00 0.  1.
         22   -1    0    0    0    0 -0.00000000000E+00 -0.00000000000E+00 -0.14772676039E+04  0.14772676039E+04  0.00000000000E+00 0.  1.
        -24    2    1    2    0    0 -0.90563228457E+01  0.46306969247E+02 -0.14510005660E+04  0.14539997318E+04  0.80537104388E+02 0.  0.
         25    2    1    2    0    0 -0.57370444159E+02 -0.32540391426E+02  0.32892474116E+03  0.35803620586E+03  0.12509274329E+03 0.  0.
         24    2    1    2    0    0  0.66426767004E+02 -0.13766577821E+02  0.25832577830E+03  0.27874922357E+03  0.79792780795E+02 0.  0.
        -11    1    5    5    0    0  0.13378749182E+02 -0.45529695561E+00  0.19337665878E+03  0.19383944487E+03  0.00000000000E+00 0.  1.
         12    1    5    5    0    0  0.53048017822E+02 -0.13311280865E+02  0.64949119521E+02  0.84909778704E+02  0.00000000000E+00 0. -1.
         11    1    3    3    0    0  0.58247267183E+01 -0.12733745132E+02 -0.57897876006E+02  0.59567102938E+02  0.00000000000E+00 0. -1.
        -12    1    3    3    0    0 -0.14881049564E+02  0.59040714379E+02 -0.13931026900E+04  0.13944326288E+04  0.00000000000E+00 0.  1.
          5    1    4    4  501    0  0.26834843808E+02  0.26111798662E+02  0.70174482108E+02  0.79648384859E+02  0.41800000000E+01 0. -1.
         -5    1    4    4    0  501 -0.84205287967E+02 -0.58652190088E+02  0.25875025905E+03  0.27838782100E+03  0.41800000000E+01 0. -1.
</event>
<event>
11    1  0.8039394E-009  0.3346480E+03  0.7561462E-02  0.9865078E-01
         22   -1    0    0    0    0  0.00000000000E+00  0.00000000000E+00  0.11449445401E+04  0.11449445401E+04  0.00000000000E+00 0.  1.
         22   -1    0    0    0    0 -0.00000000000E+00 -0.00000000000E+00 -0.50429101430E+03  0.50429101430E+03  0.00000000000E+00 0. -1.
         24    2    1    2    0    0  0.14981508193E+03 -0.27038262162E+03 -0.37686801722E+03  0.49385305402E+03  0.79435607371E+02 0.  0.
         25    2    1    2    0    0 -0.16762681558E+03  0.27320660876E+03  0.38686473828E+03  0.51773793970E+03  0.12509055962E+03 0.  0.
        -24    2    1    2    0    0  0.17811733652E+02 -0.28239871392E+01  0.63065680469E+03  0.63764456064E+03  0.92397768694E+02 0.  0.
        -13    1    3    3    0    0  0.33476583377E+02 -0.62964518526E+02 -0.40820467365E+02  0.82167650470E+02  0.00000000000E+00 0.  1.
         14    1    3    3    0    0  0.11633849855E+03 -0.20741810309E+03 -0.33604754985E+03  0.41168540355E+03  0.00000000000E+00 0. -1.
         13    1    5    5    0    0  0.15972934140E+02  0.92261243862E+01  0.21345992188E+02  0.28211830474E+02  0.00000000000E+00 0. -1.
        -14    1    5    5    0    0  0.18387995114E+01 -0.12050111525E+02  0.60931081250E+03  0.60943273017E+03  0.00000000000E+00 0.  1.
          5    1    4    4  501    0 -0.14811307970E+03  0.15388883901E+03  0.18598756082E+03  0.28324566074E+03  0.41800000000E+01 0. -1.
         -5    1    4    4    0  501 -0.19513735883E+02  0.11931776975E+03  0.20087717746E+03  0.23449227896E+03  0.41800000000E+01 0. -1.
</event>
<event>
11    1  0.8039394E-009  0.1329615E+03  0.7561462E-02  0.1115683E+00
         22   -1    0    0    0    0  0.00000000000E+00  0.00000000000E+00  0.13523749966E+04  0.13523749966E+04  0.00000000000E+00 0. -1.
         22   -1    0    0    0    0 -0.00000000000E+00 -0.00000000000E+00 -0.36330180664E+03  0.36330180664E+03  0.00000000000E+00 0.  1.
         24    2    1    2    0    0  0.45325022629E+02 -0.71036143106E+01 -0.34218379354E+03  0.35453751311E+03  0.80636720084E+02 0.  0.
         25    2    1    2    0    0 -0.27413452591E+01  0.79264899667E+01  0.29208159711E+03  0.31785472428E+03  0.12509844985E+03 0.  0.
        -24    2    1    2    0    0 -0.42583677370E+02 -0.82287565606E+00  0.10391753864E+04  0.10432845658E+04  0.82116715421E+02 0.  0.
        -11    1    3    3    0    0  0.57767045858E+02 -0.48483127874E+00 -0.13456722196E+03  0.14644317626E+03  0.00000000000E+00 0.  1.
         12    1    3    3    0    0 -0.12442023229E+02 -0.66187830319E+01 -0.20761657159E+03  0.20809433685E+03  0.00000000000E+00 0. -1.
         13    1    5    5    0    0 -0.26563699675E+01  0.37244220187E+02  0.42066497948E+03  0.42231885253E+03  0.00000000000E+00 0. -1.
        -14    1    5    5    0    0 -0.39927307403E+02 -0.38067095843E+02  0.61851040688E+03  0.62096571329E+03  0.00000000000E+00 0.  1.
          5    1    4    4  501    0 -0.49954234582E+02  0.29458581523E+02  0.76567026983E+02  0.96141643418E+02  0.41800000000E+01 0.  1.
         -5    1    4    4    0  501  0.47212889323E+02 -0.21532091556E+02  0.21551457013E+03  0.22171308086E+03  0.41800000000E+01 0.  1.
</event>
<event>
11    1  0.8039394E-009  0.1336401E+03  0.7561462E-02  0.1114876E+00
         22   -1    0    0    0    0  0.00000000000E+00  0.00000000000E+00  0.45894532745E+03  0.45894532745E+03  0.00000000000E+00 0.  1.
         22   -1    0    0    0    0 -0.00000000000E+00 -0.00000000000E+00 -0.12076952038E+04  0.12076952038E+04  0.00000000000E+00 0.  1.
         24    2    1    2    0    0 -0.23370070713E+02  0.40702616058E+02 -0.11263513491E+04  0.11301483967E+04  0.79782039118E+02 0.  0.
         25    2    1    2    0    0 -0.92064437104E+01 -0.64570219489E+02 -0.73936492056E+01  0.14125409333E+03  0.12507590089E+03 0.  0.
        -24    2    1    2    0    0  0.32576514424E+02  0.23867603431E+02  0.38499512190E+03  0.39523804128E+03  0.79755711993E+02 0.  0.
        -13    1    3    3    0    0 -0.10990944803E+02  0.12571333784E+02 -0.99904673186E+03  0.99918627479E+03  0.00000000000E+00 0.  1.
         14    1    3    3    0    0 -0.12379125910E+02  0.28131282274E+02 -0.12730461723E+03  0.13096212189E+03  0.00000000000E+00 0. -1.
         11    1    5    5    0    0  0.36620487207E+01  0.38669307162E+02  0.84587882992E+02  0.93079728546E+02  0.00000000000E+00 0. -1.
        -12    1    5    5    0    0  0.28914465703E+02 -0.14801703731E+02  0.30040723891E+03  0.30215831273E+03  0.00000000000E+00 0.  1.
          5    1    4    4  501    0 -0.42927575201E+02 -0.46079261147E+02  0.43992477498E+02  0.76934293374E+02  0.41800000000E+01 0. -1.
         -5    1    4    4    0  501  0.33721131490E+02 -0.18490958343E+02 -0.51386126704E+02  0.64319799961E+02  0.41800000000E+01 0. -1.
</event>
<event>
11    1  0.8039394E-009  0.2496372E+03  0.7561462E-02  0.1024093E+00
         22   -1    0    0    0    0  0.00000000000E+00  0.00000000000E+00  0.15461594865E+04  0.15461594865E+04  0.00000000000E+00 0. -1.
         22   -1    0    0    0    0 -0.00000000000E+00 -0.00000000000E+00 -0.35840644441E+03  0.35840644441E+03  0.00000000000E+00 0. -1.
         24    2    1    2    0    0  0.20693112326E+03 -0.70661539813E+02 -0.28100803706E+03  0.36503156427E+03  0.80429988433E+02 0.  0.
         25    2    1    2    0    0 -0.17902140987E+03  0.69007380537E+02  0.35498293355E+03  0.42245795928E+03  0.12508861054E+03 0.  0.
        -24    2    1    2    0    0 -0.27909713396E+02  0.16541592753E+01  0.11137781456E+04  0.11170764073E+04  0.81094105533E+02 0.  0.
        -11    1    3    3    0    0  0.21789932637E+02 -0.39587229887E+02 -0.51097114648E+02  0.68211912888E+02  0.00000000000E+00 0.  1.
         12    1    3    3    0    0  0.18514119063E+03 -0.31074309926E+02 -0.22991092241E+03  0.29681965138E+03  0.00000000000E+00 0. -1.
         13    1    5    5    0    0 -0.36999958629E+01 -0.32599364505E+02  0.77756350969E+03  0.77825536949E+03  0.00000000000E+00 0. -1.
        -14    1    5    5    0    0 -0.24209717534E+02  0.34253523780E+02  0.33621463588E+03  0.33882103786E+03  0.00000000000E+00 0.  1.
          5    1    4    4  501    0  0.17688318634E+02 -0.19985498069E+01  0.16906334481E+02  0.24903159699E+02  0.41800000000E+01 0. -1.
         -5    1    4    4    0  501 -0.19670972850E+03  0.71005930344E+02  0.33807659907E+03  0.39755479958E+03  0.41800000000E+01 0. -1.
</event>
<event>
11    1  0.8039394E-009  0.2067992E+03  0.7561462E-02  0.1049817E+00
         22   -1    0    0    0    0  0.00000000000E+00  0.00000000000E+00  0.80163444885E+03  0.80163444885E+03  0.00000000000E+00 0. -1.
         22   -1    0    0    0    0 -0.00000000000E+00 -0.00000000000E+00 -0.38390020361E+03  0.38390020361E+03  0.00000000000E+00 0. -1.
        -24    2    1    2    0    0 -0.16002962510E+02  0.57312923589E+02 -0.28843162961E+03  0.30565394639E+03  0.81796478921E+02 0.  0.
         25    2    1    2    0    0 -0.14036476822E+03 -0.10711309303E+03  0.85203032183E+02  0.23255469337E+03  0.12508655347E+03 0.  0.
         24    2    1    2    0    0  0.15636773073E+03  0.49800169445E+02  0.62096284267E+03  0.64732601270E+03  0.80654762126E+02 0.  0.
        -11    1    5    5    0    0  0.10169196828E+02 -0.16813498762E+02  0.40116678821E+02  0.44670507322E+02  0.00000000000E+00 0.  1.
         12    1    5    5    0    0  0.14619853390E+03  0.66613668207E+02  0.58084616385E+03  0.60265550538E+03  0.00000000000E+00 0. -1.
         13    1    3    3    0    0 -0.32747874669E+02  0.70971420559E+02 -0.24460322267E+03  0.25678804951E+03  0.00000000000E+00 0. -1.
        -14    1    3    3    0    0  0.16744912159E+02 -0.13658496971E+02 -0.43828406950E+02  0.48865896886E+02  0.00000000000E+00 0.  1.
          5    1    4    4  501    0 -0.58378494490E+02  0.22271438901E+02  0.32203229684E+02  0.70417228089E+02  0.41800000000E+01 0.  1.
         -5    1    4    4    0  501 -0.81986273728E+02 -0.12938453193E+03  0.52999802499E+02  0.16213746528E+03  0.41800000000E+01 0.  1.
</event>
<event>
11    1  0.8039394E-009  0.2454385E+03  0.7561462E-02  0.1026358E+00
         22   -1    0    0    0    0  0.00000000000E+00  0.00000000000E+00  0.50380009965E+03  0.50380009965E+03  0.00000000000E+00 0. -1.
         22   -1    0    0    0    0 -0.00000000000E+00 -0.00000000000E+00 -0.27779429093E+03  0.27779429093E+03  0.00000000000E+00 0.  1.
         24    2    1    2    0    0  0.16524643091E+03 -0.11263528505E+03 -0.73264549096E+02  0.22761214011E+03  0.80290110245E+02 0.  0.
         25    2    1    2    0    0 -0.18339799804E+03  0.14270254158E+03  0.23646755228E+02  0.26496175421E+03  0.12508685424E+03 0.  0.
        -24    2    1    2    0    0  0.18151567126E+02 -0.30067256533E+02  0.27562360258E+03  0.28902049626E+03  0.79567315213E+02 0.  0.
        -11    1    3    3    0    0  0.80832803950E+02 -0.99320866300E+02 -0.28702485584E+02  0.13123417754E+03  0.00000000000E+00 0.  1.
         12    1    3    3    0    0  0.84413626963E+02 -0.13314418749E+02 -0.44562063512E+02  0.96377962564E+02  0.00000000000E+00 0. -1.
         11    1    5    5    0    0  0.47471989662E+02 -0.26945335224E+02  0.14081453866E+03  0.15102441919E+03  0.00000000000E+00 0. -1.
        -12    1    5    5    0    0 -0.29320422536E+02 -0.31219213093E+01  0.13480906392E+03  0.13799607707E+03  0.00000000000E+00 0.  1.
          5    1    4    4  501    0 -0.16732620573E+03  0.14994993124E+03 -0.11926953550E+02  0.22503947570E+03  0.41800000000E+01 0.  1.
         -5    1    4    4    0  501 -0.16071792308E+02 -0.72473896605E+01  0.35573708779E+02  0.39922278507E+02  0.41800000000E+01 0.  1.
</event>
<event>
11    1  0.8039394E-009  0.2276144E+03  0.7561462E-02  0.1036550E+00
         22   -1    0    0    0    0  0.00000000000E+00  0.00000000000E+00  0.25499758964E+04  0.25499758964E+04  0.00000000000E+00 0. -1.
         22   -1    0    0    0    0 -0.00000000000E+00 -0.00000000000E+00 -0.24405867565E+03  0.24405867565E+03  0.00000000000E+00 0. -1.
        -24    2    1    2    0    0  0.10423220548E+02  0.11060112734E+03 -0.91451376684E+02  0.16563254119E+03  0.82033721787E+02 0.  0.
         25    2    1    2    0    0  0.89479305946E+02 -0.26832802253E+03  0.10444939839E+03  0.32644017065E+03  0.12508810622E+03 0.  0.
         24    2    1    2    0    0 -0.99902526495E+02  0.15772689520E+03  0.22929191991E+04  0.23019618602E+04  0.81802593250E+02 0.  0.
        -11    1    5    5    0    0 -0.33891936858E+02  0.54631734549E+02  0.40433703230E+03  0.40941632295E+03  0.00000000000E+00 0.  1.
         12    1    5    5    0    0 -0.66010589636E+02  0.10309516065E+03  0.18885821668E+04  0.18925455373E+04  0.00000000000E+00 0. -1.
         13    1    3    3    0    0  0.14336702149E+02  0.52131873782E+02 -0.92364242648E+02  0.10702535500E+03  0.00000000000E+00 0. -1.
        -14    1    3    3    0    0 -0.39134816012E+01  0.58469253555E+02  0.91286596432E+00  0.58607186196E+02  0.00000000000E+00 0.  1.
          5    1    4    4  501    0  0.73055185400E+02 -0.16718135499E+03  0.12584180994E+03  0.22167611306E+03  0.41800000000E+01 0.  1.
         -5    1    4    4    0  501  0.16424120546E+02 -0.10114666755E+03 -0.21392411551E+02  0.10476405759E+03  0.41800000000E+01 0.  1.
</event>
<event>
11    1  0.8039394E-009  0.1415330E+03  0.7561462E-02  0.1105859E+00
         22   -1    0    0    0    0  0.00000000000E+00  0.00000000000E+00  0.50065190280E+03  0.50065190280E+03  0.00000000000E+00 0.  1.
         22   -1    0    0    0    0 -0.00000000000E+00 -0.00000000000E+00 -0.69341582888E+03  0.69341582888E+03  0.00000000000E+00 0. -1.
        -24    2    1    2    0    0 -0.79665875385E+01  0.29949242398E+02 -0.65460215720E+03  0.66173649425E+03  0.91819278913E+02 0.  0.
         25    2    1    2    0    0 -0.57774811783E+02 -0.39313588037E+01  0.15635679041E+03  0.20844305591E+03  0.12509067588E+03 0.  0.
         24    2    1    2    0    0  0.65741399322E+02 -0.26017883594E+02  0.30548144071E+03  0.32388818151E+03  0.81152828985E+02 0.  0.
        -11    1    5    5    0    0  0.30390620890E+01 -0.19951238611E+02  0.20008764139E+03  0.20110283951E+03  0.00000000000E+00 0.  1.
         12    1    5    5    0    0  0.62702337233E+02 -0.60666449831E+01  0.10539379931E+03  0.12278534200E+03  0.00000000000E+00 0. -1.
         11    1    3    3    0    0 -0.38600944394E+02  0.18459272987E+02 -0.56007766825E+03  0.56170968671E+03  0.00000000000E+00 0. -1.
        -12    1    3    3    0    0  0.30634356856E+02  0.11489969411E+02 -0.94524488948E+02  0.10002680755E+03  0.00000000000E+00 0.  1.
          5    1    4    4  501    0 -0.62603591067E+02  0.40123832618E+02  0.41491519566E+02  0.85253446583E+02  0.41800000000E+01 0. -1.
         -5    1    4    4    0  501  0.48287792837E+01 -0.44055191421E+02  0.11486527085E+03  0.12318960933E+03  0.41800000000E+01 0. -1.
</event>
<event>
11    1  0.8039394E-009  0.1797557E+03  0.7561462E-02  0.1069841E+00
         22   -1    0    0    0    0  0.00000000000E+00  0.00000000000E+00  0.13644156609E+03  0.13644156609E+03  0.00000000000E+00 0.  1.
         22   -1    0    0    0    0 -0.00000000000E+00 -0.00000000000E+00 -0.14947462341E+04  0.14947462341E+04  0.00000000000E+00 0.  1.
         24    2    1    2    0    0 -0.48568473544E+02 -0.12045010482E+03 -0.12300847088E+04  0.12392479543E+04  0.75894513349E+02 0.  0.
         25    2    1    2    0    0  0.55221830735E+02  0.11092087290E+03 -0.21148185794E+03  0.27518668106E+03  0.12510092948E+03 0.  0.
        -24    2    1    2    0    0 -0.66533571918E+01  0.95292319172E+01  0.83261898685E+02  0.11675316482E+03  0.81016568065E+02 0.  0.
        -13    1    3    3    0    0 -0.85782955787E+01 -0.98555611785E+02 -0.98527929988E+03  0.99023335358E+03  0.00000000000E+00 0.  1.
         14    1    3    3    0    0 -0.39990177965E+02 -0.21894493034E+02 -0.24480540891E+03  0.24901460076E+03  0.00000000000E+00 0. -1.
         11    1    5    5    0    0 -0.55098743255E+00  0.95427801181E+01 -0.15279454961E+02  0.18023040350E+02  0.00000000000E+00 0. -1.
        -12    1    5    5    0    0 -0.61023697593E+01 -0.13548200870E-01  0.98541353646E+02  0.98730124474E+02  0.00000000000E+00 0.  1.
          5    1    4    4  501    0  0.39274776017E+02 -0.15972110145E+02 -0.85967642955E+02  0.95945423908E+02  0.41800000000E+01 0.  1.
         -5    1    4    4    0  501  0.15947054718E+02  0.12689298305E+03 -0.12551421499E+03  0.17924125715E+03  0.41800000000E+01 0.  1.
</event>
<event>
11    1  0.8039394E-009  0.1911839E+03  0.7561462E-02  0.1060939E+00
         22   -1    0    0    0    0  0.00000000000E+00  0.00000000000E+00  0.89807266585E+03  0.89807266585E+03  0.00000000000E+00 0.  1.
         22   -1    0    0    0    0 -0.00000000000E+00 -0.00000000000E+00 -0.67380586259E+03  0.67380586259E+03  0.00000000000E+00 0. -1.
        -24    2    1    2    0    0 -0.20827923305E+02 -0.14674165559E+03 -0.37089951077E+03  0.40976673629E+03  0.91517294573E+02 0.  0.
         25    2    1    2    0    0  0.53843782233E+02  0.13079892568E+03 -0.25019581468E+03  0.31345245208E+03  0.12508789785E+03 0.  0.
         24    2    1    2    0    0 -0.33015858928E+02  0.15942729910E+02  0.84536212870E+03  0.84865934007E+03  0.65125488610E+02 0.  0.
        -11    1    5    5    0    0 -0.38220733787E+02  0.34899144827E+02  0.70912346447E+03  0.71100974864E+03  0.00000000000E+00 0.  1.
         12    1    5    5    0    0  0.52048748592E+01 -0.18956414917E+02  0.13623866423E+03  0.13764959143E+03  0.00000000000E+00 0. -1.
         13    1    3    3    0    0 -0.50361947602E+02 -0.96925777490E+02 -0.29300607918E+03  0.31270352499E+03  0.00000000000E+00 0. -1.
        -14    1    3    3    0    0  0.29534024297E+02 -0.49815878098E+02 -0.77893431595E+02  0.97063211298E+02  0.00000000000E+00 0.  1.
          5    1    4    4  501    0 -0.10330146973E+02  0.95949131633E+02 -0.20719157493E+03  0.22860176928E+03  0.41800000000E+01 0. -1.
         -5    1    4    4    0  501  0.64173929206E+02  0.34849794044E+02 -0.43004239751E+02  0.84850682797E+02  0.41800000000E+01 0. -1.
</event>
<event>
11    1  0.8896716E-009  0.1485674E+03  0.7561462E-02  0.1098352E+00
         22   -1    0    0    0    0  0.00000000000E+00  0.00000000000E+00  0.78774815091E+03  0.78774815091E+03  0.00000000000E+00 0.  1.
         22   -1    0    0    0    0 -0.00000000000E+00 -0.00000000000E+00 -0.37710814184E+03  0.37710814184E+03  0.00000000000E+00 0.  1.
        -24    2    1    2    0    0  0.36898076620E+02 -0.19304721187E+02 -0.26028724134E+03  0.27521677554E+03  0.79124491909E+02 0.  0.
         25    2    1    2    0    0 -0.11233061949E+03 -0.41193774952E+01 -0.37725536562E+02  0.17235169494E+03  0.12508698291E+03 0.  0.
         24    2    1    2    0    0  0.75432542874E+02  0.23424098682E+02  0.70865278697E+03  0.71728782225E+03  0.77937735081E+02 0.  0.
        -13    1    5    5    0    0  0.35915156724E+02  0.24713042278E+02  0.12664845302E+03  0.13394201579E+03  0.00000000000E+00 0.  1.
         14    1    5    5    0    0  0.39517386149E+02 -0.12889435965E+01  0.58200433395E+03  0.58334580646E+03  0.00000000000E+00 0. -1.
         11    1    3    3    0    0  0.19006587008E+00 -0.38056877108E+02 -0.62462793755E+02  0.73143438693E+02  0.00000000000E+00 0. -1.
        -12    1    3    3    0    0  0.36708010750E+02  0.18752155921E+02 -0.19782444758E+03  0.20207333685E+03  0.00000000000E+00 0.  1.
          5    1    4    4  501    0 -0.34598908252E+02  0.34154785412E+02  0.34264861044E+02  0.59625388226E+02  0.41800000000E+01 0.  1.
         -5    1    4    4    0  501 -0.77731711242E+02 -0.38274162907E+02 -0.71990397606E+02  0.11272630672E+03  0.41800000000E+01 0.  1.
</event>
<event>
11    1  0.8039394E-009  0.3681013E+03  0.7561462E-02  0.9748868E-01
         22   -1    0    0    0    0  0.00000000000E+00  0.00000000000E+00  0.55464101985E+03  0.55464101985E+03  0.00000000000E+00 0.  1.
         22   -1    0    0    0    0 -0.00000000000E+00 -0.00000000000E+00 -0.10256098134E+04  0.10256098134E+04  0.00000000000E+00 0.  1.
         24    2    1    2    0    0 -0.22895545910E+03  0.23943720577E+03 -0.74880541434E+03  0.82289027059E+03  0.81780628012E+02 0.  0.
         25    2    1    2    0    0  0.37836653703E+03 -0.32419788416E+03  0.19536919750E+03  0.54961930132E+03  0.12508696419E+03 0.  0.
        -24    2    1    2    0    0 -0.14941107793E+03  0.84760678386E+02  0.82467423268E+02  0.20774126137E+03  0.82749700705E+02 0.  0.
        -13    1    3    3    0    0 -0.17984826540E+03  0.13374640431E+03 -0.51463303936E+03  0.56132046501E+03  0.00000000000E+00 0.  1.
         14    1    3    3    0    0 -0.49107193708E+02  0.10569080147E+03 -0.23417237498E+03  0.26156980559E+03  0.00000000000E+00 0. -1.
         13    1    5    5    0    0 -0.35688140897E+01  0.65843378513E+01 -0.14233652482E+02  0.16083743405E+02  0.00000000000E+00 0. -1.
        -14    1    5    5    0    0 -0.14584226384E+03  0.78176340535E+02  0.96701075750E+02  0.19165751796E+03  0.00000000000E+00 0.  1.
          5    1    4    4  501    0  0.16233540336E+03 -0.19342340894E+03  0.14777464863E+03  0.29260932570E+03  0.41800000000E+01 0.  1.
         -5    1    4    4    0  501  0.21603113367E+03 -0.13077447522E+03  0.47594548871E+02  0.25700997561E+03  0.41800000000E+01 0.  1.
</event>
<event>
11    1  0.8039394E-009  0.1620839E+03  0.7561462E-02  0.1085134E+00
         22   -1    0    0    0    0  0.00000000000E+00  0.00000000000E+00  0.79932728681E+03  0.79932728681E+03  0.00000000000E+00 0.  1.
         22   -1    0    0    0    0 -0.00000000000E+00 -0.00000000000E+00 -0.23458141281E+03  0.23458141281E+03  0.00000000000E+00 0.  1.
         24    2    1    2    0    0 -0.48418119882E+02  0.15709488693E+01 -0.17504820296E+03  0.20111689569E+03  0.86367529546E+02 0.  0.
         25    2    1    2    0    0 -0.24613457779E+02 -0.80704477225E+02  0.10455239687E+03  0.18357108135E+03  0.12509237893E+03 0.  0.
        -24    2    1    2    0    0  0.73031577661E+02  0.79133528356E+02  0.63524168008E+03  0.64922072258E+03  0.79748528955E+02 0.  0.
        -13    1    3    3    0    0 -0.65208595240E+02 -0.21606681047E+02 -0.10531444270E+03  0.12573838475E+03  0.00000000000E+00 0.  1.
         14    1    3    3    0    0  0.16790475358E+02  0.23177629916E+02 -0.69733760260E+02  0.75378510938E+02  0.00000000000E+00 0. -1.
         13    1    5    5    0    0 -0.13361300655E+02  0.16804742419E+02  0.19923626966E+03  0.20038965760E+03  0.00000000000E+00 0. -1.
        -14    1    5    5    0    0  0.86392878316E+02  0.62328785937E+02  0.43600541042E+03  0.44883106499E+03  0.00000000000E+00 0.  1.
          5    1    4    4  501    0 -0.22132712303E+01 -0.49603066167E+02  0.12874685180E+03  0.13805284130E+03  0.41800000000E+01 0. -1.
         -5    1    4    4    0  501 -0.22400186549E+02 -0.31101411058E+02 -0.24194454932E+02  0.45518240044E+02  0.41800000000E+01 0. -1.
</event>
<event>
11    1  0.8039394E-009  0.1676602E+03  0.7561462E-02  0.1080086E+00
         22   -1    0    0    0    0  0.00000000000E+00  0.00000000000E+00  0.16135936767E+04  0.16135936767E+04  0.00000000000E+00 0. -1.
         22   -1    0    0    0    0 -0.00000000000E+00 -0.00000000000E+00 -0.17178383244E+04  0.17178383244E+04  0.00000000000E+00 0.  1.
        -24    2    1    2    0    0 -0.57341339657E+02 -0.95283702555E+02 -0.16665848741E+04  0.16722279960E+04  0.80463127680E+02 0.  0.
         25    2    1    2    0    0  0.94403914771E+02  0.10730584733E+03  0.14462801049E+03  0.23872916540E+03  0.12509080300E+03 0.  0.
         24    2    1    2    0    0 -0.37062575115E+02 -0.12022144780E+02  0.14177122158E+04  0.14204748397E+04  0.79515262540E+02 0.  0.
        -11    1    5    5    0    0  0.35625442343E+01 -0.33318597302E+02  0.30846696422E+03  0.31028162798E+03  0.00000000000E+00 0.  1.
         12    1    5    5    0    0 -0.40625119349E+02  0.21296452522E+02  0.11092452516E+04  0.11101932117E+04  0.00000000000E+00 0. -1.
         13    1    3    3    0    0 -0.56280722051E+02 -0.94398526617E+02 -0.10676870971E+04  0.10733286258E+04  0.00000000000E+00 0. -1.
        -14    1    3    3    0    0 -0.10606176056E+01 -0.88517593815E+00 -0.59889777694E+03  0.59889937023E+03  0.00000000000E+00 0.  1.
          5    1    4    4  501    0  0.47753229185E+02  0.81537651770E+02  0.15752271977E+03  0.18373796341E+03  0.41800000000E+01 0.  1.
         -5    1    4    4    0  501  0.46650685586E+02  0.25768195565E+02 -0.12894709279E+02  0.54991201984E+02  0.41800000000E+01 0.  1.
</event>
<event>
11    1  0.8039394E-009  0.1361326E+03  0.7561462E-02  0.1111955E+00
         22   -1    0    0    0    0  0.00000000000E+00  0.00000000000E+00  0.79920293395E+02  0.79920293395E+02  0.00000000000E+00 0.  1.
         22   -1    0    0    0    0 -0.00000000000E+00 -0.00000000000E+00 -0.73344412691E+03  0.73344412691E+03  0.00000000000E+00 0. -1.
         24    2    1    2    0    0  0.78862271059E+00  0.82285795056E+00 -0.53759009268E+03  0.54252906251E+03  0.73029972616E+02 0.  0.
         25    2    1    2    0    0  0.50542157230E+02 -0.17012703552E+02 -0.11838156567E+03  0.18029301673E+03  0.12508970802E+03 0.  0.
        -24    2    1    2    0    0 -0.51330779940E+02  0.16189845602E+02  0.24478248384E+01  0.90542341059E+02  0.72766500590E+02 0.  0.
        -13    1    3    3    0    0  0.42374259611E+01  0.32858938444E+02 -0.15066774925E+03  0.15426741807E+03  0.00000000000E+00 0.  1.
         14    1    3    3    0    0 -0.34488032505E+01 -0.32036080493E+02 -0.38692234344E+03  0.38826164445E+03  0.00000000000E+00 0. -1.
         13    1    5    5    0    0 -0.35088473851E+01  0.20044055916E+02  0.29215197245E+02  0.35603425925E+02  0.00000000000E+00 0. -1.
        -14    1    5    5    0    0 -0.47821932555E+02 -0.38542103147E+01 -0.26767372407E+02  0.54938915133E+02  0.00000000000E+00 0.  1.
          5    1    4    4  501    0 -0.38701811298E+02 -0.12978492237E+02 -0.62730035668E+02  0.74958663498E+02  0.41800000000E+01 0. -1.
         -5    1    4    4    0  501  0.89243968528E+02 -0.40342113150E+01 -0.55651529999E+02  0.10533435323E+03  0.41800000000E+01 0. -1.
</event>
<event>
11    1  0.8039394E-009  0.1667831E+03  0.7561462E-02  0.1080865E+00
         22   -1    0    0    0    0  0.00000000000E+00  0.00000000000E+00  0.16794562697E+04  0.16794562697E+04  0.00000000000E+00 0. -1.
         22   -1    0    0    0    0 -0.00000000000E+00 -0.00000000000E+00 -0.16954442804E+03  0.16954442804E+03  0.00000000000E+00 0. -1.
        -24    2    1    2    0    0 -0.59685606018E+02  0.90360127346E+02 -0.12218626488E+03  0.18117708674E+03  0.78538711823E+02 0.  0.
         25    2    1    2    0    0  0.48594115737E+02 -0.16239660475E+03  0.75111891702E+03  0.78010373304E+03  0.12509261161E+03 0.  0.
         24    2    1    2    0    0  0.11091490281E+02  0.72036477404E+02  0.88097918951E+03  0.88771987796E+03  0.81301747452E+02 0.  0.
        -11    1    5    5    0    0  0.20397754406E+02 -0.11246974018E+02  0.27308400904E+03  0.27407560782E+03  0.00000000000E+00 0.  1.
         12    1    5    5    0    0 -0.93062641247E+01  0.83283451422E+02  0.60789518047E+03  0.61364427014E+03  0.00000000000E+00 0. -1.
         11    1    3    3    0    0 -0.64767884552E+02  0.75528213142E+02 -0.58134995194E+02  0.11523483638E+03  0.00000000000E+00 0. -1.
        -12    1    3    3    0    0  0.50822785341E+01  0.14831914204E+02 -0.64051269685E+02  0.65942250358E+02  0.00000000000E+00 0.  1.
          5    1    4    4  501    0  0.84644331924E+02 -0.84865017304E+02  0.51968842336E+03  0.53334816383E+03  0.41800000000E+01 0. -1.
         -5    1    4    4    0  501 -0.36050216188E+02 -0.77531587445E+02  0.23143049366E+03  0.24675556921E+03  0.41800000000E+01 0. -1.
</event>
<event>
11    1  0.8039394E-009  0.1552905E+03  0.7561462E-02  0.1091592E+00
         22   -1    0    0    0    0  0.00000000000E+00  0.00000000000E+00  0.18006874108E+04  0.18006874108E+04  0.00000000000E+00 0.  1.
         22   -1    0    0    0    0 -0.00000000000E+00 -0.00000000000E+00 -0.14107552403E+04  0.14107552403E+04  0.00000000000E+00 0. -1.
         24    2    1    2    0    0  0.83789121739E+02 -0.40209405446E+02 -0.13759586581E+04  0.13814271891E+04  0.80258560912E+02 0.  0.
         25    2    1    2    0    0 -0.13729862230E+02  0.59407847101E+02  0.12951920630E+03  0.19010728505E+03  0.12509098134E+03 0.  0.
        -24    2    1    2    0    0 -0.70059259509E+02 -0.19198441655E+02  0.16363716224E+04  0.16399081770E+04  0.79434642142E+02 0.  0.
        -11    1    3    3    0    0  0.57572469489E+02  0.40049470540E+01 -0.40296253048E+03  0.40707423133E+03  0.00000000000E+00 0.  1.
         12    1    3    3    0    0  0.26216652250E+02 -0.44214352500E+02 -0.97299612767E+03  0.97435295776E+03  0.00000000000E+00 0. -1.
         13    1    5    5    0    0 -0.27192448944E+02 -0.22938522187E+02  0.21797538108E+03  0.22085939382E+03  0.00000000000E+00 0. -1.
        -14    1    5    5    0    0 -0.42866810565E+02  0.37400805325E+01  0.14183962413E+04  0.14190487831E+04  0.00000000000E+00 0.  1.
          5    1    4    4  501    0 -0.57449927771E+02  0.11319937466E+02  0.10542569939E+03  0.12066766625E+03  0.41800000000E+01 0. -1.
         -5    1    4    4    0  501  0.43720065542E+02  0.48087909635E+02  0.24093506910E+02  0.69439618802E+02  0.41800000000E+01 0. -1.
</event>
<event>
11    1  0.8039394E-009  0.1490994E+03  0.7561462E-02  0.1097803E+00
         22   -1    0    0    0    0  0.00000000000E+00  0.00000000000E+00  0.93335560616E+03  0.93335560616E+03  0.00000000000E+00 0. -1.
         22   -1    0    0    0    0 -0.00000000000E+00 -0.00000000000E+00 -0.50584832469E+03  0.50584832469E+03  0.00000000000E+00 0. -1.
         24    2    1    2    0    0 -0.21623661164E+02  0.22244794337E+02 -0.44230321439E+03  0.45057138646E+03  0.80125072499E+02 0.  0.
         25    2    1    2    0    0  0.56305781509E+01 -0.10058186720E+03  0.60836869745E+02  0.17174819070E+03  0.12509156993E+03 0.  0.
        -24    2    1    2    0    0  0.15993083013E+02  0.78337072863E+02  0.80897362611E+03  0.81688435369E+03  0.80431609889E+02 0.  0.
        -13    1    3    3    0    0 -0.38738610303E+02 -0.15309647602E+02 -0.16312784223E+03  0.16836198546E+03  0.00000000000E+00 0.  1.
         14    1    3    3    0    0  0.17114949139E+02  0.37554441939E+02 -0.27917537216E+03  0.28220940100E+03  0.00000000000E+00 0. -1.
         13    1    5    5    0    0  0.48837243143E+02  0.41836271092E+02  0.45981302979E+03  0.46428802727E+03  0.00000000000E+00 0. -1.
        -14    1    5    5    0    0 -0.32844160130E+02  0.36500801771E+02  0.34916059632E+03  0.35259632642E+03  0.00000000000E+00 0.  1.
          5    1    4    4  501    0  0.29753663740E+02 -0.12173101040E+03  0.60909393400E+02  0.13939564557E+03  0.41800000000E+01 0. -1.
         -5    1    4    4    0  501 -0.24123085589E+02  0.21149143204E+02 -0.72523654966E-01  0.32352545129E+02  0.41800000000E+01 0. -1.
</event>
<event>
11    1  0.8039394E-009  0.1397635E+03  0.7561462E-02  0.1107823E+00
         22   -1    0    0    0    0  0.00000000000E+00  0.00000000000E+00  0.30093679340E+03  0.30093679340E+03  0.00000000000E+00 0. -1.
         22   -1    0    0    0    0 -0.00000000000E+00 -0.00000000000E+00 -0.60023169534E+03  0.60023169534E+03  0.00000000000E+00 0.  1.
        -24    2    1    2    0    0  0.56705034752E+02  0.14977777057E+02 -0.52113966737E+03  0.53091565193E+03  0.82735009446E+02 0.  0.
         25    2    1    2    0    0 -0.10185453112E+03  0.14349798758E+02  0.51110961649E+02  0.16982793929E+03  0.12509570867E+03 0.  0.
         24    2    1    2    0    0  0.45149496370E+02 -0.29327575815E+02  0.17073380379E+03  0.20042489752E+03  0.90119498814E+02 0.  0.
        -13    1    5    5    0    0  0.14378669053E+02  0.20888937461E+02  0.12012672343E+03  0.12277427871E+03  0.00000000000E+00 0.  1.
         14    1    5    5    0    0  0.30770827317E+02 -0.50216513276E+02  0.50607080359E+02  0.77650618812E+02  0.00000000000E+00 0. -1.
         11    1    3    3    0    0  0.36985985931E+02 -0.23316165704E+02 -0.12469553852E+03  0.13213850334E+03  0.00000000000E+00 0. -1.
        -12    1    3    3    0    0  0.19719048821E+02  0.38293942760E+02 -0.39644412885E+03  0.39877714860E+03  0.00000000000E+00 0.  1.
          5    1    4    4  501    0  0.20990516796E+02 -0.86976938792E+01 -0.15805933545E+02  0.27991991880E+02  0.41800000000E+01 0. -1.
         -5    1    4    4    0  501 -0.12284504792E+03  0.23047492637E+02  0.66916895193E+02  0.14183594741E+03  0.41800000000E+01 0. -1.
</event>
<event>
11    1  0.8039394E-009  0.1272649E+03  0.7561462E-02  0.1122676E+00
         22   -1    0    0    0    0  0.00000000000E+00  0.00000000000E+00  0.50734649113E+03  0.50734649113E+03  0.00000000000E+00 0.  1.
         22   -1    0    0    0    0 -0.00000000000E+00 -0.00000000000E+00 -0.45335814535E+03  0.45335814535E+03  0.00000000000E+00 0. -1.
        -24    2    1    2    0    0 -0.16643308801E+00  0.12737997335E+02 -0.41756784179E+03  0.42526284802E+03  0.79519199785E+02 0.  0.
         25    2    1    2    0    0 -0.21823226436E+02 -0.18890277278E+02  0.12623435422E+03  0.18004319759E+03  0.12508934817E+03 0.  0.
         24    2    1    2    0    0  0.21989659524E+02  0.61522799429E+01  0.34532183335E+03  0.35539859087E+03  0.80867757056E+02 0.  0.
        -13    1    5    5    0    0  0.29756105990E+02 -0.28017624608E+02  0.25949676526E+03  0.26269561153E+03  0.00000000000E+00 0.  1.
         14    1    5    5    0    0 -0.77664464666E+01  0.34169904551E+02  0.85825068085E+02  0.92702979346E+02  0.00000000000E+00 0. -1.
         11    1    3    3    0    0  0.16638997606E+02  0.16087157899E+02 -0.40018528945E+03  0.40085398686E+03  0.00000000000E+00 0. -1.
        -12    1    3    3    0    0 -0.16805430694E+02 -0.33491605645E+01 -0.17382552341E+02  0.24408861162E+02  0.00000000000E+00 0.  1.
          5    1    4    4  501    0 -0.63974451257E+02  0.12127924081E+02  0.10455214690E+03  0.12324139231E+03  0.41800000000E+01 0. -1.
         -5    1    4    4    0  501  0.42151224821E+02 -0.31018201359E+02  0.21682207317E+02  0.56801805284E+02  0.41800000000E+01 0. -1.
</event>
<event>
11    1  0.8039394E-009  0.1777959E+03  0.7561462E-02  0.1071440E+00
         22   -1    0    0    0    0  0.00000000000E+00  0.00000000000E+00  0.17189564779E+03  0.17189564779E+03  0.00000000000E+00 0.  1.
         22   -1    0    0    0    0 -0.00000000000E+00 -0.00000000000E+00 -0.20905869889E+04  0.20905869889E+04  0.00000000000E+00 0.  1.
         24    2    1    2    0    0 -0.47780785673E+02 -0.29535591635E+02 -0.18066585334E+04  0.18093134052E+04  0.80278187820E+02 0.  0.
         25    2    1    2    0    0 -0.81723989811E+02 -0.60417651558E+01 -0.21755623444E+03  0.26399563033E+03  0.12509062417E+03 0.  0.
        -24    2    1    2    0    0  0.12950477548E+03  0.35577356791E+02  0.10552342671E+03  0.18917360113E+03  0.81327870927E+02 0.  0.
        -13    1    3    3    0    0  0.16334292941E+02 -0.26730863973E+02 -0.79853073889E+03  0.79914497381E+03  0.00000000000E+00 0.  1.
         14    1    3    3    0    0 -0.64115078615E+02 -0.28047276629E+01 -0.10081277945E+04  0.10101684314E+04  0.00000000000E+00 0. -1.
         13    1    5    5    0    0  0.99764091456E+02  0.25238432908E+02  0.29753673868E+02  0.10712204978E+03  0.00000000000E+00 0. -1.
        -14    1    5    5    0    0  0.29740684029E+02  0.10338923884E+02  0.75769752840E+02  0.82051551350E+02  0.00000000000E+00 0.  1.
          5    1    4    4  501    0 -0.88242043694E+02  0.42477241675E+02 -0.16597190972E+03  0.19275663815E+03  0.41800000000E+01 0. -1.
         -5    1    4    4    0  501  0.65180538828E+01 -0.48519006831E+02 -0.51584324718E+02  0.71238992180E+02  0.41800000000E+01 0. -1.
</event>
<event>
11    1  0.8039394E-009  0.2304127E+03  0.7561462E-02  0.1034884E+00
         22   -1    0    0    0    0  0.00000000000E+00  0.00000000000E+00  0.16890497477E+04  0.16890497477E+04  0.00000000000E+00 0.  1.
         22   -1    0    0    0    0 -0.00000000000E+00 -0.00000000000E+00 -0.16953042408E+03  0.16953042408E+03  0.00000000000E+00 0.  1.
         24    2    1    2    0    0  0.48762349480E+02  0.12012612466E+02 -0.51360513191E+01  0.97985232867E+02  0.83980100333E+02 0.  0.
         25    2    1    2    0    0 -0.23309526915E+03 -0.59770458515E+02  0.55339689884E+02  0.27679487820E+03  0.12508801344E+03 0.  0.
        -24    2    1    2    0    0  0.18433291967E+03  0.47757846049E+02  0.14693156850E+04  0.14838000607E+04  0.80713076210E+02 0.  0.
        -11    1    3    3    0    0  0.40280767641E+02  0.13720919220E+02 -0.42196744166E+02  0.59928032541E+02  0.00000000000E+00 0.  1.
         12    1    3    3    0    0  0.84815818382E+01 -0.17083067535E+01  0.37060692847E+02  0.38057200327E+02  0.00000000000E+00 0. -1.
         13    1    5    5    0    0  0.30429593507E+02  0.35951282209E+02  0.22002983909E+03  0.22501463273E+03  0.00000000000E+00 0. -1.
        -14    1    5    5    0    0  0.15390332617E+03  0.11806563840E+02  0.12492858459E+04  0.12587854279E+04  0.00000000000E+00 0.  1.
          5    1    4    4  501    0 -0.21410090132E+03 -0.37662409446E+02  0.86427152590E+02  0.23397602043E+03  0.41800000000E+01 0. -1.
         -5    1    4    4    0  501 -0.18994367834E+02 -0.22108049069E+02 -0.31087462706E+02  0.42818857768E+02  0.41800000000E+01 0. -1.
</event>
<event>
11    1  0.8039394E-009  0.1871431E+03  0.7561462E-02  0.1064007E+00
         22   -1    0    0    0    0  0.00000000000E+00  0.00000000000E+00  0.58907653850E+03  0.58907653850E+03  0.00000000000E+00 0. -1.
         22   -1    0    0    0    0 -0.00000000000E+00 -0.00000000000E+00 -0.51909306999E+03  0.51909306999E+03  0.00000000000E+00 0.  1.
         24    2    1    2    0    0 -0.11770892245E+02 -0.11357917096E+02 -0.39383458062E+03  0.40229810651E+03  0.80439625952E+02 0.  0.
         25    2    1    2    0    0  0.94179057078E+02 -0.10110117745E+03 -0.27529706765E+02  0.18840545688E+03  0.12509032158E+03 0.  0.
        -24    2    1    2    0    0 -0.82408164833E+02  0.11245909455E+03  0.49134775590E+03  0.51746604510E+03  0.83128436930E+02 0.  0.
        -11    1    3    3    0    0  0.91695483788E+01 -0.25111987510E+02 -0.35549345904E+03  0.35649725378E+03  0.00000000000E+00 0.  1.
         12    1    3    3    0    0 -0.20940440624E+02  0.13754070414E+02 -0.38341121583E+02  0.45800852729E+02  0.00000000000E+00 0. -1.
         13    1    5    5    0    0 -0.95769817887E+02  0.10723687407E+03  0.40120754275E+03  0.42619138605E+03  0.00000000000E+00 0. -1.
        -14    1    5    5    0    0  0.13361653054E+02  0.52222204714E+01  0.90140213144E+02  0.91274659050E+02  0.00000000000E+00 0.  1.
          5    1    4    4  501    0  0.46328685331E+02 -0.63605433084E+01 -0.61054953360E+02  0.77019369807E+02  0.41800000000E+01 0.  1.
         -5    1    4    4    0  501  0.47850371747E+02 -0.94740634142E+02  0.33525246595E+02  0.11138608707E+03  0.41800000000E+01 0.  1.
</event>
<event>
11    1  0.8039394E-009  0.1509831E+03  0.7561462E-02  0.1095878E+00
         22   -1    0    0    0    0  0.00000000000E+00  0.00000000000E+00  0.24627585236E+03  0.24627585236E+03  0.00000000000E+00 0.  1.
         22   -1    0    0    0    0 -0.00000000000E+00 -0.00000000000E+00 -0.19403205602E+04  0.19403205602E+04  0.00000000000E+00 0.  1.
        -24    2    1    2    0    0 -0.29513824199E+02 -0.24703001045E+02 -0.17601636970E+04  0.17624179135E+04  0.80370129700E+02 0.  0.
         25    2    1    2    0    0 -0.22338938943E+02  0.91262356557E+02 -0.12511880198E+03  0.20031616591E+03  0.12507600008E+03 0.  0.
         24    2    1    2    0    0  0.51852763143E+02 -0.66559355512E+02  0.19123779108E+03  0.22386233315E+03  0.80147330663E+02 0.  0.
        -13    1    5    5    0    0  0.61579870531E+02 -0.75216089329E+02  0.18591521377E+03  0.20979515547E+03  0.00000000000E+00 0.  1.
         14    1    5    5    0    0 -0.97271073879E+01  0.86567338169E+01  0.53225773135E+01  0.14067177676E+02  0.00000000000E+00 0. -1.
         13    1    3    3    0    0 -0.46244132321E+02 -0.45774476922E+01 -0.54653007831E+03  0.54850214157E+03  0.00000000000E+00 0. -1.
        -14    1    3    3    0    0  0.16730308121E+02 -0.20125553353E+02 -0.12136336186E+04  0.12139157720E+04  0.00000000000E+00 0.  1.
          5    1    4    4  501    0 -0.47556295513E+02  0.14569565319E+02  0.16776774680E+01  0.49941570642E+02  0.41800000000E+01 0.  1.
         -5    1    4    4    0  501  0.25217356570E+02  0.76692791237E+02 -0.12679647945E+03  0.15037459527E+03  0.41800000000E+01 0.  1.
</event>
<event>
11    1  0.8039394E-009  0.2255880E+03  0.7561462E-02  0.1037772E+00
         22   -1    0    0    0    0  0.00000000000E+00  0.00000000000E+00  0.27865802539E+04  0.27865802539E+04  0.00000000000E+00 0.  1.
         22   -1    0    0    0    0 -0.00000000000E+00 -0.00000000000E+00 -0.90962125496E+03  0.90962125496E+03  0.00000000000E+00 0.  1.
         24    2    1    2    0    0  0.11974922092E+02 -0.65527240086E+02 -0.88731220349E+03  0.89342236876E+03  0.80270571166E+02 0.  0.
         25    2    1    2    0    0 -0.90238870250E+02 -0.12338243571E+03  0.71565464679E+03  0.74241182824E+03  0.12508984809E+03 0.  0.
        -24    2    1    2    0    0  0.78263948159E+02  0.18890967580E+03  0.20486165556E+04  0.20603673118E+04  0.80445985006E+02 0.  0.
        -13    1    3    3    0    0 -0.27204777626E+02 -0.12187850204E+02 -0.46511664970E+03  0.46607096182E+03  0.00000000000E+00 0.  1.
         14    1    3    3    0    0  0.39179699717E+02 -0.53339389882E+02 -0.42219555379E+03  0.42735140695E+03  0.00000000000E+00 0. -1.
         13    1    5    5    0    0 -0.11125407706E+02  0.28032541196E+02  0.16105182942E+03  0.16385142606E+03  0.00000000000E+00 0. -1.
        -14    1    5    5    0    0  0.89389355865E+02  0.16087713460E+03  0.18875647262E+04  0.18965158858E+04  0.00000000000E+00 0.  1.
          5    1    4    4  501    0 -0.46335296504E+02 -0.20824084135E+02  0.46787908014E+03  0.47064732892E+03  0.41800000000E+01 0.  1.
         -5    1    4    4    0  501 -0.43903573747E+02 -0.10255835158E+03  0.24777556665E+03  0.27176449932E+03  0.41800000000E+01 0.  1.
</event>
<event>
11    1  0.8039394E-009  0.1478408E+03  0.7561462E-02  0.1099106E+00
         22   -1    0    0    0    0  0.00000000000E+00  0.00000000000E+00  0.84948070471E+03  0.84948070471E+03  0.00000000000E+00 0. -1.
         22   -1    0    0    0    0 -0.00000000000E+00 -0.00000000000E+00 -0.12275147437E+03  0.12275147437E+03  0.00000000000E+00 0. -1.
         24    2    1    2    0    0 -0.44280894373E+02  0.57270937909E+02 -0.57134921510E+02  0.12181008235E+03  0.79577251595E+02 0.  0.
         25    2    1    2    0    0  0.10850095495E+03 -0.15697893458E+02  0.22855176320E+03  0.28267145267E+03  0.12509340753E+03 0.  0.
        -24    2    1    2    0    0 -0.64220060577E+02 -0.41573044451E+02  0.55531238865E+03  0.56775064406E+03  0.90091124089E+02 0.  0.
        -11    1    3    3    0    0  0.16153648432E+01 -0.18726949386E+02 -0.97541076850E+01  0.21176653504E+02  0.00000000000E+00 0.  1.
         12    1    3    3    0    0 -0.45896259216E+02  0.75997887295E+02 -0.47380813825E+02  0.10063342885E+03  0.00000000000E+00 0. -1.
         13    1    5    5    0    0 -0.70123501010E+02 -0.37615445781E+02  0.55495846513E+03  0.56063457365E+03  0.00000000000E+00 0. -1.
        -14    1    5    5    0    0  0.59034404330E+01 -0.39575986693E+01  0.35392351661E+00  0.71160704064E+01  0.00000000000E+00 0.  1.
          5    1    4    4  501    0  0.60954804018E+02  0.48552193703E+02  0.15694231580E+03  0.17527454617E+03  0.41800000000E+01 0.  1.
         -5    1    4    4    0  501  0.47546150932E+02 -0.64250087161E+02  0.71609447401E+02  0.10739690650E+03  0.41800000000E+01 0.  1.
</event>
<event>
11    1  0.8039394E-009  0.1378620E+03  0.7561462E-02  0.1109970E+00
         22   -1    0    0    0    0  0.00000000000E+00  0.00000000000E+00  0.66562258382E+03  0.66562258382E+03  0.00000000000E+00 0.  1.
         22   -1    0    0    0    0 -0.00000000000E+00 -0.00000000000E+00 -0.17785493847E+04  0.17785493847E+04  0.00000000000E+00 0.  1.
         24    2    1    2    0    0 -0.25642808295E+02  0.13090498690E+02 -0.16928579845E+04  0.16950680864E+04  0.81601146944E+02 0.  0.
         25    2    1    2    0    0  0.59604539560E+02  0.33548273731E+02 -0.17373263942E+02  0.14363257145E+03  0.12510114897E+03 0.  0.
        -24    2    1    2    0    0 -0.33961731265E+02 -0.46638772421E+02  0.59730444755E+03  0.60547131066E+03  0.80587410254E+02 0.  0.
        -13    1    3    3    0    0  0.15483958893E+01  0.31972397072E+02 -0.13965167976E+04  0.13968836020E+04  0.00000000000E+00 0.  1.
         14    1    3    3    0    0 -0.27191204185E+02 -0.18881898382E+02 -0.29634118690E+03  0.29818448438E+03  0.00000000000E+00 0. -1.
         13    1    5    5    0    0  0.65025117320E+01 -0.24794086097E+01  0.21117072135E+01  0.72725121681E+01  0.00000000000E+00 0. -1.
        -14    1    5    5    0    0 -0.40464242997E+02 -0.44159363812E+02  0.59519274033E+03  0.59819879849E+03  0.00000000000E+00 0.  1.
          5    1    4    4  501    0 -0.83694946650E+01  0.56697449145E+02 -0.37893562989E+02  0.68833448965E+02  0.41800000000E+01 0.  1.
         -5    1    4    4    0  501  0.67974034225E+02 -0.23149175414E+02  0.20520299047E+02  0.74799122483E+02  0.41800000000E+01 0.  1.
</event>
<event>
11    1  0.8039394E-009  0.2131818E+03  0.7561462E-02  0.1045575E+00
         22   -1    0    0    0    0  0.00000000000E+00  0.00000000000E+00  0.27923423584E+04  0.27923423584E+04  0.00000000000E+00 0. -1.
         22   -1    0    0    0    0 -0.00000000000E+00 -0.00000000000E+00 -0.92252213867E+02  0.92252213867E+02  0.00000000000E+00 0. -1.
        -24    2    1    2    0    0  0.17542538212E+03 -0.22779886604E+00  0.31704020381E+02  0.19616936662E+03  0.81872821549E+02 0.  0.
         25    2    1    2    0    0 -0.14654705849E+03 -0.15127875874E+02  0.10438870099E+04  0.10616295476E+04  0.12510920799E+03 0.  0.
         24    2    1    2    0    0 -0.28878323631E+02  0.15355674740E+02  0.16244991142E+04  0.16267956580E+04  0.79981163394E+02 0.  0.
        -11    1    5    5    0    0 -0.38391048531E+02 -0.17153742753E+02  0.49310352013E+03  0.49489312489E+03  0.00000000000E+00 0.  1.
         12    1    5    5    0    0  0.95127249007E+01  0.32509417493E+02  0.11313955941E+04  0.11319025331E+04  0.00000000000E+00 0. -1.
         11    1    3    3    0    0  0.17514026515E+03 -0.11842173862E+01  0.11051337065E+02  0.17549258360E+03  0.00000000000E+00 0. -1.
        -12    1    3    3    0    0  0.28511697163E+00  0.95641852016E+00  0.20652683316E+02  0.20676783024E+02  0.00000000000E+00 0.  1.
          5    1    4    4  501    0 -0.15086662149E+03 -0.43991994974E+01  0.10361654616E+04  0.10471086031E+04  0.41800000000E+01 0. -1.
         -5    1    4    4    0  501  0.43195629993E+01 -0.10728676376E+02  0.77215482775E+01  0.14520944497E+02  0.41800000000E+01 0. -1.
</event>
<event>
11    1  0.8039394E-009  0.1340504E+03  0.7561462E-02  0.1114390E+00
         22   -1    0    0    0    0  0.00000000000E+00  0.00000000000E+00  0.50900135201E+03  0.50900135201E+03  0.00000000000E+00 0.  1.
         22   -1    0    0    0    0 -0.00000000000E+00 -0.00000000000E+00 -0.54529950885E+03  0.54529950885E+03  0.00000000000E+00 0. -1.
         24    2    1    2    0    0 -0.28926822212E+02 -0.41738125158E+02 -0.46702969253E+03  0.47655731997E+03  0.80070677391E+02 0.  0.
         25    2    1    2    0    0  0.24413472138E+02  0.23066882471E+01 -0.10192943843E+02  0.12787947275E+03  0.12509166644E+03 0.  0.
        -24    2    1    2    0    0  0.45133500736E+01  0.39431436911E+02  0.44092447954E+03  0.44986406814E+03  0.79925431505E+02 0.  0.
        -11    1    3    3    0    0  0.13436637147E+02 -0.22503478460E+02 -0.45825550783E+02  0.52791390067E+02  0.00000000000E+00 0.  1.
         12    1    3    3    0    0 -0.42363459359E+02 -0.19234646698E+02 -0.42120414175E+03  0.42376592991E+03  0.00000000000E+00 0. -1.
         13    1    5    5    0    0  0.19322299088E+02  0.41058881502E+02  0.11543708554E+03  0.12403589686E+03  0.00000000000E+00 0. -1.
        -14    1    5    5    0    0 -0.14808949014E+02 -0.16274445906E+01  0.32548739400E+03  0.32582817128E+03  0.00000000000E+00 0.  1.
          5    1    4    4  501    0  0.45582727611E+02 -0.25985455438E+02 -0.51308380417E+02  0.73505450490E+02  0.41800000000E+01 0.  1.
         -5    1    4    4    0  501 -0.21169255473E+02  0.28292143685E+02  0.41115436574E+02  0.54374022256E+02  0.41800000000E+01 0.  1.
</event>
<event>
11    1  0.8039394E-009  0.1632424E+03  0.7561462E-02  0.1084067E+00
         22   -1    0    0    0    0  0.00000000000E+00  0.00000000000E+00  0.14307420189E+03  0.14307420189E+03  0.00000000000E+00 0.  1.
         22   -1    0    0    0    0 -0.00000000000E+00 -0.00000000000E+00 -0.28820743100E+04  0.28820743100E+04  0.00000000000E+00 0.  1.
         24    2    1    2    0    0 -0.51021120631E+01  0.26456576433E+01 -0.27017875914E+04  0.27029653288E+04  0.79576056953E+02 0.  0.
         25    2    1    2    0    0  0.30584168073E+02 -0.10339016143E+03 -0.84311070488E+02  0.18542562384E+03  0.12509751617E+03 0.  0.
        -24    2    1    2    0    0 -0.25482056010E+02  0.10074450379E+03  0.47098553715E+02  0.13675755926E+03  0.75402692472E+02 0.  0.
        -13    1    3    3    0    0 -0.34270588822E+02  0.25506434616E+02 -0.14586136550E+04  0.14592391326E+04  0.00000000000E+00 0.  1.
         14    1    3    3    0    0  0.29168476759E+02 -0.22860776972E+02 -0.12431739363E+04  0.12437261962E+04  0.00000000000E+00 0. -1.
         11    1    5    5    0    0  0.50758180161E+01  0.49548484000E+02 -0.13644328418E+02  0.51642849391E+02  0.00000000000E+00 0. -1.
        -12    1    5    5    0    0 -0.30557874026E+02  0.51196019786E+02  0.60742882133E+02  0.85114709873E+02  0.00000000000E+00 0.  1.
          5    1    4    4  501    0  0.11363117967E+02 -0.21635551458E+02 -0.97239005225E+02  0.10034995802E+03  0.41800000000E+01 0.  1.
         -5    1    4    4    0  501  0.19221050106E+02 -0.81754609972E+02  0.12927934737E+02  0.85075665824E+02  0.41800000000E+01 0.  1.
</event>
<event>
11    1  0.8039394E-009  0.1562800E+03  0.7561462E-02  0.1090629E+00
         22   -1    0    0    0    0  0.00000000000E+00  0.00000000000E+00  0.12931710938E+04  0.12931710938E+04  0.00000000000E+00 0. -1.
         22   -1    0    0    0    0 -0.00000000000E+00 -0.00000000000E+00 -0.20718998313E+04  0.20718998313E+04  0.00000000000E+00 0. -1.
         24    2    1    2    0    0 -0.87970217620E+02 -0.33187951483E+02 -0.20304232636E+04  0.20340965348E+04  0.78037711316E+02 0.  0.
         25    2    1    2    0    0  0.24377830624E+01  0.82598948878E+02  0.11966794097E+03  0.19183341729E+03  0.12510441540E+03 0.  0.
        -24    2    1    2    0    0  0.85532434558E+02 -0.49410997394E+02  0.11320265851E+04  0.11391409729E+04  0.80004516557E+02 0.  0.
        -11    1    3    3    0    0 -0.75356678525E+01  0.93861660074E+01 -0.44801663770E+02  0.46390467543E+02  0.00000000000E+00 0.  1.
         12    1    3    3    0    0 -0.80434549768E+02 -0.42574117491E+02 -0.19856215998E+04  0.19877060673E+04  0.00000000000E+00 0. -1.
         13    1    5    5    0    0  0.38358092577E+02 -0.11251860712E+02  0.83625670457E+03  0.83721157635E+03  0.00000000000E+00 0. -1.
        -14    1    5    5    0    0  0.47174341981E+02 -0.38159136682E+02  0.29576988055E+03  0.30192939654E+03  0.00000000000E+00 0.  1.
          5    1    4    4  501    0 -0.52894531374E+02  0.42869159001E+02  0.99559257133E+02  0.12068601544E+03  0.41800000000E+01 0. -1.
         -5    1    4    4    0  501  0.55332314437E+02  0.39729789877E+02  0.20108683836E+02  0.71147401851E+02  0.41800000000E+01 0. -1.
</event>
<event>
11    1  0.8039394E-009  0.1523209E+03  0.7561462E-02  0.1094531E+00
         22   -1    0    0    0    0  0.00000000000E+00  0.00000000000E+00  0.45510279702E+03  0.45510279702E+03  0.00000000000E+00 0. -1.
         22   -1    0    0    0    0 -0.00000000000E+00 -0.00000000000E+00 -0.45670795541E+03  0.45670795541E+03  0.00000000000E+00 0. -1.
         24    2    1    2    0    0 -0.42603629043E+02  0.79696882638E+02 -0.40061021436E+03  0.41850082513E+03  0.80546473971E+02 0.  0.
         25    2    1    2    0    0 -0.29371424405E+02 -0.55208375910E+02  0.95304680335E+02  0.16923698705E+03  0.12509008893E+03 0.  0.
        -24    2    1    2    0    0  0.71975053448E+02 -0.24488506728E+02  0.30370037564E+03  0.32407294025E+03  0.83721306494E+02 0.  0.
        -11    1    3    3    0    0 -0.85110432348E+01 -0.59534778993E+01 -0.37004609062E+01  0.11026112958E+02  0.00000000000E+00 0.  1.
         12    1    3    3    0    0 -0.34092585808E+02  0.85650360538E+02 -0.39690975346E+03  0.40747471217E+03  0.00000000000E+00 0. -1.
         13    1    5    5    0    0  0.57871146662E+02 -0.10912570511E+02  0.29788609646E+03  0.30365157710E+03  0.00000000000E+00 0. -1.
        -14    1    5    5    0    0  0.14103906786E+02 -0.13575936217E+02  0.58142791823E+01  0.20421363158E+02  0.00000000000E+00 0.  1.
          5    1    4    4  501    0 -0.31543265895E+02 -0.94324878605E+02  0.76687840581E+02  0.12566088349E+03  0.41800000000E+01 0.  1.
         -5    1    4    4    0  501  0.21718414900E+01  0.39116502695E+02  0.18616839754E+02  0.43576103554E+02  0.41800000000E+01 0.  1.
</event>
<event>
11    1  0.8039394E-009  0.2002393E+03  0.7561462E-02  0.1054355E+00
         22   -1    0    0    0    0  0.00000000000E+00  0.00000000000E+00  0.67472666641E+03  0.67472666641E+03  0.00000000000E+00 0. -1.
         22   -1    0    0    0    0 -0.00000000000E+00 -0.00000000000E+00 -0.55156864082E+03  0.55156864082E+03  0.00000000000E+00 0.  1.
        -24    2    1    2    0    0  0.51705295777E+02 -0.15454293251E+02 -0.47453230823E+03  0.48425145826E+03  0.80039305825E+02 0.  0.
         25    2    1    2    0    0 -0.15934588234E+03  0.11282975962E+03  0.18561720462E+03  0.29702459476E+03  0.12509275906E+03 0.  0.
         24    2    1    2    0    0  0.10764058656E+03 -0.97375466364E+02  0.41207312920E+03  0.44501925421E+03  0.84672282834E+02 0.  0.
        -11    1    5    5    0    0  0.42749882296E+02 -0.86629647479E+02  0.18625508765E+03  0.20981707732E+03  0.00000000000E+00 0.  1.
         12    1    5    5    0    0  0.64890704266E+02 -0.10745818886E+02  0.22581804155E+03  0.23520217689E+03  0.00000000000E+00 0. -1.
         13    1    3    3    0    0  0.13035447016E+02 -0.75062311958E+01 -0.10041181661E+02  0.18085677063E+02  0.00000000000E+00 0. -1.
        -14    1    3    3    0    0  0.38669848761E+02 -0.79480620551E+01 -0.46449112657E+03  0.46616578120E+03  0.00000000000E+00 0.  1.
          5    1    4    4  501    0 -0.77137691486E+02 -0.16105572022E+02  0.62776069208E+02  0.10083610545E+03  0.41800000000E+01 0.  1.
         -5    1    4    4    0  501 -0.82208190853E+02  0.12893533164E+03  0.12284113542E+03  0.19618848931E+03  0.41800000000E+01 0.  1.
</event>
<event>
11    1  0.8039394E-009  0.1478479E+03  0.7561462E-02  0.1099098E+00
         22   -1    0    0    0    0  0.00000000000E+00  0.00000000000E+00  0.62138933456E+03  0.62138933456E+03  0.00000000000E+00 0.  1.
         22   -1    0    0    0    0 -0.00000000000E+00 -0.00000000000E+00 -0.28098270017E+03  0.28098270017E+03  0.00000000000E+00 0. -1.
        -24    2    1    2    0    0  0.41192894711E+02  0.18673787354E+00 -0.23682004964E+03  0.25336598559E+03  0.80085562376E+02 0.  0.
         25    2    1    2    0    0  0.25119716866E+02  0.54181967468E+02  0.14458242064E+03  0.20029658281E+03  0.12509180209E+03 0.  0.
         24    2    1    2    0    0 -0.66312611577E+02 -0.54368705341E+02  0.43264426338E+03  0.44870946633E+03  0.82497320966E+02 0.  0.
        -11    1    5    5    0    0 -0.76135230254E+02 -0.64221207041E+02  0.41161412210E+03  0.42349394592E+03  0.00000000000E+00 0.  1.
         12    1    5    5    0    0  0.98226186769E+01  0.98525016994E+01  0.21030141283E+02  0.25215520415E+02  0.00000000000E+00 0. -1.
         11    1    3    3    0    0  0.11507520849E+02 -0.68339432072E+00 -0.21778783707E+03  0.21809271432E+03  0.00000000000E+00 0. -1.
        -12    1    3    3    0    0  0.29685373861E+02  0.87013219426E+00 -0.19032212568E+02  0.35273271277E+02  0.00000000000E+00 0.  1.
          5    1    4    4  501    0  0.37007708476E+02 -0.17355804457E+02  0.11454569521E+03  0.12169216543E+03  0.41800000000E+01 0.  1.
         -5    1    4    4    0  501 -0.11887991609E+02  0.71537771924E+02  0.30036725427E+02  0.78604417375E+02  0.41800000000E+01 0.  1.
</event>
<event>
11    1  0.8039394E-009  0.1423208E+03  0.7561462E-02  0.1104994E+00
         22   -1    0    0    0    0  0.00000000000E+00  0.00000000000E+00  0.23755787501E+03  0.23755787501E+03  0.00000000000E+00 0.  1.
         22   -1    0    0    0    0 -0.00000000000E+00 -0.00000000000E+00 -0.55020509264E+03  0.55020509264E+03  0.00000000000E+00 0.  1.
         24    2    1    2    0    0  0.39124121095E+02  0.47379995652E+02 -0.29690301106E+03  0.31354427672E+03  0.79894021324E+02 0.  0.
         25    2    1    2    0    0  0.27842532870E+01 -0.99703765664E+02 -0.20374877623E+03  0.25907275743E+03  0.12512608391E+03 0.  0.
        -24    2    1    2    0    0 -0.41908374382E+02  0.52323770012E+02  0.18800456967E+03  0.21514593350E+03  0.80299226223E+02 0.  0.
        -13    1    3    3    0    0  0.38141564389E+02  0.69163693845E+02 -0.23222242791E+03  0.24528687593E+03  0.00000000000E+00 0.  1.
         14    1    3    3    0    0  0.98255670677E+00 -0.21783698193E+02 -0.64680583158E+02  0.68257400788E+02  0.00000000000E+00 0. -1.
         13    1    5    5    0    0 -0.25736111778E+02  0.35481272115E+02  0.24965810802E+02  0.50443630216E+02  0.00000000000E+00 0. -1.
        -14    1    5    5    0    0 -0.16172262605E+02  0.16842497897E+02  0.16303875887E+03  0.16470230328E+03  0.00000000000E+00 0.  1.
          5    1    4    4  501    0 -0.22336507539E+02 -0.92721687667E+01  0.92866263316E+01  0.26241313063E+02  0.41800000000E+01 0. -1.
         -5    1    4    4    0  501  0.25120760826E+02 -0.90431596897E+02 -0.21303540256E+03  0.23283144437E+03  0.41800000000E+01 0. -1.
</event>
<event>
11    1  0.8039394E-009  0.2029763E+03  0.7561462E-02  0.1052439E+00
         22   -1    0    0    0    0  0.00000000000E+00  0.00000000000E+00  0.13217944754E+04  0.13217944754E+04  0.00000000000E+00 0.  1.
         22   -1    0    0    0    0 -0.00000000000E+00 -0.00000000000E+00 -0.19028249025E+03  0.19028249025E+03  0.00000000000E+00 0.  1.
         24    2    1    2    0    0 -0.15382920475E+02  0.23112435328E+02 -0.11027091626E+03  0.14162568847E+03  0.84423585276E+02 0.  0.
         25    2    1    2    0    0  0.15908691578E+03  0.45738014601E+02  0.13347530472E+03  0.24670784993E+03  0.12509393869E+03 0.  0.
        -24    2    1    2    0    0 -0.14370399531E+03 -0.68850449929E+02  0.11083075967E+04  0.11237434272E+04  0.95196316516E+02 0.  0.
        -13    1    3    3    0    0 -0.30077347662E+02 -0.14335409797E+02 -0.91220773034E+02  0.97115293591E+02  0.00000000000E+00 0.  1.
         14    1    3    3    0    0  0.14694427187E+02  0.37447845126E+02 -0.19050143231E+02  0.44510394876E+02  0.00000000000E+00 0. -1.
         11    1    5    5    0    0  0.15551599059E+01  0.72288867899E-01  0.27843130617E+03  0.27843565865E+03  0.00000000000E+00 0. -1.
        -12    1    5    5    0    0 -0.14525915521E+03 -0.68922738797E+02  0.82987629049E+03  0.84530776857E+03  0.00000000000E+00 0.  1.
          5    1    4    4  501    0  0.16038614719E+03  0.20980786346E+02  0.66086855061E+02  0.17478230579E+03  0.41800000000E+01 0.  1.
         -5    1    4    4    0  501 -0.12992314056E+01  0.24757228255E+02  0.67388449656E+02  0.71925544142E+02  0.41800000000E+01 0.  1.
</event>
<event>
11    1  0.8039394E-009  0.1860461E+03  0.7561462E-02  0.1064855E+00
         22   -1    0    0    0    0  0.00000000000E+00  0.00000000000E+00  0.37514816897E+03  0.37514816897E+03  0.00000000000E+00 0.  1.
         22   -1    0    0    0    0 -0.00000000000E+00 -0.00000000000E+00 -0.12331824676E+04  0.12331824676E+04  0.00000000000E+00 0.  1.
         24    2    1    2    0    0  0.10511841852E+02 -0.14153368946E+03 -0.10818208879E+04  0.10939463979E+04  0.78993696563E+02 0.  0.
         25    2    1    2    0    0  0.15562817659E+02  0.10536253663E+03 -0.90795059684E+02  0.18770473976E+03  0.12508341636E+03 0.  0.
        -24    2    1    2    0    0 -0.26074659511E+02  0.36171152833E+02  0.31458164896E+03  0.32667949883E+03  0.75958152473E+02 0.  0.
        -13    1    3    3    0    0  0.37286406950E+00 -0.14951777595E+03 -0.99758770107E+03  0.10087303533E+04  0.00000000000E+00 0.  1.
         14    1    3    3    0    0  0.10138977782E+02  0.79840864863E+01 -0.84233186782E+02  0.85216044633E+02  0.00000000000E+00 0. -1.
         11    1    5    5    0    0  0.97702004835E+01  0.28854598254E+02  0.43303277968E+02  0.52945429838E+02  0.00000000000E+00 0. -1.
        -12    1    5    5    0    0 -0.35844859995E+02  0.73165545794E+01  0.27127837099E+03  0.27373406899E+03  0.00000000000E+00 0.  1.
          5    1    4    4  501    0  0.25325561548E+02  0.47694443934E+02 -0.11275547894E+03  0.12508962579E+03  0.41800000000E+01 0.  1.
         -5    1    4    4    0  501 -0.97627438888E+01  0.57668092692E+02  0.21960419258E+02  0.62615113966E+02  0.41800000000E+01 0.  1.
</event>
<event>
11    1  0.8039394E-009  0.2221344E+03  0.7561462E-02  0.1039889E+00
         22   -1    0    0    0    0  0.00000000000E+00  0.00000000000E+00  0.16318450241E+04  0.16318450241E+04  0.00000000000E+00 0. -1.
         22   -1    0    0    0    0 -0.00000000000E+00 -0.00000000000E+00 -0.14152784934E+04  0.14152784934E+04  0.00000000000E+00 0.  1.
         24    2    1    2    0    0 -0.14297783263E+03 -0.11222967649E+03 -0.13367249881E+04  0.13514408407E+04  0.80749558432E+02 0.  0.
         25    2    1    2    0    0  0.22593999848E+03  0.13065168811E+03  0.23690382864E+03  0.37401660485E+03  0.12508497175E+03 0.  0.
        -24    2    1    2    0    0 -0.82962165854E+02 -0.18422011619E+02  0.13163876902E+04  0.13216660719E+04  0.81869184119E+02 0.  0.
        -13    1    3    3    0    0 -0.10268423402E+03 -0.10097681989E+03 -0.78272931704E+03  0.79586779921E+03  0.00000000000E+00 0.  1.
         14    1    3    3    0    0 -0.40293598609E+02 -0.11252856600E+02 -0.55399567108E+03  0.55557304150E+03  0.00000000000E+00 0. -1.
         11    1    5    5    0    0 -0.84521405148E+02 -0.25829308506E+02  0.13050166530E+04  0.13080059196E+04  0.00000000000E+00 0. -1.
        -12    1    5    5    0    0  0.15592392941E+01  0.74072968875E+01  0.11371037134E+02  0.13660152263E+02  0.00000000000E+00 0.  1.
          5    1    4    4  501    0  0.60299277811E+02  0.67398310636E+02  0.18037040028E+02  0.92311117392E+02  0.41800000000E+01 0.  1.
         -5    1    4    4    0  501  0.16564072067E+03  0.63253377477E+02  0.21886678862E+03  0.28170548746E+03  0.41800000000E+01 0.  1.
</event>
<event>
11    1  0.8039394E-009  0.1297391E+03  0.7561462E-02  0.1119590E+00
         22   -1    0    0    0    0  0.00000000000E+00  0.00000000000E+00  0.12590625608E+04  0.12590625608E+04  0.00000000000E+00 0.  1.
         22   -1    0    0    0    0 -0.00000000000E+00 -0.00000000000E+00 -0.28228198312E+03  0.28228198312E+03  0.00000000000E+00 0. -1.
         24    2    1    2    0    0  0.33588006860E+01  0.11269068703E+02 -0.20265634825E+03  0.21775826974E+03  0.78808597901E+02 0.  0.
         25    2    1    2    0    0 -0.17271317508E+02  0.20433431036E+02 -0.12554783094E+02  0.12853098012E+03  0.12508703674E+03 0.  0.
        -24    2    1    2    0    0  0.13912516822E+02 -0.31702499738E+02  0.11919917090E+04  0.11950552941E+04  0.78194084508E+02 0.  0.
        -13    1    3    3    0    0  0.31592726777E+02 -0.11508795447E+02 -0.46132101024E+02  0.57085230163E+02  0.00000000000E+00 0.  1.
         14    1    3    3    0    0 -0.28233926091E+02  0.22777864150E+02 -0.15652424722E+03  0.16067303958E+03  0.00000000000E+00 0. -1.
         11    1    5    5    0    0 -0.15936163039E+02  0.19925506647E+02  0.40982163808E+03  0.41061510219E+03  0.00000000000E+00 0. -1.
        -12    1    5    5    0    0  0.29848679861E+02 -0.51628006385E+02  0.78217007096E+03  0.78444019188E+03  0.00000000000E+00 0.  1.
          5    1    4    4  501    0 -0.33896146532E+02 -0.46603120275E+02  0.20446107812E+01  0.57813946434E+02  0.41800000000E+01 0.  1.
         -5    1    4    4    0  501  0.16624829023E+02  0.67036551311E+02 -0.14599393876E+02  0.70717033685E+02  0.41800000000E+01 0.  1.
</event>
<event>
11    1  0.8039394E-009  0.1588575E+03  0.7561462E-02  0.1088157E+00
         22   -1    0    0    0    0  0.00000000000E+00  0.00000000000E+00  0.13951715792E+04  0.13951715792E+04  0.00000000000E+00 0.  1.
         22   -1    0    0    0    0 -0.00000000000E+00 -0.00000000000E+00 -0.33366836216E+03  0.33366836216E+03  0.00000000000E+00 0. -1.
        -24    2    1    2    0    0  0.20585097115E+02  0.51032921326E+00 -0.31304768457E+03  0.32355964489E+03  0.79170602664E+02 0.  0.
         25    2    1    2    0    0  0.21011545792E+02  0.91323578194E+02  0.59870708464E+03  0.61877247622E+03  0.12509085954E+03 0.  0.
         24    2    1    2    0    0 -0.41596642907E+02 -0.91833907407E+02  0.77584381695E+03  0.78650782023E+03  0.80605060200E+02 0.  0.
        -13    1    5    5    0    0 -0.44602300369E+02 -0.66448555069E+02  0.72688397014E+03  0.73127633745E+03  0.00000000000E+00 0.  1.
         14    1    5    5    0    0  0.30056574622E+01 -0.25385352338E+02  0.48959846808E+02  0.55231482775E+02  0.00000000000E+00 0. -1.
         11    1    3    3    0    0  0.44823926567E+02  0.40053996910E+01 -0.27249481695E+03  0.27618590276E+03  0.00000000000E+00 0. -1.
        -12    1    3    3    0    0 -0.24238829452E+02 -0.34950704777E+01 -0.40552867620E+02  0.47373742127E+02  0.00000000000E+00 0.  1.
          5    1    4    4  501    0  0.59149751523E+02  0.35026413231E+01  0.26505677067E+03  0.27163123104E+03  0.41800000000E+01 0. -1.
         -5    1    4    4    0  501 -0.38138205732E+02  0.87820936870E+02  0.33365031397E+03  0.34714124518E+03  0.41800000000E+01 0. -1.
</event>
<event>
11    1  0.8039394E-009  0.1356153E+03  0.7561462E-02  0.1112556E+00
         22   -1    0    0    0    0  0.00000000000E+00  0.00000000000E+00  0.54857691633E+03  0.54857691633E+03  0.00000000000E+00 0. -1.
         22   -1    0    0    0    0 -0.00000000000E+00 -0.00000000000E+00 -0.10043570631E+03  0.10043570631E+03  0.00000000000E+00 0. -1.
        -24    2    1    2    0    0  0.38093607957E+02  0.14359488919E+02 -0.30484088246E+01  0.92892668898E+02  0.83441220326E+02 0.  0.
         25    2    1    2    0    0 -0.83234390793E+02  0.49181573463E+01  0.74142857284E+02  0.16762112546E+03  0.12509007287E+03 0.  0.
         24    2    1    2    0    0  0.45140782835E+02 -0.19277646266E+02  0.37704676156E+03  0.38849882828E+03  0.79735570779E+02 0.  0.
        -11    1    5    5    0    0 -0.17641134730E+02  0.97748204796E+01  0.44857119259E+02  0.49182495851E+02  0.00000000000E+00 0.  1.
         12    1    5    5    0    0  0.62781917565E+02 -0.29052466745E+02  0.33218964231E+03  0.33931633243E+03  0.00000000000E+00 0. -1.
         13    1    3    3    0    0 -0.10082306407E+02  0.90541673028E+01 -0.33167758047E+02  0.35829192314E+02  0.00000000000E+00 0. -1.
        -14    1    3    3    0    0  0.48175914364E+02  0.53053216164E+01  0.30119349222E+02  0.57063476584E+02  0.00000000000E+00 0.  1.
          5    1    4    4  501    0 -0.59847340407E+02  0.19340326503E+02  0.10724579951E+03  0.12439809603E+03  0.41800000000E+01 0. -1.
         -5    1    4    4    0  501 -0.23387050386E+02 -0.14422169157E+02 -0.33102942228E+02  0.43223029429E+02  0.41800000000E+01 0. -1.
</event>
<event>
11    1  0.8039394E-009  0.2281399E+03  0.7561462E-02  0.1036235E+00
         22   -1    0    0    0    0  0.00000000000E+00  0.00000000000E+00  0.59005847393E+03  0.59005847393E+03  0.00000000000E+00 0.  1.
         22   -1    0    0    0    0 -0.00000000000E+00 -0.00000000000E+00 -0.39321801461E+03  0.39321801461E+03  0.00000000000E+00 0. -1.
         24    2    1    2    0    0  0.55954860512E+01  0.48703271239E+02 -0.28076382966E+03  0.29579931050E+03  0.79155454363E+02 0.  0.
         25    2    1    2    0    0  0.16340387021E+03 -0.12791485510E+03  0.10570743942E+03  0.26435759210E+03  0.12509132183E+03 0.  0.
        -24    2    1    2    0    0 -0.16899935627E+03  0.79211583861E+02  0.37189684955E+03  0.42311958593E+03  0.76731087958E+02 0.  0.
        -13    1    3    3    0    0 -0.44577872291E+01 -0.21170871143E+02 -0.50023259732E+02  0.54501414351E+02  0.00000000000E+00 0.  1.
         14    1    3    3    0    0  0.10053273280E+02  0.69874142383E+02 -0.23074056992E+03  0.24129789615E+03  0.00000000000E+00 0. -1.
         11    1    5    5    0    0 -0.16128633480E+02 -0.15119580476E+02  0.37631521823E+02  0.43644770207E+02  0.00000000000E+00 0. -1.
        -12    1    5    5    0    0 -0.15287072279E+03  0.94331164337E+02  0.33426532773E+03  0.37947481573E+03  0.00000000000E+00 0.  1.
          5    1    4    4  501    0  0.13234637223E+03 -0.86007713205E+02  0.13669738396E+02  0.15848414155E+03  0.41800000000E+01 0. -1.
         -5    1    4    4    0  501  0.31057497983E+02 -0.41907141895E+02  0.92037701025E+02  0.10587345056E+03  0.41800000000E+01 0. -1.
</event>
<event>
11    1  0.8039394E-009  0.1577931E+03  0.7561462E-02  0.1089171E+00
         22   -1    0    0    0    0  0.00000000000E+00  0.00000000000E+00  0.24676878619E+04  0.24676878619E+04  0.00000000000E+00 0. -1.
         22   -1    0    0    0    0 -0.00000000000E+00 -0.00000000000E+00 -0.17937487653E+03  0.17937487653E+03  0.00000000000E+00 0. -1.
        -24    2    1    2    0    0  0.69276941680E+02 -0.65609822711E+02 -0.14337295862E+03  0.18947684970E+03  0.79004606354E+02 0.  0.
         25    2    1    2    0    0 -0.54351142907E+02  0.11520572215E+03  0.67310556313E+03  0.69637977473E+03  0.12508911375E+03 0.  0.
         24    2    1    2    0    0 -0.14925798773E+02 -0.49595899439E+02  0.17585803809E+04  0.17612061140E+04  0.80990662230E+02 0.  0.
        -11    1    5    5    0    0 -0.39741889654E+02 -0.27566094490E+02  0.53662290616E+03  0.53879815402E+03  0.00000000000E+00 0.  1.
         12    1    5    5    0    0  0.24816090882E+02 -0.22029804949E+02  0.12219574747E+04  0.12224079600E+04  0.00000000000E+00 0. -1.
         13    1    3    3    0    0  0.75526380591E+02 -0.78878297944E+02 -0.12585614874E+03  0.16663070014E+03  0.00000000000E+00 0. -1.
        -14    1    3    3    0    0 -0.62494389111E+01  0.13268475233E+02 -0.17516809879E+02  0.22846149567E+02  0.00000000000E+00 0.  1.
          5    1    4    4  501    0 -0.37762907517E+02  0.60957290674E+02  0.11641636706E+03  0.13679207356E+03  0.41800000000E+01 0. -1.
         -5    1    4    4    0  501 -0.16588235390E+02  0.54248431476E+02  0.55668919607E+03  0.55958770116E+03  0.41800000000E+01 0. -1.
</event>
<event>
11    1  0.8039394E-009  0.1365310E+03  0.7561462E-02  0.1111495E+00
         22   -1    0    0    0    0  0.00000000000E+00  0.00000000000E+00  0.25940324624E+03  0.25940324624E+03  0.00000000000E+00 0. -1.
         22   -1    0    0    0    0 -0.00000000000E+00 -0.00000000000E+00 -0.12602610708E+04  0.12602610708E+04  0.00000000000E+00 0. -1.
        -24    2    1    2    0    0 -0.41395550502E+02 -0.36585492761E+02 -0.11244161719E+04  0.11285440983E+04  0.79044066006E+02 0.  0.
         25    2    1    2    0    0  0.13632028470E+02  0.51701783435E+02 -0.87358364622E+02  0.16167556583E+03  0.12509435681E+03 0.  0.
         24    2    1    2    0    0  0.27763522033E+02 -0.15116290673E+02  0.21091671201E+03  0.22944465283E+03  0.84614856310E+02 0.  0.
        -11    1    5    5    0    0  0.55498375895E+02  0.35071038092E+01  0.11212806042E+03  0.12516018312E+03  0.00000000000E+00 0.  1.
         12    1    5    5    0    0 -0.27734853862E+02 -0.18623394482E+02  0.98788651590E+02  0.10428446972E+03  0.00000000000E+00 0. -1.
         13    1    3    3    0    0 -0.50589625777E+02 -0.10438309913E+02 -0.98753267968E+03  0.98888273420E+03  0.00000000000E+00 0. -1.
        -14    1    3    3    0    0  0.91940752743E+01 -0.26147182848E+02 -0.13688349222E+03  0.13966136414E+03  0.00000000000E+00 0.  1.
          5    1    4    4  501    0 -0.12470606937E+02 -0.27580120061E+02 -0.69916638663E+02  0.76301951626E+02  0.41800000000E+01 0. -1.
         -5    1    4    4    0  501  0.26102635407E+02  0.79281903496E+02 -0.17441725958E+02  0.85373614199E+02  0.41800000000E+01 0. -1.
</event>
<event>
11    1  0.8039394E-009  0.1448783E+03  0.7561462E-02  0.1102230E+00
         22   -1    0    0    0    0  0.00000000000E+00  0.00000000000E+00  0.93060462447E+03  0.93060462447E+03  0.00000000000E+00 0. -1.
         22   -1    0    0    0    0 -0.00000000000E+00 -0.00000000000E+00 -0.12946817494E+03  0.12946817494E+03  0.00000000000E+00 0.  1.
         24    2    1    2    0    0  0.68301007774E+02  0.78953497211E+01 -0.73009346949E+02  0.12885660961E+03  0.80909189144E+02 0.  0.
         25    2    1    2    0    0 -0.12798897360E+03  0.16579665911E+02  0.31554009623E+03  0.36313822903E+03  0.12509100036E+03 0.  0.
        -24    2    1    2    0    0  0.59687965827E+02 -0.24475015633E+02  0.55860570025E+03  0.56807796076E+03  0.80688050542E+02 0.  0.
        -13    1    3    3    0    0  0.77930962154E+02  0.19096066605E+02 -0.79291126723E+02  0.11280504155E+03  0.00000000000E+00 0.  1.
         14    1    3    3    0    0 -0.96299543794E+01 -0.11200716883E+02  0.62817797740E+01  0.16051568060E+02  0.00000000000E+00 0. -1.
         13    1    5    5    0    0  0.60786766174E+02 -0.44431712132E+02  0.50992574853E+03  0.51545463137E+03  0.00000000000E+00 0. -1.
        -14    1    5    5    0    0 -0.10988003478E+01  0.19956696499E+02  0.48679951721E+02  0.52623329398E+02  0.00000000000E+00 0.  1.
          5    1    4    4  501    0 -0.15041883930E+03  0.29737360543E+02  0.27045495395E+03  0.31092361175E+03  0.41800000000E+01 0.  1.
         -5    1    4    4    0  501  0.22429865701E+02 -0.13157694632E+02  0.45085142282E+02  0.52214617282E+02  0.41800000000E+01 0.  1.
</event>
<event>
11    1  0.8039394E-009  0.3010705E+03  0.7561462E-02  0.9997392E-01
         22   -1    0    0    0    0  0.00000000000E+00  0.00000000000E+00  0.38661279919E+03  0.38661279919E+03  0.00000000000E+00 0.  1.
         22   -1    0    0    0    0 -0.00000000000E+00 -0.00000000000E+00 -0.71715334764E+03  0.71715334764E+03  0.00000000000E+00 0. -1.
         24    2    1    2    0    0  0.22136104769E+03 -0.15583632901E+03 -0.53494996390E+03  0.60488586603E+03  0.80185860149E+02 0.  0.
         25    2    1    2    0    0 -0.23054000763E+03  0.17631305936E+03  0.41563985737E+02  0.31876186855E+03  0.12508626590E+03 0.  0.
        -24    2    1    2    0    0  0.91789599330E+01 -0.20476730348E+02  0.16284542971E+03  0.18011841225E+03  0.73623764249E+02 0.  0.
        -11    1    3    3    0    0  0.51083406509E+02 -0.45521195982E+02 -0.71465289893E+02  0.98939281196E+02  0.00000000000E+00 0.  1.
         12    1    3    3    0    0  0.17027764119E+03 -0.11031513302E+03 -0.46348467401E+03  0.50594658483E+03  0.00000000000E+00 0. -1.
         13    1    5    5    0    0 -0.25536601792E+02  0.81566318583E+01  0.94966685427E+02  0.98677859803E+02  0.00000000000E+00 0. -1.
        -14    1    5    5    0    0  0.34715561725E+02 -0.28633362207E+02  0.67878744285E+02  0.81440552447E+02  0.00000000000E+00 0.  1.
          5    1    4    4  501    0 -0.63447878491E+02  0.13078291469E+02  0.54519296148E+02  0.84773233070E+02  0.41800000000E+01 0.  1.
         -5    1    4    4    0  501 -0.16709212914E+03  0.16323476789E+03 -0.12955310411E+02  0.23398863548E+03  0.41800000000E+01 0.  1.
</event>
<event>
11    1  0.8039394E-009  0.1427866E+03  0.7561462E-02  0.1104486E+00
         22   -1    0    0    0    0  0.00000000000E+00  0.00000000000E+00  0.41097962122E+03  0.41097962122E+03  0.00000000000E+00 0.  1.
         22   -1    0    0    0    0 -0.00000000000E+00 -0.00000000000E+00 -0.23487455875E+03  0.23487455875E+03  0.00000000000E+00 0. -1.
        -24    2    1    2    0    0 -0.34753476414E+02 -0.54435005486E+02 -0.16481473820E+03  0.19538544813E+03  0.82707928694E+02 0.  0.
         25    2    1    2    0    0  0.99204275995E+02  0.82802796082E+02  0.15663455114E+03  0.23849558220E+03  0.12509184107E+03 0.  0.
         24    2    1    2    0    0 -0.64450799580E+02 -0.28367790596E+02  0.18428524953E+03  0.21197314963E+03  0.77543058102E+02 0.  0.
        -13    1    5    5    0    0 -0.32478448935E+02  0.14327407092E+02  0.13416092615E+03  0.13877780206E+03  0.00000000000E+00 0.  1.
         14    1    5    5    0    0 -0.31972350645E+02 -0.42695197688E+02  0.50124323377E+02  0.73195347567E+02  0.00000000000E+00 0. -1.
         13    1    3    3    0    0 -0.57435150145E+01 -0.51725073476E+02 -0.15673532854E+03  0.16514973329E+03  0.00000000000E+00 0. -1.
        -14    1    3    3    0    0 -0.29009961400E+02 -0.27099320098E+01 -0.80794096574E+01  0.30235714847E+02  0.00000000000E+00 0.  1.
          5    1    4    4  501    0  0.61889739048E+02  0.43042241889E+02  0.16659766211E+03  0.18290770297E+03  0.41800000000E+01 0. -1.
         -5    1    4    4    0  501  0.37314536946E+02  0.39760554194E+02 -0.99631109649E+01  0.55587879231E+02  0.41800000000E+01 0. -1.
</event>
<event>
11    1  0.8039394E-009  0.1373511E+03  0.7561462E-02  0.1110553E+00
         22   -1    0    0    0    0  0.00000000000E+00  0.00000000000E+00  0.30319496290E+03  0.30319496290E+03  0.00000000000E+00 0.  1.
         22   -1    0    0    0    0 -0.00000000000E+00 -0.00000000000E+00 -0.89022541678E+03  0.89022541678E+03  0.00000000000E+00 0.  1.
         24    2    1    2    0    0  0.37381422190E+02  0.37952651692E+02 -0.69248375420E+03  0.70072065636E+03  0.92940378318E+02 0.  0.
         25    2    1    2    0    0 -0.63918783552E+02 -0.52295197955E+02 -0.15629473321E+03  0.21654860713E+03  0.12507940279E+03 0.  0.
        -24    2    1    2    0    0  0.26537361362E+02  0.14342546263E+02  0.26174803353E+03  0.27615111618E+03  0.82688969814E+02 0.  0.
        -13    1    3    3    0    0  0.26824803482E+02  0.93464597290E+01 -0.63513246433E+03  0.63576738957E+03  0.00000000000E+00 0.  1.
         14    1    3    3    0    0  0.10556618707E+02  0.28606191963E+02 -0.57351289868E+02  0.64953266790E+02  0.00000000000E+00 0. -1.
         11    1    5    5    0    0  0.73314644202E+01 -0.18801073462E+02  0.11991279906E+02  0.23473847738E+02  0.00000000000E+00 0. -1.
        -12    1    5    5    0    0  0.19205896942E+02  0.33143619725E+02  0.24975675363E+03  0.25267726844E+03  0.00000000000E+00 0.  1.
          5    1    4    4  501    0 -0.32590138183E+02  0.11583523090E+02  0.94773057492E+01  0.36105218989E+02  0.41800000000E+01 0.  1.
         -5    1    4    4    0  501 -0.31328645369E+02 -0.63878721045E+02 -0.16577203896E+03  0.18044338814E+03  0.41800000000E+01 0.  1.
</event>
<event>
11    1  0.8039394E-009  0.1276458E+03  0.7561462E-02  0.1122196E+00
         22   -1    0    0    0    0  0.00000000000E+00  0.00000000000E+00  0.69881769585E+03  0.69881769585E+03  0.00000000000E+00 0. -1.
         22   -1    0    0    0    0 -0.00000000000E+00 -0.00000000000E+00 -0.52170754277E+03  0.52170754277E+03  0.00000000000E+00 0.  1.
        -24    2    1    2    0    0  0.22024569518E+02  0.12783735638E+02 -0.48409762840E+03  0.49133304985E+03  0.80057145223E+02 0.  0.
         25    2    1    2    0    0 -0.26728724732E+02 -0.36036059081E+02  0.11307783441E+03  0.17448984056E+03  0.12508831098E+03 0.  0.
         24    2    1    2    0    0  0.47041552140E+01  0.23252323443E+02  0.54812994706E+03  0.55470234820E+03  0.81764641556E+02 0.  0.
        -13    1    5    5    0    0  0.38177606238E+02 -0.81516984140E+01  0.27096419593E+03  0.27376189523E+03  0.00000000000E+00 0.  1.
         14    1    5    5    0    0 -0.33473451024E+02  0.31404021857E+02  0.27716575113E+03  0.28094045297E+03  0.00000000000E+00 0. -1.
         11    1    3    3    0    0  0.50450296129E+02  0.81846889314E+01 -0.23007419151E+03  0.23568274249E+03  0.00000000000E+00 0. -1.
        -12    1    3    3    0    0 -0.28425726611E+02  0.45990467062E+01 -0.25402343689E+03  0.25565030736E+03  0.00000000000E+00 0.  1.
          5    1    4    4  501    0 -0.63566318941E+02  0.18396049098E+02  0.47619590353E+02  0.81634486043E+02  0.41800000000E+01 0. -1.
         -5    1    4    4    0  501  0.36837594209E+02 -0.54432108179E+02  0.65458244058E+02  0.92855354520E+02  0.41800000000E+01 0. -1.
</event>
<event>
11    1  0.8039394E-009  0.1728773E+03  0.7561462E-02  0.1075554E+00
         22   -1    0    0    0    0  0.00000000000E+00  0.00000000000E+00  0.59828917074E+03  0.59828917074E+03  0.00000000000E+00 0.  1.
         22   -1    0    0    0    0 -0.00000000000E+00 -0.00000000000E+00 -0.46164256804E+03  0.46164256804E+03  0.00000000000E+00 0. -1.
        -24    2    1    2    0    0 -0.83802392210E+02 -0.78453859290E+02 -0.36947499582E+03  0.39516467524E+03  0.80408326978E+02 0.  0.
         25    2    1    2    0    0  0.14172528420E+03  0.11008525866E+03  0.97426390968E+02  0.23946625986E+03  0.12508943841E+03 0.  0.
         24    2    1    2    0    0 -0.57922891986E+02 -0.31631399365E+02  0.40869520755E+03  0.42530080368E+03  0.97434049964E+02 0.  0.
        -11    1    5    5    0    0 -0.83381162301E+02 -0.36879374773E+02  0.33358283202E+03  0.34581788896E+03  0.00000000000E+00 0.  1.
         12    1    5    5    0    0  0.25458270314E+02  0.52479754082E+01  0.75112375530E+02  0.79482914711E+02  0.00000000000E+00 0. -1.
         13    1    3    3    0    0 -0.21573201381E+02 -0.72211937924E+02 -0.16627393701E+03  0.18255681068E+03  0.00000000000E+00 0. -1.
        -14    1    3    3    0    0 -0.62229190829E+02 -0.62419213662E+01 -0.20320105881E+03  0.21260786457E+03  0.00000000000E+00 0.  1.
          5    1    4    4  501    0  0.16130024241E+03  0.88817285087E+02  0.63785064400E+02  0.19491609777E+03  0.41800000000E+01 0.  1.
         -5    1    4    4    0  501 -0.19574958212E+02  0.21267973568E+02  0.33641326568E+02  0.44550162086E+02  0.41800000000E+01 0.  1.
</event>
<event>
11    1  0.8039394E-009  0.1976865E+03  0.7561462E-02  0.1056172E+00
         22   -1    0    0    0    0  0.00000000000E+00  0.00000000000E+00  0.48689351262E+03  0.48689351262E+03  0.00000000000E+00 0. -1.
         22   -1    0    0    0    0 -0.00000000000E+00 -0.00000000000E+00 -0.15135214905E+04  0.15135214905E+04  0.00000000000E+00 0. -1.
        -24    2    1    2    0    0  0.48500672130E+02 -0.21367400599E+02 -0.10808266880E+04  0.10851135728E+04  0.80475184847E+02 0.  0.
         25    2    1    2    0    0 -0.14466890295E+03  0.13814800048E+03 -0.38068346355E+03  0.44786425928E+03  0.12509409977E+03 0.  0.
         24    2    1    2    0    0  0.96168230817E+02 -0.11678059988E+03  0.43488217368E+03  0.46743717104E+03  0.80554123195E+02 0.  0.
        -11    1    5    5    0    0  0.77879746051E+02 -0.85449792341E+02  0.21067630962E+03  0.24031527062E+03  0.00000000000E+00 0.  1.
         12    1    5    5    0    0  0.18288484766E+02 -0.31330807537E+02  0.22420586405E+03  0.22712190042E+03  0.00000000000E+00 0. -1.
         13    1    3    3    0    0  0.22967788657E+02 -0.51593637480E+02 -0.59161041453E+03  0.59429984463E+03  0.00000000000E+00 0. -1.
        -14    1    3    3    0    0  0.25532883474E+02  0.30226236881E+02 -0.48921627348E+03  0.49081372818E+03  0.00000000000E+00 0.  1.
          5    1    4    4  501    0 -0.12694438112E+03  0.89918748656E+02 -0.16791450226E+03  0.22893887771E+03  0.41800000000E+01 0. -1.
         -5    1    4    4    0  501 -0.17724521832E+02  0.48229251821E+02 -0.21276896129E+03  0.21892538157E+03  0.41800000000E+01 0. -1.
</event>
<event>
11    1  0.8039394E-009  0.2455021E+03  0.7561462E-02  0.1026323E+00
         22   -1    0    0    0    0  0.00000000000E+00  0.00000000000E+00  0.57133623714E+03  0.57133623714E+03  0.00000000000E+00 0. -1.
         22   -1    0    0    0    0 -0.00000000000E+00 -0.00000000000E+00 -0.70357623568E+03  0.70357623568E+03  0.00000000000E+00 0.  1.
        -24    2    1    2    0    0  0.10903789350E+03 -0.17329319307E+03 -0.56817311402E+03  0.60931530033E+03  0.80775334976E+02 0.  0.
         25    2    1    2    0    0 -0.21490020973E+03  0.24308942490E+03  0.26007130819E+03  0.43424432345E+03  0.12512585049E+03 0.  0.
         24    2    1    2    0    0  0.10586231623E+03 -0.69796231829E+02  0.17586180729E+03  0.23135284904E+03  0.80736742083E+02 0.  0.
        -13    1    5    5    0    0  0.22423358931E+02  0.47013181032E+01  0.82596181434E+02  0.85714868052E+02  0.00000000000E+00 0.  1.
         14    1    5    5    0    0  0.83438957298E+02 -0.74497549932E+02  0.93265625854E+02  0.14563798099E+03  0.00000000000E+00 0. -1.
         11    1    3    3    0    0  0.54090059393E+02 -0.20708197401E+02 -0.15136520108E+03  0.16206785019E+03  0.00000000000E+00 0. -1.
        -12    1    3    3    0    0  0.54947834110E+02 -0.15258499567E+03 -0.41680791293E+03  0.44724745014E+03  0.00000000000E+00 0.  1.
          5    1    4    4  501    0 -0.97607495337E+02  0.14234935455E+03  0.63139506156E+02  0.18383316220E+03  0.41800000000E+01 0.  1.
         -5    1    4    4    0  501 -0.11729271439E+03  0.10074007035E+03  0.19693180204E+03  0.25041116125E+03  0.41800000000E+01 0.  1.
</event>
<event>
11    1  0.8039394E-009  0.2180197E+03  0.7561462E-02  0.1042465E+00
         22   -1    0    0    0    0  0.00000000000E+00  0.00000000000E+00  0.53226335100E+03  0.53226335100E+03  0.00000000000E+00 0.  1.
         22   -1    0    0    0    0 -0.00000000000E+00 -0.00000000000E+00 -0.36909402145E+04  0.36909402145E+04  0.00000000000E+00 0. -1.
         24    2    1    2    0    0 -0.16731333571E+03  0.59393750046E+02 -0.35282917782E+04  0.35336639247E+04  0.80102997877E+02 0.  0.
         25    2    1    2    0    0  0.18647572152E+03 -0.13671496184E+03 -0.38572514251E+02  0.26570558794E+03  0.12508974819E+03 0.  0.
        -24    2    1    2    0    0 -0.19162385805E+02  0.77321211796E+02  0.40818742902E+03  0.42383405286E+03  0.81685741258E+02 0.  0.
        -11    1    3    3    0    0 -0.51248683729E+02 -0.18637886254E+02 -0.10929521477E+04  0.10943117451E+04  0.00000000000E+00 0.  1.
         12    1    3    3    0    0 -0.11606465198E+03  0.78031636300E+02 -0.24353396306E+04  0.24393521796E+04  0.00000000000E+00 0. -1.
         13    1    5    5    0    0 -0.31027901632E+01  0.43550230959E+02  0.63134888555E+02  0.76761084386E+02  0.00000000000E+00 0. -1.
        -14    1    5    5    0    0 -0.16059595642E+02  0.33770980838E+02  0.34505254047E+03  0.34707296847E+03  0.00000000000E+00 0.  1.
          5    1    4    4  501    0  0.16637889910E+03 -0.10163861392E+03  0.18228538251E+02  0.19586244640E+03  0.41800000000E+01 0. -1.
         -5    1    4    4    0  501  0.20096822419E+02 -0.35076347923E+02 -0.56801052502E+02  0.69843141541E+02  0.41800000000E+01 0. -1.
</event>
<event>
11    1  0.8039394E-009  0.1904272E+03  0.7561462E-02  0.1061507E+00
         22   -1    0    0    0    0  0.00000000000E+00  0.00000000000E+00  0.17210112345E+03  0.17210112345E+03  0.00000000000E+00 0.  1.
         22   -1    0    0    0    0 -0.00000000000E+00 -0.00000000000E+00 -0.19336491188E+04  0.19336491188E+04  0.00000000000E+00 0.  1.
         24    2    1    2    0    0 -0.38633484162E+02 -0.13919437518E+03 -0.17124792730E+04  0.17205213105E+04  0.82101761369E+02 0.  0.
         25    2    1    2    0    0  0.40220936650E+02  0.12861009239E+03 -0.16300420217E+03  0.24570897636E+03  0.12507698241E+03 0.  0.
        -24    2    1    2    0    0 -0.15874524883E+01  0.10584282783E+02  0.11393547983E+03  0.13951995538E+03  0.79812137779E+02 0.  0.
        -13    1    3    3    0    0  0.19929130713E+02 -0.70360784563E+02 -0.92109431527E+03  0.92399272068E+03  0.00000000000E+00 0.  1.
         14    1    3    3    0    0 -0.58562614875E+02 -0.68833590615E+02 -0.79138495771E+03  0.79652858979E+03  0.00000000000E+00 0. -1.
         13    1    5    5    0    0  0.23724906290E+01 -0.32524744947E+02  0.26751466665E+02  0.42179719231E+02  0.00000000000E+00 0. -1.
        -14    1    5    5    0    0 -0.39599431173E+01  0.43109027730E+02  0.87184013167E+02  0.97340236148E+02  0.00000000000E+00 0.  1.
          5    1    4    4  501    0  0.83357501268E+01  0.12036376775E+03 -0.17307214046E+03  0.21101743890E+03  0.41800000000E+01 0. -1.
         -5    1    4    4    0  501  0.31885186523E+02  0.82463246462E+01  0.10067938291E+02  0.34691537458E+02  0.41800000000E+01 0. -1.
</event>
<event>
11    1  0.8039394E-009  0.1408751E+03  0.7561462E-02  0.1106585E+00
         22   -1    0    0    0    0  0.00000000000E+00  0.00000000000E+00  0.26073043687E+03  0.26073043687E+03  0.00000000000E+00 0. -1.
         22   -1    0    0    0    0 -0.00000000000E+00 -0.00000000000E+00 -0.13528086024E+04  0.13528086024E+04  0.00000000000E+00 0. -1.
         24    2    1    2    0    0  0.27545732248E+02  0.32153825495E+02 -0.11885493830E+04  0.11936976839E+04  0.10233224692E+03 0.  0.
         25    2    1    2    0    0 -0.36807408975E+02  0.34413885592E+02 -0.11649033108E+03  0.17820800756E+03  0.12509594656E+03 0.  0.
        -24    2    1    2    0    0  0.92616767272E+01 -0.66567711087E+02  0.21296154858E+03  0.24163334783E+03  0.92287674118E+02 0.  0.
        -13    1    3    3    0    0  0.46577927017E+01  0.29610932613E+02 -0.89096733685E+02  0.94003884581E+02  0.00000000000E+00 0.  1.
         14    1    3    3    0    0  0.22887939546E+02  0.25428928821E+01 -0.10994526493E+04  0.10996937993E+04  0.00000000000E+00 0. -1.
         11    1    5    5    0    0 -0.36315610891E+02 -0.56093386170E+02  0.13705194489E+03  0.15247467713E+03  0.00000000000E+00 0. -1.
        -12    1    5    5    0    0  0.45577287618E+02 -0.10474324918E+02  0.75909603682E+02  0.89158670696E+02  0.00000000000E+00 0.  1.
          5    1    4    4  501    0  0.27347520040E+02 -0.16035275614E+00 -0.99478667649E+02  0.10325400855E+03  0.41800000000E+01 0.  1.
         -5    1    4    4    0  501 -0.64154929016E+02  0.34574238348E+02 -0.17011663431E+02  0.74953999006E+02  0.41800000000E+01 0.  1.
</event>
<event>
11    1  0.8039394E-009  0.1556435E+03  0.7561462E-02  0.1091248E+00
         22   -1    0    0    0    0  0.00000000000E+00  0.00000000000E+00  0.32670868852E+04  0.32670868852E+04  0.00000000000E+00 0. -1.
         22   -1    0    0    0    0 -0.00000000000E+00 -0.00000000000E+00 -0.59846476550E+02  0.59846476550E+02  0.00000000000E+00 0.  1.
        -24    2    1    2    0    0 -0.75923128114E+02  0.53230390075E+02  0.13004430833E+02  0.12303460820E+03  0.79816062186E+02 0.  0.
         25    2    1    2    0    0  0.96439136618E+02 -0.17660009400E+02  0.19635652788E+04  0.19699869674E+04  0.12509062540E+03 0.  0.
         24    2    1    2    0    0 -0.20516008504E+02 -0.35570380675E+02  0.12306706990E+04  0.12339117861E+04  0.79383676111E+02 0.  0.
        -11    1    5    5    0    0  0.25936332343E+02 -0.30082890942E+02  0.72319483218E+03  0.72428477752E+03  0.00000000000E+00 0.  1.
         12    1    5    5    0    0 -0.46452340846E+02 -0.54874897323E+01  0.50747586681E+03  0.50962700862E+03  0.00000000000E+00 0. -1.
         11    1    3    3    0    0 -0.13329649125E+02 -0.18453193568E+02  0.15995855636E+02  0.27822064916E+02  0.00000000000E+00 0. -1.
        -12    1    3    3    0    0 -0.62593478989E+02  0.71683583643E+02 -0.29914248031E+01  0.95212543282E+02  0.00000000000E+00 0.  1.
          5    1    4    4  501    0  0.67030989837E+02 -0.27663146065E+02  0.18680303953E+04  0.18694420112E+04  0.41800000000E+01 0. -1.
         -5    1    4    4    0  501  0.29408146780E+02  0.10003136664E+02  0.95534883525E+02  0.10054495617E+03  0.41800000000E+01 0. -1.
</event>
<event>
11    1  0.8039394E-009  0.1737035E+03  0.7561462E-02  0.1074853E+00
         22   -1    0    0    0    0  0.00000000000E+00  0.00000000000E+00  0.91784408117E+02  0.91784408117E+02  0.00000000000E+00 0. -1.
         22   -1    0    0    0    0 -0.00000000000E+00 -0.00000000000E+00 -0.37300949623E+04  0.37300949623E+04  0.00000000000E+00 0. -1.
         24    2    1    2    0    0  0.77895810589E+02  0.32985165021E+02 -0.33001447011E+04  0.33022188313E+04  0.80860271550E+02 0.  0.
         25    2    1    2    0    0 -0.11640518913E+02  0.82418356529E+02 -0.33020808209E+03  0.36278496400E+03  0.12508903013E+03 0.  0.
        -24    2    1    2    0    0 -0.66255291675E+02 -0.11540352155E+03 -0.79577709970E+01  0.15687557506E+03  0.82697542110E+02 0.  0.
        -13    1    3    3    0    0  0.43868740803E+02  0.16591538685E+02 -0.60699931991E+03  0.60880860700E+03  0.00000000000E+00 0.  1.
         14    1    3    3    0    0  0.34027069786E+02  0.16393626336E+02 -0.26931453811E+04  0.26934102243E+04  0.00000000000E+00 0. -1.
         11    1    5    5    0    0  0.10754567847E+02 -0.33208775119E+02  0.20792040875E+02  0.40629945093E+02  0.00000000000E+00 0. -1.
        -12    1    5    5    0    0 -0.77009859523E+02 -0.82194746431E+02 -0.28749811872E+02  0.11624562997E+03  0.00000000000E+00 0.  1.
          5    1    4    4  501    0  0.32234919076E+02 -0.20363737748E+02 -0.88925371701E+02  0.96845061593E+02  0.41800000000E+01 0.  1.
         -5    1    4    4    0  501 -0.43875437990E+02  0.10278209428E+03 -0.24128271039E+03  0.26593990241E+03  0.41800000000E+01 0.  1.
</event>
<event>
11    1  0.8039394E-009  0.1927381E+03  0.7561462E-02  0.1059781E+00
         22   -1    0    0    0    0  0.00000000000E+00  0.00000000000E+00  0.71089062060E+03  0.71089062060E+03  0.00000000000E+00 0. -1.
         22   -1    0    0    0    0 -0.00000000000E+00 -0.00000000000E+00 -0.40586510137E+03  0.40586510137E+03  0.00000000000E+00 0. -1.
         24    2    1    2    0    0  0.27854073543E+02 -0.13838471028E+03 -0.23029662255E+03  0.28223913234E+03  0.81830410085E+02 0.  0.
         25    2    1    2    0    0  0.25897869189E+02  0.16808399663E+03 -0.69481019807E+02  0.22226970623E+03  0.12511307143E+03 0.  0.
        -24    2    1    2    0    0 -0.53751942733E+02 -0.29699286351E+02  0.60480316159E+03  0.61224688339E+03  0.72719069009E+02 0.  0.
        -11    1    3    3    0    0  0.92142583198E+01 -0.11893744733E+03 -0.12195572327E+03  0.17059958198E+03  0.00000000000E+00 0.  1.
         12    1    3    3    0    0  0.18639815224E+02 -0.19447262947E+02 -0.10834089928E+03  0.11163955036E+03  0.00000000000E+00 0. -1.
         11    1    5    5    0    0 -0.68047482510E+01 -0.36273620035E+02  0.41404612478E+03  0.41568771158E+03  0.00000000000E+00 0. -1.
        -12    1    5    5    0    0 -0.46947194482E+02  0.65743336835E+01  0.19075703681E+03  0.19655917182E+03  0.00000000000E+00 0.  1.
          5    1    4    4  501    0  0.29844111921E+02 -0.27156782893E+01 -0.37871824400E+02  0.48474667697E+02  0.41800000000E+01 0.  1.
         -5    1    4    4    0  501 -0.39462427317E+01  0.17079967492E+03 -0.31609195406E+02  0.17379503853E+03  0.41800000000E+01 0.  1.
</event>
<event>
11    1  0.8039394E-009  0.1801540E+03  0.7561462E-02  0.1069518E+00
         22   -1    0    0    0    0  0.00000000000E+00  0.00000000000E+00  0.67059906903E+03  0.67059906903E+03  0.00000000000E+00 0. -1.
         22   -1    0    0    0    0 -0.00000000000E+00 -0.00000000000E+00 -0.73512895876E+03  0.73512895876E+03  0.00000000000E+00 0. -1.
        -24    2    1    2    0    0  0.68689566427E+02  0.57075033989E+02 -0.61418511602E+03  0.62972493063E+03  0.10655663035E+03 0.  0.
         25    2    1    2    0    0  0.22259801690E+02 -0.15006157633E+03 -0.37460623546E+01  0.19666189464E+03  0.12509153592E+03 0.  0.
         24    2    1    2    0    0 -0.90949368117E+02  0.92986542342E+02  0.55340128865E+03  0.57934120252E+03  0.11164657646E+03 0.  0.
        -13    1    5    5    0    0 -0.26332021826E+02 -0.10883194278E+02  0.28223515666E+02  0.40104689597E+02  0.00000000000E+00 0.  1.
         14    1    5    5    0    0 -0.64617346291E+02  0.10386973662E+03  0.52517777299E+03  0.53923651292E+03  0.00000000000E+00 0. -1.
         13    1    3    3    0    0  0.30507812779E+02  0.11175777601E+01 -0.46359789991E+03  0.46460196773E+03  0.00000000000E+00 0. -1.
        -14    1    3    3    0    0  0.38181753649E+02  0.55957456229E+02 -0.15058721612E+03  0.16512296290E+03  0.00000000000E+00 0.  1.
          5    1    4    4  501    0 -0.46247377513E+02 -0.99486784762E+02 -0.14449380897E+02  0.11073706370E+03  0.41800000000E+01 0. -1.
         -5    1    4    4    0  501  0.68507179203E+02 -0.50574791569E+02  0.10703318543E+02  0.85924830942E+02  0.41800000000E+01 0. -1.
</event>
<event>
11    1  0.8039394E-009  0.2415670E+03  0.7561462E-02  0.1028490E+00
         22   -1    0    0    0    0  0.00000000000E+00  0.00000000000E+00  0.10990016384E+04  0.10990016384E+04  0.00000000000E+00 0.  1.
         22   -1    0    0    0    0 -0.00000000000E+00 -0.00000000000E+00 -0.63962807947E+03  0.63962807947E+03  0.00000000000E+00 0.  1.
        -24    2    1    2    0    0 -0.52183298502E+02  0.14469491233E+02 -0.56227361870E+03  0.57060029323E+03  0.80626357520E+02 0.  0.
         25    2    1    2    0    0  0.16485165209E+03 -0.17703111005E+03  0.26296863025E+03  0.37856372805E+03  0.12506764003E+03 0.  0.
         24    2    1    2    0    0 -0.11266835359E+03  0.16256161881E+03  0.75867854734E+03  0.78946569655E+03  0.92425700009E+02 0.  0.
        -13    1    5    5    0    0 -0.10903589774E+03  0.16754852558E+03  0.75717028901E+03  0.78311441181E+03  0.00000000000E+00 0.  1.
         14    1    5    5    0    0 -0.36324558478E+01 -0.49869067708E+01  0.15082583248E+01  0.63512847363E+01  0.00000000000E+00 0. -1.
         11    1    3    3    0    0  0.17526710247E+02  0.21668977818E+01 -0.42419305856E+02  0.45948650986E+02  0.00000000000E+00 0. -1.
        -12    1    3    3    0    0 -0.69710008749E+02  0.12302593451E+02 -0.51985431284E+03  0.52465164224E+03  0.00000000000E+00 0.  1.
          5    1    4    4  501    0  0.12269787653E+03 -0.42059254479E+02  0.10901562541E+03  0.16948636752E+03  0.41800000000E+01 0.  1.
         -5    1    4    4    0  501  0.42153775564E+02 -0.13497185557E+03  0.15395300483E+03  0.20907736053E+03  0.41800000000E+01 0.  1.
</event>
<event>
11    1  0.8039394E-009  0.1456962E+03  0.7561462E-02  0.1101359E+00
         22   -1    0    0    0    0  0.00000000000E+00  0.00000000000E+00  0.18229259372E+04  0.18229259372E+04  0.00000000000E+00 0. -1.
         22   -1    0    0    0    0 -0.00000000000E+00 -0.00000000000E+00 -0.42541100111E+03  0.42541100111E+03  0.00000000000E+00 0.  1.
        -24    2    1    2    0    0 -0.42427859406E+02 -0.60142817339E+02 -0.38610498553E+03  0.40162653379E+03  0.82519882824E+02 0.  0.
         25    2    1    2    0    0  0.65188270362E+02  0.83917063058E+02  0.19215155097E+03  0.25270761154E+03  0.12508930539E+03 0.  0.
         24    2    1    2    0    0 -0.22760410956E+02 -0.23774245718E+02  0.15914683707E+04  0.15940027930E+04  0.83606687341E+02 0.  0.
        -13    1    5    5    0    0 -0.72482041360E+01 -0.11468787596E+02  0.37011160444E+02  0.39419481852E+02  0.00000000000E+00 0.  1.
         14    1    5    5    0    0 -0.15512206820E+02 -0.12305458122E+02  0.15544572102E+04  0.15545833111E+04  0.00000000000E+00 0. -1.
         11    1    3    3    0    0  0.50898671461E+01  0.17368910225E+02 -0.92989887435E+02  0.94734919407E+02  0.00000000000E+00 0. -1.
        -12    1    3    3    0    0 -0.47517726553E+02 -0.77511727564E+02 -0.29311509810E+03  0.30689161438E+03  0.00000000000E+00 0.  1.
          5    1    4    4  501    0  0.53511599346E+01 -0.21911459306E+02  0.92955875831E+02  0.95744525760E+02  0.41800000000E+01 0.  1.
         -5    1    4    4    0  501  0.59837110428E+02  0.10582852236E+03  0.99195675141E+02  0.15696308578E+03  0.41800000000E+01 0.  1.
</event>
<event>
11    1  0.8039394E-009  0.1454469E+03  0.7561462E-02  0.1101624E+00
         22   -1    0    0    0    0  0.00000000000E+00  0.00000000000E+00  0.24901233961E+03  0.24901233961E+03  0.00000000000E+00 0.  1.
         22   -1    0    0    0    0 -0.00000000000E+00 -0.00000000000E+00 -0.41236806273E+03  0.41236806273E+03  0.00000000000E+00 0. -1.
         24    2    1    2    0    0  0.54173675176E+01  0.67131764006E+01 -0.32685186218E+03  0.33659538449E+03  0.79936840362E+02 0.  0.
         25    2    1    2    0    0  0.50541933561E+02 -0.55309225481E+02  0.23532776900E+02  0.14769768004E+03  0.12508883096E+03 0.  0.
        -24    2    1    2    0    0 -0.55959301078E+02  0.48596049081E+02  0.13996336215E+03  0.17708733781E+03  0.79228549798E+02 0.  0.
        -13    1    3    3    0    0  0.39762008288E+02  0.28251605575E+00 -0.11042357276E+03  0.11736465626E+03  0.00000000000E+00 0.  1.
         14    1    3    3    0    0 -0.34344640770E+02  0.64306603448E+01 -0.21642828941E+03  0.21923072823E+03  0.00000000000E+00 0. -1.
         11    1    5    5    0    0 -0.17793599986E+02  0.61660811121E+02  0.10795867446E+03  0.12559356361E+03  0.00000000000E+00 0. -1.
        -12    1    5    5    0    0 -0.38165701092E+02 -0.13064762040E+02  0.32004687694E+02  0.51493774200E+02  0.00000000000E+00 0.  1.
          5    1    4    4  501    0  0.84090674143E+02 -0.22201393599E+02  0.42286538466E+02  0.96797557257E+02  0.41800000000E+01 0. -1.
         -5    1    4    4    0  501 -0.33548740582E+02 -0.33107831883E+02 -0.18753761566E+02  0.50900122785E+02  0.41800000000E+01 0. -1.
</event>
<event>
11    1  0.8039394E-009  0.1317874E+03  0.7561462E-02  0.1117092E+00
         22   -1    0    0    0    0  0.00000000000E+00  0.00000000000E+00  0.95091222062E+02  0.95091222062E+02  0.00000000000E+00 0.  1.
         22   -1    0    0    0    0 -0.00000000000E+00 -0.00000000000E+00 -0.53350280124E+03  0.53350280124E+03  0.00000000000E+00 0. -1.
        -24    2    1    2    0    0  0.44095123861E+02  0.37320844135E+02 -0.36939048899E+03  0.38227232476E+03  0.79659095958E+02 0.  0.
         25    2    1    2    0    0 -0.56251881420E+01  0.59978693088E+01 -0.77049397934E+02  0.14714647695E+03  0.12509140170E+03 0.  0.
         24    2    1    2    0    0 -0.38469935719E+02 -0.43318713443E+02  0.80283077460E+01  0.99175221584E+02  0.80092596176E+02 0.  0.
        -11    1    5    5    0    0 -0.37151769096E+02 -0.58550578122E+00  0.32972658679E+02  0.49676885816E+02  0.00000000000E+00 0.  1.
         12    1    5    5    0    0 -0.13181666234E+01 -0.42733207662E+02 -0.24944350933E+02  0.49498335768E+02  0.00000000000E+00 0. -1.
         13    1    3    3    0    0  0.59995138104E+02  0.42389519275E+02 -0.34490146973E+03  0.35263764938E+03  0.00000000000E+00 0. -1.
        -14    1    3    3    0    0 -0.15900014243E+02 -0.50686751403E+01 -0.24489019260E+02  0.29634675381E+02  0.00000000000E+00 0.  1.
          5    1    4    4  501    0  0.77602398664E+01 -0.47588802390E+02 -0.77944437286E+02  0.91748150606E+02  0.41800000000E+01 0. -1.
         -5    1    4    4    0  501 -0.13385428008E+02  0.53586671698E+02  0.89503935287E+00  0.55398326348E+02  0.41800000000E+01 0. -1.
</event>
<event>
11    1  0.8039394E-009  0.5279757E+03  0.7561462E-02  0.9333093E-01
         22   -1    0    0    0    0  0.00000000000E+00  0.00000000000E+00  0.45478219637E+03  0.45478219637E+03  0.00000000000E+00 0.  1.
         22   -1    0    0    0    0 -0.00000000000E+00 -0.00000000000E+00 -0.15323727422E+03  0.15323727422E+03  0.00000000000E+00 0.  1.
        -24    2    1    2    0    0 -0.41419872489E+02 -0.21054026885E+02 -0.78074245822E+01  0.92858673430E+02  0.80018119620E+02 0.  0.
         25    2    1    2    0    0  0.18666979368E+03  0.38630277596E+02  0.24923315314E+03  0.33779141919E+03  0.12509183839E+03 0.  0.
         24    2    1    2    0    0 -0.14524992119E+03 -0.17576250711E+02  0.60119193596E+02  0.17736937797E+03  0.80244093917E+02 0.  0.
        -11    1    5    5    0    0 -0.14172678134E+03 -0.34694070937E+02  0.41206862490E+02  0.15161848378E+03  0.00000000000E+00 0.  1.
         12    1    5    5    0    0 -0.35231398463E+01  0.17117820226E+02  0.18912331106E+02  0.25750894189E+02  0.00000000000E+00 0. -1.
         13    1    3    3    0    0 -0.63374667307E+02 -0.12502900149E+02 -0.18194036792E+02  0.67109566704E+02  0.00000000000E+00 0. -1.
        -14    1    3    3    0    0  0.21954794818E+02 -0.85511267358E+01  0.10386612210E+02  0.25749106726E+02  0.00000000000E+00 0.  1.
          5    1    4    4  501    0  0.43158707744E+02 -0.36408152996E+02  0.26860350300E+02  0.62667204158E+02  0.41800000000E+01 0.  1.
         -5    1    4    4    0  501  0.14351108593E+03  0.75038430591E+02  0.22237280284E+03  0.27512421503E+03  0.41800000000E+01 0.  1.
</event>
<event>
11    1  0.8039394E-009  0.1617015E+03  0.7561462E-02  0.1085488E+00
         22   -1    0    0    0    0  0.00000000000E+00  0.00000000000E+00  0.16412076469E+04  0.16412076469E+04  0.00000000000E+00 0. -1.
         22   -1    0    0    0    0 -0.00000000000E+00 -0.00000000000E+00 -0.47467817271E+03  0.47467817271E+03  0.00000000000E+00 0.  1.
         24    2    1    2    0    0 -0.68793514084E+02 -0.11380641552E+02 -0.44121605224E+03  0.45519583241E+03  0.87576106903E+02 0.  0.
         25    2    1    2    0    0  0.15258673752E+03 -0.34993409384E+02  0.40768144286E+03  0.45426756817E+03  0.12509042118E+03 0.  0.
        -24    2    1    2    0    0 -0.83793223437E+02  0.46374050936E+02  0.12000640836E+04  0.12064224191E+04  0.78290430887E+02 0.  0.
        -11    1    3    3    0    0 -0.86599307243E+02 -0.86625534191E+01 -0.41018201193E+03  0.41931344214E+03  0.00000000000E+00 0.  1.
         12    1    3    3    0    0  0.17805793159E+02 -0.27180881334E+01 -0.31034040311E+02  0.35882390265E+02  0.00000000000E+00 0. -1.
         11    1    5    5    0    0 -0.29615454345E+02  0.47358909901E+02  0.33176312776E+03  0.33643233261E+03  0.00000000000E+00 0. -1.
        -12    1    5    5    0    0 -0.54177769093E+02 -0.98485896443E+00  0.86830095584E+03  0.86999008645E+03  0.00000000000E+00 0.  1.
          5    1    4    4  501    0  0.61148400371E+02 -0.71662781843E+02  0.26109826807E+03  0.27760486156E+03  0.41800000000E+01 0. -1.
         -5    1    4    4    0  501  0.91438337150E+02  0.36669372459E+02  0.14658317478E+03  0.17666270661E+03  0.41800000000E+01 0. -1.
</event>
<event>
11    1  0.8039394E-009  0.1429281E+03  0.7561462E-02  0.1104332E+00
         22   -1    0    0    0    0  0.00000000000E+00  0.00000000000E+00  0.35200825908E+03  0.35200825908E+03  0.00000000000E+00 0. -1.
         22   -1    0    0    0    0 -0.00000000000E+00 -0.00000000000E+00 -0.25293679404E+03  0.25293679404E+03  0.00000000000E+00 0.  1.
        -24    2    1    2    0    0 -0.71094830237E+02  0.44953563214E+01 -0.15762321268E+03  0.19092687213E+03  0.80828894659E+02 0.  0.
         25    2    1    2    0    0  0.61015127294E+02  0.22452751527E+02 -0.22429504618E+01  0.14099313151E+03  0.12508821087E+03 0.  0.
         24    2    1    2    0    0  0.10079702943E+02 -0.26948107848E+02  0.25893762817E+03  0.27302504948E+03  0.81646686598E+02 0.  0.
        -11    1    5    5    0    0 -0.34429228154E+02 -0.18936367055E+02  0.91343312245E+02  0.99436202866E+02  0.00000000000E+00 0.  1.
         12    1    5    5    0    0  0.44508931097E+02 -0.80117407932E+01  0.16759431592E+03  0.17358884661E+03  0.00000000000E+00 0. -1.
         11    1    3    3    0    0 -0.21429101868E+02 -0.26167235906E+01  0.37699547938E+01  0.21914976805E+02  0.00000000000E+00 0. -1.
        -12    1    3    3    0    0 -0.49665728369E+02  0.71120799120E+01 -0.16139316747E+03  0.16901189532E+03  0.00000000000E+00 0.  1.
          5    1    4    4  501    0  0.14775837458E+02  0.68436029557E+02  0.18316485001E+02  0.72489871961E+02  0.41800000000E+01 0.  1.
         -5    1    4    4    0  501  0.46239289835E+02 -0.45983278030E+02 -0.20559435463E+02  0.68503259553E+02  0.41800000000E+01 0.  1.
</event>
<event>
11    1  0.8039394E-009  0.1315789E+03  0.7561462E-02  0.1117344E+00
         22   -1    0    0    0    0  0.00000000000E+00  0.00000000000E+00  0.55753713862E+03  0.55753713862E+03  0.00000000000E+00 0. -1.
         22   -1    0    0    0    0 -0.00000000000E+00 -0.00000000000E+00 -0.31353185553E+03  0.31353185553E+03  0.00000000000E+00 0. -1.
        -24    2    1    2    0    0  0.13790394455E+02 -0.37016041610E+02 -0.26689221158E+03  0.28999442444E+03  0.10632474447E+03 0.  0.
         25    2    1    2    0    0  0.45399288852E+02  0.92640909218E+02  0.26726481558E+03  0.31260459952E+03  0.12509084900E+03 0.  0.
         24    2    1    2    0    0 -0.59189683307E+02 -0.55624867609E+02  0.24363267910E+03  0.26846997019E+03  0.78241281078E+02 0.  0.
        -13    1    5    5    0    0 -0.35814129670E+02 -0.25785442149E+02  0.34734751767E+02  0.56160875093E+02  0.00000000000E+00 0.  1.
         14    1    5    5    0    0 -0.23375553638E+02 -0.29839425460E+02  0.20889792733E+03  0.21230909510E+03  0.00000000000E+00 0. -1.
         13    1    3    3    0    0 -0.78535397767E-01 -0.53441227676E+02 -0.26271454658E+03  0.26809495327E+03  0.00000000000E+00 0. -1.
        -14    1    3    3    0    0  0.13868929853E+02  0.16425186066E+02 -0.41776649998E+01  0.21899471167E+02  0.00000000000E+00 0.  1.
          5    1    4    4  501    0  0.37459733667E+02 -0.23870743897E+02  0.61599874083E+02  0.76059588137E+02  0.41800000000E+01 0. -1.
         -5    1    4    4    0  501  0.79395551852E+01  0.11651165312E+03  0.20566494149E+03  0.23654501138E+03  0.41800000000E+01 0. -1.
</event>
<event>
11    1  0.8039394E-009  0.1263723E+03  0.7561462E-02  0.1123808E+00
         22   -1    0    0    0    0  0.00000000000E+00  0.00000000000E+00  0.26428508199E+04  0.26428508199E+04  0.00000000000E+00 0.  1.
         22   -1    0    0    0    0 -0.00000000000E+00 -0.00000000000E+00 -0.85070231892E+02  0.85070231892E+02  0.00000000000E+00 0. -1.
        -24    2    1    2    0    0  0.11728822739E+02 -0.14237912543E+02 -0.56204106806E+02  0.99329678144E+02  0.79794736054E+02 0.  0.
         25    2    1    2    0    0  0.70318948312E+01  0.80802009913E+01  0.60564485143E+03  0.61852131784E+03  0.12509275506E+03 0.  0.
         24    2    1    2    0    0 -0.18760717571E+02  0.61577115519E+01  0.20083398434E+04  0.20100700558E+04  0.81011238627E+02 0.  0.
        -11    1    5    5    0    0  0.15121561112E+02  0.23350381507E+02  0.15199385521E+04  0.15201931141E+04  0.00000000000E+00 0.  1.
         12    1    5    5    0    0 -0.33882278682E+02 -0.17192669955E+02  0.48840129133E+03  0.48987694177E+03  0.00000000000E+00 0. -1.
         11    1    3    3    0    0 -0.23455042995E+02 -0.12656911755E+01 -0.57181329926E+02  0.61817841342E+02  0.00000000000E+00 0. -1.
        -12    1    3    3    0    0  0.35183865735E+02 -0.12972221368E+02  0.97722311986E+00  0.37511836802E+02  0.00000000000E+00 0.  1.
          5    1    4    4  501    0  0.27379304116E+02  0.52231983890E+02  0.48175195507E+03  0.48536607324E+03  0.41800000000E+01 0. -1.
         -5    1    4    4    0  501 -0.20347409285E+02 -0.44151782899E+02  0.12389289636E+03  0.13315524461E+03  0.41800000000E+01 0. -1.
</event>
<event>
11    1  0.8039394E-009  0.1803700E+03  0.7561462E-02  0.1069344E+00
         22   -1    0    0    0    0  0.00000000000E+00  0.00000000000E+00  0.38193891523E+03  0.38193891523E+03  0.00000000000E+00 0. -1.
         22   -1    0    0    0    0 -0.00000000000E+00 -0.00000000000E+00 -0.29367168450E+04  0.29367168450E+04  0.00000000000E+00 0.  1.
        -24    2    1    2    0    0 -0.22796843836E+02 -0.14788922531E+02 -0.26447918817E+04  0.26461562677E+04  0.80501474315E+02 0.  0.
         25    2    1    2    0    0 -0.22999928194E+02 -0.10814914297E+03 -0.24920755725E+03  0.29996142542E+03  0.12508883374E+03 0.  0.
         24    2    1    2    0    0  0.45796772029E+02  0.12293806550E+03  0.33922150910E+03  0.37253806716E+03  0.80636635414E+02 0.  0.
        -11    1    5    5    0    0  0.12746030161E+02 -0.10059720567E+02  0.26079342321E+02  0.30721187455E+02  0.00000000000E+00 0.  1.
         12    1    5    5    0    0  0.33050741868E+02  0.13299778607E+03  0.31314216678E+03  0.34181687971E+03  0.00000000000E+00 0. -1.
         13    1    3    3    0    0 -0.19048710345E+02  0.27411438508E+02 -0.17936876798E+04  0.17939982534E+04  0.00000000000E+00 0. -1.
        -14    1    3    3    0    0 -0.37481334902E+01 -0.42200361038E+02 -0.85110420181E+03  0.85215801429E+03  0.00000000000E+00 0.  1.
          5    1    4    4  501    0 -0.36007293575E+02 -0.13248856917E+03 -0.18943728809E+03  0.23399509539E+03  0.41800000000E+01 0.  1.
         -5    1    4    4    0  501  0.13007365381E+02  0.24339426192E+02 -0.59770269158E+02  0.65966330023E+02  0.41800000000E+01 0.  1.
</event>
<event>
11    1  0.8039394E-009  0.1782708E+03  0.7561462E-02  0.1071050E+00
         22   -1    0    0    0    0  0.00000000000E+00  0.00000000000E+00  0.28562924856E+03  0.28562924856E+03  0.00000000000E+00 0.  1.
         22   -1    0    0    0    0 -0.00000000000E+00 -0.00000000000E+00 -0.29066032593E+03  0.29066032593E+03  0.00000000000E+00 0.  1.
         24    2    1    2    0    0 -0.84245633679E+02 -0.10474922333E+03 -0.14847038620E+03  0.21507237695E+03  0.78376942830E+02 0.  0.
         25    2    1    2    0    0 -0.11068548587E+02  0.13234192697E+03  0.19554077663E+02  0.18348903062E+03  0.12509581928E+03 0.  0.
        -24    2    1    2    0    0  0.95314182266E+02 -0.27592703646E+02  0.12388523117E+03  0.17772816693E+03  0.79959991139E+02 0.  0.
        -13    1    3    3    0    0 -0.54086085930E+02 -0.11198508470E+03 -0.12334520596E+03  0.17515708299E+03  0.00000000000E+00 0.  1.
         14    1    3    3    0    0 -0.30159547748E+02  0.72358613740E+01 -0.25125180237E+02  0.39915293963E+02  0.00000000000E+00 0. -1.
         11    1    5    5    0    0  0.14074594844E+02  0.12919185591E+02  0.69111227364E+02  0.71703286704E+02  0.00000000000E+00 0. -1.
        -12    1    5    5    0    0  0.81239587422E+02 -0.40511889237E+02  0.54774003802E+02  0.10602488022E+03  0.00000000000E+00 0.  1.
          5    1    4    4  501    0 -0.50936589999E+02  0.83473798882E+01  0.10672401428E+02  0.52873315614E+02  0.41800000000E+01 0. -1.
         -5    1    4    4    0  501  0.39868041412E+02  0.12399454708E+03  0.88816762348E+01  0.13061571500E+03  0.41800000000E+01 0. -1.
</event>
<event>
11    1  0.8039394E-009  0.1484793E+03  0.7561462E-02  0.1098443E+00
         22   -1    0    0    0    0  0.00000000000E+00  0.00000000000E+00  0.26586661446E+03  0.26586661446E+03  0.00000000000E+00 0.  1.
         22   -1    0    0    0    0 -0.00000000000E+00 -0.00000000000E+00 -0.18292888408E+04  0.18292888408E+04  0.00000000000E+00 0. -1.
        -24    2    1    2    0    0  0.48431973064E+01 -0.36245490595E+02 -0.16931841055E+04  0.16955304230E+04  0.81325322769E+02 0.  0.
         25    2    1    2    0    0  0.74422965542E+02  0.46001736207E+02 -0.71776999314E+02  0.16871697145E+03  0.12513409324E+03 0.  0.
         24    2    1    2    0    0 -0.79266162848E+02 -0.97562456125E+01  0.20153887843E+03  0.23090806083E+03  0.79512918029E+02 0.  0.
        -11    1    5    5    0    0 -0.58837964704E+02 -0.43197723183E+02  0.14139498737E+03  0.15912413969E+03  0.00000000000E+00 0.  1.
         12    1    5    5    0    0 -0.20428198144E+02  0.33441477571E+02  0.60143891059E+02  0.71783921133E+02  0.00000000000E+00 0. -1.
         11    1    3    3    0    0 -0.31241354769E+02 -0.23101044291E+02 -0.42702410151E+03  0.42878813389E+03  0.00000000000E+00 0. -1.
        -12    1    3    3    0    0  0.36084552075E+02 -0.13144446304E+02 -0.12661600040E+04  0.12667422891E+04  0.00000000000E+00 0.  1.
          5    1    4    4  501    0  0.59547716912E+02  0.74859209833E+02 -0.89869638720E+02  0.13131586443E+03  0.41800000000E+01 0. -1.
         -5    1    4    4    0  501  0.14875248630E+02 -0.28857473626E+02  0.18092639405E+02  0.37401107023E+02  0.41800000000E+01 0. -1.
</event>
<event>
11    1  0.8039394E-009  0.1389805E+03  0.7561462E-02  0.1108702E+00
         22   -1    0    0    0    0  0.00000000000E+00  0.00000000000E+00  0.59167920322E+03  0.59167920322E+03  0.00000000000E+00 0.  1.
         22   -1    0    0    0    0 -0.00000000000E+00 -0.00000000000E+00 -0.68767201994E+03  0.68767201994E+03  0.00000000000E+00 0.  1.
        -24    2    1    2    0    0  0.18811846541E+02  0.57962950886E+02 -0.65570988624E+03  0.66376158308E+03  0.83128785713E+02 0.  0.
         25    2    1    2    0    0 -0.20261575544E+01 -0.44662429018E+02  0.16393722971E+03  0.21100171965E+03  0.12508985782E+03 0.  0.
         24    2    1    2    0    0 -0.16785688986E+02 -0.13300521868E+02  0.39577983981E+03  0.40458792043E+03  0.81185223537E+02 0.  0.
        -13    1    5    5    0    0 -0.42039392710E+01  0.32784695959E+02  0.21843181968E+03  0.22091846741E+03  0.00000000000E+00 0.  1.
         14    1    5    5    0    0 -0.12581749715E+02 -0.46085217827E+02  0.17734802013E+03  0.18366945301E+03  0.00000000000E+00 0. -1.
         11    1    3    3    0    0 -0.21614326305E+02  0.35296279638E+02 -0.14044677223E+03  0.14641824438E+03  0.00000000000E+00 0. -1.
        -12    1    3    3    0    0  0.40426172845E+02  0.22666671248E+02 -0.51526311401E+03  0.51734333870E+03  0.00000000000E+00 0.  1.
          5    1    4    4  501    0  0.18013977454E+02  0.28119106174E+02  0.37434441558E+01  0.33862564727E+02  0.41800000000E+01 0. -1.
         -5    1    4    4    0  501 -0.20040135009E+02 -0.72781535192E+02  0.16019378556E+03  0.17713915493E+03  0.41800000000E+01 0. -1.
</event>
<event>
11    1  0.8039394E-009  0.1567293E+03  0.7561462E-02  0.1090194E+00
         22   -1    0    0    0    0  0.00000000000E+00  0.00000000000E+00  0.22659036749E+04  0.22659036749E+04  0.00000000000E+00 0. -1.
         22   -1    0    0    0    0 -0.00000000000E+00 -0.00000000000E+00 -0.26369410858E+03  0.26369410858E+03  0.00000000000E+00 0. -1.
         24    2    1    2    0    0  0.83684421767E+02  0.37571492366E+02 -0.16859149016E+03  0.20806971434E+03  0.80344358785E+02 0.  0.
         25    2    1    2    0    0 -0.17611835538E+03 -0.35061869582E+02  0.89185803420E+02  0.23631641831E+03  0.12507730502E+03 0.  0.
        -24    2    1    2    0    0  0.92433933613E+02 -0.25096227844E+01  0.20816152531E+04  0.20852116508E+04  0.80219926939E+02 0.  0.
        -13    1    3    3    0    0 -0.13445227373E+02 -0.41176690717E+01 -0.91559904838E+01  0.16779794380E+02  0.00000000000E+00 0.  1.
         14    1    3    3    0    0  0.97129649140E+02  0.41689161438E+02 -0.15943549967E+03  0.19128991996E+03  0.00000000000E+00 0. -1.
         13    1    5    5    0    0  0.90791886599E+02 -0.24987878945E+02  0.13662122298E+04  0.13694536931E+04  0.00000000000E+00 0. -1.
        -14    1    5    5    0    0  0.16420470132E+01  0.22478256160E+02  0.71540302327E+03  0.71575795771E+03  0.00000000000E+00 0.  1.
          5    1    4    4  501    0 -0.42237912395E+02 -0.37073217032E+02  0.85379594973E+02  0.10230157527E+03  0.41800000000E+01 0. -1.
         -5    1    4    4    0  501 -0.13388044298E+03  0.20113474505E+01  0.38062084467E+01  0.13401484304E+03  0.41800000000E+01 0. -1.
</event>
<event>
11    1  0.8039394E-009  0.2219214E+03  0.7561462E-02  0.1040020E+00
         22   -1    0    0    0    0  0.00000000000E+00  0.00000000000E+00  0.21156988254E+03  0.21156988254E+03  0.00000000000E+00 0. -1.
         22   -1    0    0    0    0 -0.00000000000E+00 -0.00000000000E+00 -0.10446265145E+04  0.10446265145E+04  0.00000000000E+00 0. -1.
         24    2    1    2    0    0 -0.13768685910E+02 -0.18829454142E+03 -0.78132657668E+03  0.80746848533E+03  0.76744539503E+02 0.  0.
         25    2    1    2    0    0  0.95784154137E+02  0.15068604858E+03 -0.17244762396E+03  0.27796849075E+03  0.12508960556E+03 0.  0.
        -24    2    1    2    0    0 -0.82015468227E+02  0.37608492838E+02  0.12071756867E+03  0.17075942096E+03  0.80281459234E+02 0.  0.
        -11    1    3    3    0    0 -0.24415320174E+02 -0.16198077284E+02 -0.78199041115E+02  0.83507937337E+02  0.00000000000E+00 0.  1.
         12    1    3    3    0    0  0.10646634264E+02 -0.17209646414E+03 -0.70312753556E+03  0.72396054800E+03  0.00000000000E+00 0. -1.
         11    1    5    5    0    0 -0.94613916195E+02  0.24877284302E+02  0.11692068585E+03  0.15245038272E+03  0.00000000000E+00 0. -1.
        -12    1    5    5    0    0  0.12598447968E+02  0.12731208536E+02  0.37968828264E+01  0.18309038238E+02  0.00000000000E+00 0.  1.
          5    1    4    4  501    0  0.44932412139E+00  0.11181102021E+03 -0.66418388328E+02  0.13011833399E+03  0.41800000000E+01 0. -1.
         -5    1    4    4    0  501  0.95334830016E+02  0.38875028373E+02 -0.10602923563E+03  0.14785015676E+03  0.41800000000E+01 0. -1.
</event>
<event>
11    1  0.8039394E-009  0.1460947E+03  0.7561462E-02  0.1100937E+00
         22   -1    0    0    0    0  0.00000000000E+00  0.00000000000E+00  0.24876552655E+04  0.24876552655E+04  0.00000000000E+00 0. -1.
         22   -1    0    0    0    0 -0.00000000000E+00 -0.00000000000E+00 -0.62507835974E+03  0.62507835974E+03  0.00000000000E+00 0.  1.
         24    2    1    2    0    0  0.51356841650E+02 -0.53503333750E+02 -0.57325632480E+03  0.58371317319E+03  0.81228829394E+02 0.  0.
         25    2    1    2    0    0 -0.10333668671E+03  0.63005943278E+02  0.12054238403E+03  0.21172080058E+03  0.12508801439E+03 0.  0.
        -24    2    1    2    0    0  0.51979845056E+02 -0.95026095281E+01  0.23152908466E+04  0.23172996515E+04  0.80707910429E+02 0.  0.
        -11    1    3    3    0    0 -0.41758069078E+01 -0.37424035743E+01 -0.31131376186E+03  0.31136425818E+03  0.00000000000E+00 0.  1.
         12    1    3    3    0    0  0.55532648558E+02 -0.49760930175E+02 -0.26194256294E+03  0.27234891501E+03  0.00000000000E+00 0. -1.
         11    1    5    5    0    0  0.44731730819E+02 -0.38403508069E+02  0.19123988041E+04  0.19133073310E+04  0.00000000000E+00 0. -1.
        -12    1    5    5    0    0  0.72481142373E+01  0.28900898541E+02  0.40289204250E+03  0.40399232047E+03  0.00000000000E+00 0.  1.
          5    1    4    4  501    0  0.22106666730E+02  0.38895534073E+02  0.43206616930E+02  0.62336597848E+02  0.41800000000E+01 0. -1.
         -5    1    4    4    0  501 -0.12544335344E+03  0.24110409205E+02  0.77335767096E+02  0.14938420273E+03  0.41800000000E+01 0. -1.
</event>
<event>
11    1  0.8039394E-009  0.1363092E+03  0.7561462E-02  0.1111751E+00
         22   -1    0    0    0    0  0.00000000000E+00  0.00000000000E+00  0.32205765849E+03  0.32205765849E+03  0.00000000000E+00 0.  1.
         22   -1    0    0    0    0 -0.00000000000E+00 -0.00000000000E+00 -0.51619878325E+03  0.51619878325E+03  0.00000000000E+00 0.  1.
        -24    2    1    2    0    0  0.50578056975E+02  0.18780947933E+02 -0.41990558361E+03  0.43105067905E+03  0.81074810612E+02 0.  0.
         25    2    1    2    0    0 -0.48327588526E+02 -0.31115521349E+02 -0.28125054628E+02  0.14050464430E+03  0.12508718916E+03 0.  0.
         24    2    1    2    0    0 -0.22504684490E+01  0.12334573417E+02  0.25388951347E+03  0.26670111838E+03  0.80699412561E+02 0.  0.
        -11    1    5    5    0    0  0.27010576524E+01  0.28353063608E+02  0.24689821125E+03  0.24853554805E+03  0.00000000000E+00 0.  1.
         12    1    5    5    0    0 -0.49515261014E+01 -0.16018490191E+02  0.69913022233E+01  0.18165570333E+02  0.00000000000E+00 0. -1.
         13    1    3    3    0    0  0.44882994877E+01  0.44336310427E+02 -0.18166812390E+03  0.18705389730E+03  0.00000000000E+00 0. -1.
        -14    1    3    3    0    0  0.46089757487E+02 -0.25555362495E+02 -0.23823745971E+03  0.24399678175E+03  0.00000000000E+00 0.  1.
          5    1    4    4  501    0 -0.34554828989E+02  0.28283328236E+02  0.31746187702E+02  0.54947936233E+02  0.41800000000E+01 0.  1.
         -5    1    4    4    0  501 -0.13772759537E+02 -0.59398849586E+02 -0.59871242330E+02  0.85556708069E+02  0.41800000000E+01 0.  1.
</event>
<event>
11    1  0.8039394E-009  0.1383749E+03  0.7561462E-02  0.1109387E+00
         22   -1    0    0    0    0  0.00000000000E+00  0.00000000000E+00  0.17600308957E+04  0.17600308957E+04  0.00000000000E+00 0.  1.
         22   -1    0    0    0    0 -0.00000000000E+00 -0.00000000000E+00 -0.11128650939E+04  0.11128650939E+04  0.00000000000E+00 0.  1.
         24    2    1    2    0    0  0.88256649686E+00 -0.21486804294E+02 -0.10986497825E+04  0.11018777222E+04  0.81490541909E+02 0.  0.
         25    2    1    2    0    0 -0.98324381608E+01  0.76694328710E+02  0.49479568380E+03  0.51618736618E+03  0.12509169197E+03 0.  0.
        -24    2    1    2    0    0  0.89498716639E+01 -0.55207524416E+02  0.12510199005E+04  0.12548309011E+04  0.80136308090E+02 0.  0.
        -13    1    3    3    0    0 -0.11229246534E+02 -0.27091216602E+02 -0.10685460177E+04  0.10689483719E+04  0.00000000000E+00 0.  1.
         14    1    3    3    0    0  0.12111813031E+02  0.56044123083E+01 -0.30103764890E+02  0.32929350325E+02  0.00000000000E+00 0. -1.
         11    1    5    5    0    0 -0.29593439324E+02 -0.45383346968E+02  0.88480970394E+03  0.88646693792E+03  0.00000000000E+00 0. -1.
        -12    1    5    5    0    0  0.38543310988E+02 -0.98241774481E+01  0.36621019660E+03  0.36836396320E+03  0.00000000000E+00 0.  1.
          5    1    4    4  501    0 -0.46277274863E+02  0.13397943227E+02  0.69643185271E+02  0.84786418170E+02  0.41800000000E+01 0.  1.
         -5    1    4    4    0  501  0.36444836702E+02  0.63296385484E+02  0.42515249853E+03  0.43140094801E+03  0.41800000000E+01 0.  1.
</event>
<event>
11    1  0.8039394E-009  0.1659381E+03  0.7561462E-02  0.1081622E+00
         22   -1    0    0    0    0  0.00000000000E+00  0.00000000000E+00  0.14761767211E+03  0.14761767211E+03  0.00000000000E+00 0.  1.
         22   -1    0    0    0    0 -0.00000000000E+00 -0.00000000000E+00 -0.14253515883E+04  0.14253515883E+04  0.00000000000E+00 0.  1.
         24    2    1    2    0    0 -0.10566015457E+03  0.21654744311E+02 -0.10932157914E+04  0.11015914450E+04  0.82158072235E+02 0.  0.
         25    2    1    2    0    0  0.11203510244E+03 -0.28534961701E+02 -0.29141822153E+03  0.33754742432E+03  0.12509026984E+03 0.  0.
        -24    2    1    2    0    0 -0.63749478708E+01  0.68802173906E+01  0.10690009678E+03  0.13383039108E+03  0.79968528392E+02 0.  0.
        -13    1    3    3    0    0 -0.40789622684E+01 -0.26927594339E+00 -0.45127605881E+03  0.45129457309E+03  0.00000000000E+00 0.  1.
         14    1    3    3    0    0 -0.10158119230E+03  0.21924020254E+02 -0.64193973258E+03  0.65029687187E+03  0.00000000000E+00 0. -1.
         13    1    5    5    0    0  0.53196441208E+01 -0.23855265939E+01 -0.12346614325E+02  0.13653872564E+02  0.00000000000E+00 0. -1.
        -14    1    5    5    0    0 -0.11694591992E+02  0.92657439844E+01  0.11924671110E+03  0.12017651852E+03  0.00000000000E+00 0.  1.
          5    1    4    4  501    0  0.11766994647E+03 -0.35599656674E+02 -0.30010356324E+03  0.32433497024E+03  0.41800000000E+01 0. -1.
         -5    1    4    4    0  501 -0.56348440282E+01  0.70646949726E+01  0.86853417047E+01  0.13212454080E+02  0.41800000000E+01 0. -1.
</event>
<event>
11    1  0.8039394E-009  0.1388982E+03  0.7561462E-02  0.1108795E+00
         22   -1    0    0    0    0  0.00000000000E+00  0.00000000000E+00  0.24003503541E+04  0.24003503541E+04  0.00000000000E+00 0. -1.
         22   -1    0    0    0    0 -0.00000000000E+00 -0.00000000000E+00 -0.10672122346E+04  0.10672122346E+04  0.00000000000E+00 0.  1.
         24    2    1    2    0    0  0.17649596627E+02 -0.57683877192E+02 -0.10529795347E+04  0.10576065851E+04  0.78274199729E+02 0.  0.
         25    2    1    2    0    0 -0.37646275369E+02  0.63143931683E+02  0.46947308173E+03  0.49138247673E+03  0.12508943127E+03 0.  0.
        -24    2    1    2    0    0  0.19996678742E+02 -0.54600544908E+01  0.19166445724E+04  0.19185735269E+04  0.83476235276E+02 0.  0.
        -11    1    3    3    0    0 -0.30521771201E+02 -0.30820916435E+02 -0.50414336179E+03  0.50600596502E+03  0.00000000000E+00 0.  1.
         12    1    3    3    0    0  0.48171367829E+02 -0.26862960757E+02 -0.54883617290E+03  0.55160062004E+03  0.00000000000E+00 0. -1.
         11    1    5    5    0    0  0.49467010050E+02 -0.19491714836E+02  0.12503794490E+04  0.12515093601E+04  0.00000000000E+00 0. -1.
        -12    1    5    5    0    0 -0.29470331307E+02  0.14031660345E+02  0.66626512342E+03  0.66706416678E+03  0.00000000000E+00 0.  1.
          5    1    4    4  501    0 -0.30631854758E+02  0.15292958024E+02  0.42226025446E+03  0.42366659059E+03  0.41800000000E+01 0.  1.
         -5    1    4    4    0  501 -0.70144206117E+01  0.47850973659E+02  0.47212827269E+02  0.67715886137E+02  0.41800000000E+01 0.  1.
</event>
<event>
11    1  0.8039394E-009  0.1318429E+03  0.7561462E-02  0.1117025E+00
         22   -1    0    0    0    0  0.00000000000E+00  0.00000000000E+00  0.61986589182E+02  0.61986589182E+02  0.00000000000E+00 0. -1.
         22   -1    0    0    0    0 -0.00000000000E+00 -0.00000000000E+00 -0.13786879539E+04  0.13786879539E+04  0.00000000000E+00 0. -1.
        -24    2    1    2    0    0 -0.32476649238E+02  0.13973127504E+02 -0.99958427911E+03  0.10034377435E+04  0.80427563204E+02 0.  0.
         25    2    1    2    0    0  0.45551212555E+02  0.25741989072E+02 -0.31769465110E+03  0.34542003863E+03  0.12509016260E+03 0.  0.
         24    2    1    2    0    0 -0.13074563317E+02 -0.39715116576E+02  0.57756552256E+00  0.91816760964E+02  0.81741967932E+02 0.  0.
        -11    1    5    5    0    0  0.36409974321E+01  0.11533975928E+02 -0.28218499942E+02  0.30701355052E+02  0.00000000000E+00 0.  1.
         12    1    5    5    0    0 -0.16715560749E+02 -0.51249092503E+02  0.28796065465E+02  0.61115405912E+02  0.00000000000E+00 0. -1.
         11    1    3    3    0    0 -0.29340712774E+02  0.14163334123E+02 -0.99976038687E+03  0.10002911119E+04  0.00000000000E+00 0. -1.
        -12    1    3    3    0    0 -0.31359364640E+01 -0.19020661916E+00  0.17610775515E+00  0.31466315332E+01  0.00000000000E+00 0.  1.
          5    1    4    4  501    0  0.31038580795E+02 -0.79381380966E+01 -0.30451829763E+03  0.30622748656E+03  0.41800000000E+01 0.  1.
         -5    1    4    4    0  501  0.14512631759E+02  0.33680127168E+02 -0.13176353473E+02  0.39192552067E+02  0.41800000000E+01 0.  1.
</event>
<event>
11    1  0.8039394E-009  0.1590096E+03  0.7561462E-02  0.1088012E+00
         22   -1    0    0    0    0  0.00000000000E+00  0.00000000000E+00  0.15494575643E+03  0.15494575643E+03  0.00000000000E+00 0. -1.
         22   -1    0    0    0    0 -0.00000000000E+00 -0.00000000000E+00 -0.13476700060E+04  0.13476700060E+04  0.00000000000E+00 0.  1.
         24    2    1    2    0    0  0.76386407501E+02 -0.62808164851E+02 -0.12129565675E+04  0.12196048135E+04  0.79953222584E+02 0.  0.
         25    2    1    2    0    0 -0.59730178422E+02  0.64547492548E+02 -0.66084910005E+02  0.16657988199E+03  0.12509024241E+03 0.  0.
        -24    2    1    2    0    0 -0.16656229079E+02 -0.17393276975E+01  0.86317227920E+02  0.11643106690E+03  0.76322174201E+02 0.  0.
        -13    1    3    3    0    0  0.51181790383E+02 -0.77731646307E+02 -0.75540297441E+03  0.76111460257E+03  0.00000000000E+00 0.  1.
         14    1    3    3    0    0  0.25204617118E+02  0.14923481456E+02 -0.45755359306E+03  0.45849021096E+03  0.00000000000E+00 0. -1.
         11    1    5    5    0    0  0.20765999082E+01  0.20324786364E+02  0.85039273165E+02  0.87459060070E+02  0.00000000000E+00 0. -1.
        -12    1    5    5    0    0 -0.18732828987E+02 -0.22064114061E+02  0.12779547550E+01  0.28972006826E+02  0.00000000000E+00 0.  1.
          5    1    4    4  501    0 -0.53983343074E+01 -0.36881050715E+02 -0.12088216693E+02  0.39407503067E+02  0.41800000000E+01 0.  1.
         -5    1    4    4    0  501 -0.54331844115E+02  0.10142854326E+03 -0.53996693311E+02  0.12717237893E+03  0.41800000000E+01 0.  1.
</event>
<event>
11    1  0.8039394E-009  0.1466453E+03  0.7561462E-02  0.1100357E+00
         22   -1    0    0    0    0  0.00000000000E+00  0.00000000000E+00  0.11972858667E+04  0.11972858667E+04  0.00000000000E+00 0.  1.
         22   -1    0    0    0    0 -0.00000000000E+00 -0.00000000000E+00 -0.15340392839E+04  0.15340392839E+04  0.00000000000E+00 0.  1.
         24    2    1    2    0    0  0.64890585713E+02  0.16302250059E+02 -0.88965676265E+03  0.89591351238E+03  0.81824903653E+02 0.  0.
         25    2    1    2    0    0 -0.98436922320E+02 -0.57237202854E+02 -0.62806233785E+03  0.65044614449E+03  0.12510779986E+03 0.  0.
        -24    2    1    2    0    0  0.33546336607E+02  0.40934952795E+02  0.11809656833E+04  0.11849654937E+04  0.81622602171E+02 0.  0.
        -13    1    3    3    0    0  0.59949296744E+02  0.33969605081E+02 -0.84251492445E+03  0.84532789506E+03  0.00000000000E+00 0.  1.
         14    1    3    3    0    0  0.49412889687E+01 -0.17667355022E+02 -0.47141838204E+02  0.50585617318E+02  0.00000000000E+00 0. -1.
         11    1    5    5    0    0 -0.18453269469E+02  0.41271837135E+02  0.52698398321E+03  0.52891965955E+03  0.00000000000E+00 0. -1.
        -12    1    5    5    0    0  0.51999606076E+02 -0.33688434006E+00  0.65398170007E+03  0.65604583419E+03  0.00000000000E+00 0.  1.
          5    1    4    4  501    0 -0.10411588024E+03 -0.22541520096E+02 -0.26469370853E+03  0.28535673881E+03  0.41800000000E+01 0. -1.
         -5    1    4    4    0  501  0.56789579244E+01 -0.34695682758E+02 -0.36336862933E+03  0.36508940568E+03  0.41800000000E+01 0. -1.
</event>
<event>
11    1  0.8039394E-009  0.1450050E+03  0.7561462E-02  0.1102095E+00
         22   -1    0    0    0    0  0.00000000000E+00  0.00000000000E+00  0.16304017493E+04  0.16304017493E+04  0.00000000000E+00 0. -1.
         22   -1    0    0    0    0 -0.00000000000E+00 -0.00000000000E+00 -0.16003778119E+04  0.16003778119E+04  0.00000000000E+00 0. -1.
        -24    2    1    2    0    0  0.47471970777E+02 -0.14414074537E+02 -0.14168262225E+04  0.14199847247E+04  0.80614639748E+02 0.  0.
         25    2    1    2    0    0 -0.72664609799E+02  0.82960418528E+02 -0.14153827868E+03  0.21873388428E+03  0.12509536858E+03 0.  0.
         24    2    1    2    0    0  0.25192639022E+02 -0.68546343991E+02  0.15883884386E+04  0.15920609521E+04  0.79667892126E+02 0.  0.
        -11    1    5    5    0    0  0.14350575658E+02  0.93165109673E+01  0.69774598780E+03  0.69795572917E+03  0.00000000000E+00 0.  1.
         12    1    5    5    0    0  0.10842063364E+02 -0.77862854958E+02  0.89064245083E+03  0.89410522297E+03  0.00000000000E+00 0. -1.
         11    1    3    3    0    0  0.52152775860E+02 -0.33034933862E+02 -0.13095141618E+04  0.13109685575E+04  0.00000000000E+00 0. -1.
        -12    1    3    3    0    0 -0.46808050828E+01  0.18620859324E+02 -0.10731206072E+03  0.10901616722E+03  0.00000000000E+00 0.  1.
          5    1    4    4  501    0 -0.97890177737E+01 -0.31448427814E+02 -0.13534335170E+02  0.35853578754E+02  0.41800000000E+01 0.  1.
         -5    1    4    4    0  501 -0.62875592025E+02  0.11440884634E+03 -0.12800394351E+03  0.18288030553E+03  0.41800000000E+01 0.  1.
</event>
<event>
11    1  0.8039394E-009  0.1367178E+03  0.7561462E-02  0.1111280E+00
         22   -1    0    0    0    0  0.00000000000E+00  0.00000000000E+00  0.36713072092E+03  0.36713072092E+03  0.00000000000E+00 0. -1.
         22   -1    0    0    0    0 -0.00000000000E+00 -0.00000000000E+00 -0.73257030671E+02  0.73257030671E+02  0.00000000000E+00 0.  1.
        -24    2    1    2    0    0 -0.37237135911E+02 -0.23196175040E+01  0.30758743118E+02  0.87469608382E+02  0.72889280392E+02 0.  0.
         25    2    1    2    0    0 -0.30061320450E+02 -0.15512765886E+02  0.12799472283E+03  0.18214041445E+03  0.12509257616E+03 0.  0.
         24    2    1    2    0    0  0.67298456361E+02  0.17832383390E+02  0.13512022430E+03  0.17077772876E+03  0.77849094403E+02 0.  0.
        -11    1    5    5    0    0  0.20960891099E+02 -0.23059812206E+02  0.12716781505E+02  0.33657546353E+02  0.00000000000E+00 0.  1.
         12    1    5    5    0    0  0.46337565261E+02  0.40892195596E+02  0.12240344279E+03  0.13712018240E+03  0.00000000000E+00 0. -1.
         13    1    3    3    0    0  0.12644709166E+02 -0.22922606064E+02  0.18693849527E+02  0.32168222655E+02  0.00000000000E+00 0. -1.
        -14    1    3    3    0    0 -0.49881845077E+02  0.20602988560E+02  0.12064893592E+02  0.55301385727E+02  0.00000000000E+00 0.  1.
          5    1    4    4  501    0 -0.19824818072E+02 -0.46562850701E+02  0.84368606819E+00  0.50786875108E+02  0.41800000000E+01 0. -1.
         -5    1    4    4    0  501 -0.10236502378E+02  0.31050084815E+02  0.12715103676E+03  0.13135353934E+03  0.41800000000E+01 0. -1.
</event>
<event>
11    1  0.8039394E-009  0.2296303E+03  0.7561462E-02  0.1035347E+00
         22   -1    0    0    0    0  0.00000000000E+00  0.00000000000E+00  0.36662141878E+03  0.36662141878E+03  0.00000000000E+00 0. -1.
         22   -1    0    0    0    0 -0.00000000000E+00 -0.00000000000E+00 -0.20925385064E+04  0.20925385064E+04  0.00000000000E+00 0.  1.
        -24    2    1    2    0    0 -0.20713269525E+01 -0.79180550257E+02 -0.19078526872E+04  0.19112033809E+04  0.80762844315E+02 0.  0.
         25    2    1    2    0    0  0.63852561046E+02  0.24355948372E+03 -0.23501924710E+01  0.28116211043E+03  0.12509291457E+03 0.  0.
         24    2    1    2    0    0 -0.61781234094E+02 -0.16437893346E+03  0.18428579213E+03  0.26679443381E+03  0.79879046565E+02 0.  0.
        -11    1    5    5    0    0 -0.24052820718E+02 -0.95635440990E+01  0.57862453972E+02  0.63388194010E+02  0.00000000000E+00 0.  1.
         12    1    5    5    0    0 -0.37728413376E+02 -0.15481538936E+03  0.12642333816E+03  0.20340623980E+03  0.00000000000E+00 0. -1.
         13    1    3    3    0    0 -0.15896712334E+02  0.78590779579E+01 -0.13475713769E+03  0.13591893440E+03  0.00000000000E+00 0. -1.
        -14    1    3    3    0    0  0.13825385381E+02 -0.87039628215E+02 -0.17730955496E+04  0.17752844465E+04  0.00000000000E+00 0.  1.
          5    1    4    4  501    0 -0.31116407404E+02  0.45951212957E+02  0.23398198078E+02  0.60371291648E+02  0.41800000000E+01 0.  1.
         -5    1    4    4    0  501  0.94968968450E+02  0.19760827076E+03 -0.25748390549E+02  0.22079081878E+03  0.41800000000E+01 0.  1.
</event>
<event>
11    1  0.8039394E-009  0.2010193E+03  0.7561462E-02  0.1053805E+00
         22   -1    0    0    0    0  0.00000000000E+00  0.00000000000E+00  0.26723103820E+04  0.26723103820E+04  0.00000000000E+00 0.  1.
         22   -1    0    0    0    0 -0.00000000000E+00 -0.00000000000E+00 -0.42702300252E+03  0.42702300252E+03  0.00000000000E+00 0.  1.
        -24    2    1    2    0    0  0.21486964696E+02 -0.13404882521E+02 -0.40612717969E+03  0.41504024051E+03  0.81717407133E+02 0.  0.
         25    2    1    2    0    0 -0.75474582093E+02 -0.13572427720E+03  0.80552628224E+03  0.82984227720E+03  0.12509245252E+03 0.  0.
         24    2    1    2    0    0  0.53987617397E+02  0.14912915972E+03  0.18458882769E+04  0.18544508668E+04  0.80810379254E+02 0.  0.
        -11    1    5    5    0    0  0.64960222763E+02  0.75385178121E+02  0.12414083737E+04  0.12453905033E+04  0.00000000000E+00 0.  1.
         12    1    5    5    0    0 -0.10972605367E+02  0.73743981598E+02  0.60447990323E+03  0.60906036343E+03  0.00000000000E+00 0. -1.
         11    1    3    3    0    0 -0.53856307327E+01  0.11434429260E+02 -0.74181015701E+01  0.14655354714E+02  0.00000000000E+00 0. -1.
        -12    1    3    3    0    0  0.26872595429E+02 -0.24839311781E+02 -0.39870907812E+03  0.40038488579E+03  0.00000000000E+00 0.  1.
          5    1    4    4  501    0  0.24190864503E+02  0.64665704301E+01  0.11978460282E+03  0.12244524462E+03  0.41800000000E+01 0. -1.
         -5    1    4    4    0  501 -0.99665446596E+02 -0.14219084763E+03  0.68574167942E+03  0.70739703257E+03  0.41800000000E+01 0. -1.
</event>
<event>
11    1  0.8039394E-009  0.1762988E+03  0.7561462E-02  0.1072677E+00
         22   -1    0    0    0    0  0.00000000000E+00  0.00000000000E+00  0.45660401446E+04  0.45660401446E+04  0.00000000000E+00 0.  1.
         22   -1    0    0    0    0 -0.00000000000E+00 -0.00000000000E+00 -0.62033075234E+03  0.62033075234E+03  0.00000000000E+00 0.  1.
        -24    2    1    2    0    0 -0.10201177551E+03 -0.10280717523E+02 -0.58722947017E+03  0.60155110379E+03  0.80704301859E+02 0.  0.
         25    2    1    2    0    0  0.19382055652E+03  0.87402707561E+02  0.59314566616E+03  0.64239854203E+03  0.12509382119E+03 0.  0.
         24    2    1    2    0    0 -0.91808781017E+02 -0.77121990039E+02  0.39397931963E+04  0.39424212511E+04  0.79613053376E+02 0.  0.
        -13    1    5    5    0    0 -0.59664344249E+02 -0.73803873242E+02  0.35571908630E+04  0.35584566432E+04  0.00000000000E+00 0.  1.
         14    1    5    5    0    0 -0.32144436768E+02 -0.33181167965E+01  0.38260233325E+03  0.38396460790E+03  0.00000000000E+00 0. -1.
         11    1    3    3    0    0  0.69855977493E+01 -0.14497045286E+02 -0.33306660417E+02  0.36990492374E+02  0.00000000000E+00 0. -1.
        -12    1    3    3    0    0 -0.10899737326E+03  0.42163277630E+01 -0.55392280975E+03  0.56456061141E+03  0.00000000000E+00 0.  1.
          5    1    4    4  501    0  0.20730121038E+03  0.91386708821E+02  0.51143574783E+03  0.55938298055E+03  0.41800000000E+01 0. -1.
         -5    1    4    4    0  501 -0.13480653853E+02 -0.39840012596E+01  0.81709918334E+02  0.83015561484E+02  0.41800000000E+01 0. -1.
</event>
<event>
11    1  0.8039394E-009  0.1602053E+03  0.7561462E-02  0.1086884E+00
         22   -1    0    0    0    0  0.00000000000E+00  0.00000000000E+00  0.90722478588E+03  0.90722478588E+03  0.00000000000E+00 0.  1.
         22   -1    0    0    0    0 -0.00000000000E+00 -0.00000000000E+00 -0.22632040068E+03  0.22632040068E+03  0.00000000000E+00 0. -1.
        -24    2    1    2    0    0  0.91278677877E+02 -0.42929716966E+02 -0.18695857322E+03  0.22638085695E+03  0.78230599258E+02 0.  0.
         25    2    1    2    0    0 -0.60506314034E+02  0.68702574951E+02  0.38026794398E+03  0.41065041307E+03  0.12509594196E+03 0.  0.
         24    2    1    2    0    0 -0.30772363843E+02 -0.25772857985E+02  0.48759501444E+03  0.49651391655E+03  0.84652186188E+02 0.  0.
        -11    1    5    5    0    0 -0.19726933764E+02 -0.80019213499E+01  0.46585263069E+03  0.46633877834E+03  0.00000000000E+00 0.  1.
         12    1    5    5    0    0 -0.11045430079E+02 -0.17770936635E+02  0.21742383758E+02  0.30175138210E+02  0.00000000000E+00 0. -1.
         11    1    3    3    0    0  0.56958315044E+02 -0.56969383290E+02 -0.16413463535E+03  0.18283855941E+03  0.00000000000E+00 0. -1.
        -12    1    3    3    0    0  0.34320362833E+02  0.14039666325E+02 -0.22823937871E+02  0.43542297544E+02  0.00000000000E+00 0.  1.
          5    1    4    4  501    0 -0.22828401076E+02 -0.27311727875E+02  0.19767736317E+03  0.20090017095E+03  0.41800000000E+01 0. -1.
         -5    1    4    4    0  501 -0.37677912958E+02  0.96014302826E+02  0.18259058081E+03  0.20975024212E+03  0.41800000000E+01 0. -1.
</event>
<event>
11    1  0.8039394E-009  0.1859546E+03  0.7561462E-02  0.1064925E+00
         22   -1    0    0    0    0  0.00000000000E+00  0.00000000000E+00  0.25892161723E+03  0.25892161723E+03  0.00000000000E+00 0. -1.
         22   -1    0    0    0    0 -0.00000000000E+00 -0.00000000000E+00 -0.64128023548E+03  0.64128023548E+03  0.00000000000E+00 0. -1.
         24    2    1    2    0    0  0.12362724190E+03  0.51007428628E+02 -0.40480895492E+03  0.43353932462E+03  0.78743909539E+02 0.  0.
         25    2    1    2    0    0 -0.12715388926E+03 -0.82761321175E+02 -0.16719278567E+03  0.25810562518E+03  0.12509012085E+03 0.  0.
        -24    2    1    2    0    0  0.35266473570E+01  0.31753892547E+02  0.18964312234E+03  0.20855690292E+03  0.80689038712E+02 0.  0.
        -11    1    3    3    0    0  0.92831381475E+01  0.18188474385E+02 -0.13333398510E+02  0.24388045640E+02  0.00000000000E+00 0.  1.
         12    1    3    3    0    0  0.11434410376E+03  0.32818954243E+02 -0.39147555641E+03  0.40915127898E+03  0.00000000000E+00 0. -1.
         13    1    5    5    0    0  0.12884036090E+02  0.30791500888E+02  0.19492944036E+03  0.19776653315E+03  0.00000000000E+00 0. -1.
        -14    1    5    5    0    0 -0.93573887332E+01  0.96239165943E+00 -0.52863180175E+01  0.10790369771E+02  0.00000000000E+00 0.  1.
          5    1    4    4  501    0 -0.40654792772E+02 -0.99851161251E+02 -0.83018045153E+02  0.13613425285E+03  0.41800000000E+01 0. -1.
         -5    1    4    4    0  501 -0.86499096489E+02  0.17089840076E+02 -0.84174740517E+02  0.12197137233E+03  0.41800000000E+01 0. -1.
</event>
<event>
11    1  0.8039394E-009  0.1375597E+03  0.7561462E-02  0.1110314E+00
         22   -1    0    0    0    0  0.00000000000E+00  0.00000000000E+00  0.10498193746E+04  0.10498193746E+04  0.00000000000E+00 0.  1.
         22   -1    0    0    0    0 -0.00000000000E+00 -0.00000000000E+00 -0.50465658595E+03  0.50465658595E+03  0.00000000000E+00 0.  1.
        -24    2    1    2    0    0 -0.50890168676E+02  0.25987413043E+02 -0.46384762679E+03  0.47404732602E+03  0.79379414989E+02 0.  0.
         25    2    1    2    0    0  0.76468171724E+02  0.19472024932E+02  0.13230374107E+03  0.19844071040E+03  0.12509154488E+03 0.  0.
         24    2    1    2    0    0 -0.25578003049E+02 -0.45459437975E+02  0.87670667434E+03  0.88198792411E+03  0.81038945495E+02 0.  0.
        -11    1    5    5    0    0  0.10596261865E+02 -0.65436767846E+01  0.60537230003E+03  0.60550038986E+03  0.00000000000E+00 0.  1.
         12    1    5    5    0    0 -0.36174264914E+02 -0.38915761190E+02  0.27133437431E+03  0.27648753425E+03  0.00000000000E+00 0. -1.
         11    1    3    3    0    0  0.16902107469E+02 -0.96283163397E+01 -0.13542646554E+03  0.13681634874E+03  0.00000000000E+00 0. -1.
        -12    1    3    3    0    0 -0.67792276145E+02  0.35615729382E+02 -0.32842116125E+03  0.33723097728E+03  0.00000000000E+00 0.  1.
          5    1    4    4  501    0  0.28813321095E+02  0.43936806470E+02  0.13471181070E+03  0.14465612596E+03  0.41800000000E+01 0.  1.
         -5    1    4    4    0  501  0.47654850630E+02 -0.24464781538E+02 -0.24080696247E+01  0.53784584441E+02  0.41800000000E+01 0.  1.
</event>
<event>
11    1  0.8039394E-009  0.2315947E+03  0.7561462E-02  0.1034188E+00
         22   -1    0    0    0    0  0.00000000000E+00  0.00000000000E+00  0.20519558625E+03  0.20519558625E+03  0.00000000000E+00 0.  1.
         22   -1    0    0    0    0 -0.00000000000E+00 -0.00000000000E+00 -0.12724148215E+04  0.12724148215E+04  0.00000000000E+00 0. -1.
         24    2    1    2    0    0  0.37656008179E+02  0.31788914218E+02 -0.68432463804E+03  0.69067572369E+03  0.79399213122E+02 0.  0.
         25    2    1    2    0    0 -0.17778384677E+03 -0.15944076237E+03 -0.48655261670E+03  0.55624756010E+03  0.12509774748E+03 0.  0.
        -24    2    1    2    0    0  0.14012783859E+03  0.12765184815E+03  0.10365801954E+03  0.23068712392E+03  0.80874956839E+02 0.  0.
        -11    1    3    3    0    0 -0.45750698554E+01 -0.15107003764E+02 -0.36274141610E+02  0.39559653391E+02  0.00000000000E+00 0.  1.
         12    1    3    3    0    0  0.42231078034E+02  0.46895917982E+02 -0.64805049643E+03  0.65111607030E+03  0.00000000000E+00 0. -1.
         11    1    5    5    0    0  0.35991647069E+02  0.15388357649E+02  0.59679654020E+02  0.71371291944E+02  0.00000000000E+00 0. -1.
        -12    1    5    5    0    0  0.10413619152E+03  0.11226349050E+03  0.43978365516E+02  0.15931583198E+03  0.00000000000E+00 0.  1.
          5    1    4    4  501    0 -0.64538393870E+02 -0.40193006436E+02 -0.53665476511E+02  0.93156523222E+02  0.41800000000E+01 0.  1.
         -5    1    4    4    0  501 -0.11324545290E+03 -0.11924775593E+03 -0.43288714019E+03  0.46309103688E+03  0.41800000000E+01 0.  1.
</event>
<event>
11    1  0.8039394E-009  0.2744977E+03  0.7561462E-02  0.1011602E+00
         22   -1    0    0    0    0  0.00000000000E+00  0.00000000000E+00  0.54219902908E+02  0.54219902908E+02  0.00000000000E+00 0.  1.
         22   -1    0    0    0    0 -0.00000000000E+00 -0.00000000000E+00 -0.22160906962E+04  0.22160906962E+04  0.00000000000E+00 0. -1.
         24    2    1    2    0    0 -0.10014833549E+03  0.21875082236E+03 -0.14312008431E+04  0.14535997751E+04  0.82066080509E+02 0.  0.
         25    2    1    2    0    0  0.11557900894E+03 -0.22789396004E+03 -0.58462346608E+03  0.65016864676E+03  0.12506201584E+03 0.  0.
        -24    2    1    2    0    0 -0.15430673448E+02  0.91431376777E+01 -0.14604648412E+03  0.16654217723E+03  0.78006529362E+02 0.  0.
        -13    1    3    3    0    0 -0.63129654056E+02  0.16312733513E+03 -0.12084579351E+04  0.12210513755E+04  0.00000000000E+00 0.  1.
         14    1    3    3    0    0 -0.37018681438E+02  0.55623487235E+02 -0.22274290799E+03  0.23254839962E+03  0.00000000000E+00 0. -1.
         13    1    5    5    0    0  0.25831713765E+02 -0.36606972760E+01 -0.10022439748E+03  0.10356451125E+03  0.00000000000E+00 0. -1.
        -14    1    5    5    0    0 -0.41262387214E+02  0.12803834954E+02 -0.45822086644E+02  0.62977665982E+02  0.00000000000E+00 0.  1.
          5    1    4    4  501    0 -0.15984291865E+02 -0.74151012590E+02 -0.10509478932E+03  0.12967751307E+03  0.41800000000E+01 0.  1.
         -5    1    4    4    0  501  0.13156330081E+03 -0.15374294745E+03 -0.47952867676E+03  0.52049113368E+03  0.41800000000E+01 0.  1.
</event>
<event>
11    1  0.8039394E-009  0.1445014E+03  0.7561462E-02  0.1102633E+00
         22   -1    0    0    0    0  0.00000000000E+00  0.00000000000E+00  0.78604526552E+03  0.78604526552E+03  0.00000000000E+00 0.  1.
         22   -1    0    0    0    0 -0.00000000000E+00 -0.00000000000E+00 -0.82764647819E+03  0.82764647819E+03  0.00000000000E+00 0. -1.
        -24    2    1    2    0    0 -0.28339762845E+02  0.39313620870E+02 -0.80098423400E+03  0.80649230736E+03  0.80656033662E+02 0.  0.
         25    2    1    2    0    0  0.33353510753E+02  0.42154880454E+02  0.24394115210E+03  0.27936365748E+03  0.12508907550E+03 0.  0.
         24    2    1    2    0    0 -0.50137479074E+01 -0.81468501324E+02  0.51544186924E+03  0.52783577887E+03  0.79170919648E+02 0.  0.
        -11    1    5    5    0    0  0.14614337396E+01 -0.57118567255E+02  0.48484335341E+03  0.48819846769E+03  0.00000000000E+00 0.  1.
         12    1    5    5    0    0 -0.64751816470E+01 -0.24349934069E+02  0.30598515830E+02  0.39637311179E+02  0.00000000000E+00 0. -1.
         13    1    3    3    0    0 -0.40589738276E+02  0.55835967999E+02 -0.70248471819E+03  0.70586823236E+03  0.00000000000E+00 0. -1.
        -14    1    3    3    0    0  0.12249975430E+02 -0.16522347129E+02 -0.98499515814E+02  0.10062407499E+03  0.00000000000E+00 0.  1.
          5    1    4    4  501    0  0.47285846159E+02  0.72043913869E+02  0.10206307021E+03  0.13364362863E+03  0.41800000000E+01 0.  1.
         -5    1    4    4    0  501 -0.13932335406E+02 -0.29889033415E+02  0.14187808189E+03  0.14572002885E+03  0.41800000000E+01 0.  1.
</event>
<event>
11    1  0.8039394E-009  0.1003297E+04  0.7561462E-02  0.8675885E-01
         22   -1    0    0    0    0  0.00000000000E+00  0.00000000000E+00  0.24269697287E+03  0.24269697287E+03  0.00000000000E+00 0.  1.
         22   -1    0    0    0    0 -0.00000000000E+00 -0.00000000000E+00 -0.10368937581E+04  0.10368937581E+04  0.00000000000E+00 0.  1.
        -24    2    1    2    0    0 -0.73814723595E+02 -0.21630955546E+03 -0.18509298576E+03  0.30453512727E+03  0.79017676240E+02 0.  0.
         25    2    1    2    0    0  0.19881207309E+03  0.36774771171E+03 -0.62452566855E+03  0.76186876393E+03  0.12508830044E+03 0.  0.
         24    2    1    2    0    0 -0.12499734950E+03 -0.15143815625E+03  0.15421869029E+02  0.21318683982E+03  0.81565569201E+02 0.  0.
        -13    1    5    5    0    0 -0.20130050656E+02 -0.38270165501E+01  0.24439474952E+02  0.31892835104E+02  0.00000000000E+00 0.  1.
         14    1    5    5    0    0 -0.10486729884E+03 -0.14761113970E+03 -0.90176059232E+01  0.18129400472E+03  0.00000000000E+00 0. -1.
         13    1    3    3    0    0 -0.33441239440E+01 -0.19709050898E+02  0.65974629395E+01  0.21051279521E+02  0.00000000000E+00 0. -1.
        -14    1    3    3    0    0 -0.70470599651E+02 -0.19660050456E+03 -0.19169044870E+03  0.28348384774E+03  0.00000000000E+00 0.  1.
          5    1    4    4  501    0  0.19322854932E+03  0.23876556702E+03 -0.43807394957E+03  0.53504441494E+03  0.41800000000E+01 0.  1.
         -5    1    4    4    0  501  0.55835237724E+01  0.12898214469E+03 -0.18645171898E+03  0.22682434899E+03  0.41800000000E+01 0.  1.
</event>
<event>
11    1  0.8039394E-009  0.1723541E+03  0.7561462E-02  0.1076001E+00
         22   -1    0    0    0    0  0.00000000000E+00  0.00000000000E+00  0.72049941143E+03  0.72049941143E+03  0.00000000000E+00 0.  1.
         22   -1    0    0    0    0 -0.00000000000E+00 -0.00000000000E+00 -0.35131451969E+03  0.35131451969E+03  0.00000000000E+00 0.  1.
         24    2    1    2    0    0  0.33886244351E+02  0.11001807809E+03 -0.26600737880E+03  0.29838885010E+03  0.70878242263E+02 0.  0.
         25    2    1    2    0    0 -0.80694517905E+02 -0.13262853188E+03  0.87957922381E+02  0.21791623442E+03  0.12509578899E+03 0.  0.
        -24    2    1    2    0    0  0.46808273554E+02  0.22610453798E+02  0.54723434816E+03  0.55550884661E+03  0.80139876182E+02 0.  0.
        -13    1    3    3    0    0 -0.16599090672E+02  0.66001429996E+02 -0.14114896039E+03  0.15669954560E+03  0.00000000000E+00 0.  1.
         14    1    3    3    0    0  0.50485335023E+02  0.44016648090E+02 -0.12485841841E+03  0.14168930450E+03  0.00000000000E+00 0. -1.
         11    1    5    5    0    0 -0.88520163408E+01  0.23427683600E+02  0.58782061848E+02  0.63894799063E+02  0.00000000000E+00 0. -1.
        -12    1    5    5    0    0  0.55660289894E+02 -0.81722980262E+00  0.48845228632E+03  0.49161404754E+03  0.00000000000E+00 0.  1.
          5    1    4    4  501    0 -0.19066555764E+02 -0.47911159961E+02 -0.30235290310E+02  0.59922099242E+02  0.41800000000E+01 0.  1.
         -5    1    4    4    0  501 -0.61627962140E+02 -0.84717371923E+02  0.11819321269E+03  0.15799413517E+03  0.41800000000E+01 0.  1.
</event>
<event>
11    1  0.8660112E-009  0.1482024E+03  0.7561462E-02  0.1098730E+00
         22   -1    0    0    0    0  0.00000000000E+00  0.00000000000E+00  0.15163407299E+04  0.15163407299E+04  0.00000000000E+00 0.  1.
         22   -1    0    0    0    0 -0.00000000000E+00 -0.00000000000E+00 -0.12351081502E+04  0.12351081502E+04  0.00000000000E+00 0.  1.
         24    2    1    2    0    0  0.91679188107E+01  0.19617573122E+02 -0.11433945344E+04  0.11463760632E+04  0.79737802807E+02 0.  0.
         25    2    1    2    0    0  0.65860728927E+02  0.76898415695E+01 -0.31147532000E+02  0.14496348080E+03  0.12508985866E+03 0.  0.
        -24    2    1    2    0    0 -0.75028647738E+02 -0.27307414692E+02  0.14557746461E+04  0.14601093361E+04  0.79148342242E+02 0.  0.
        -13    1    3    3    0    0 -0.20719289124E+02 -0.97108614905E+01 -0.81519330724E+03  0.81551438856E+03  0.00000000000E+00 0.  1.
         14    1    3    3    0    0  0.29887207935E+02  0.29328434613E+02 -0.32820122714E+03  0.33086167468E+03  0.00000000000E+00 0. -1.
         13    1    5    5    0    0 -0.50789561481E+02 -0.53551918110E+02  0.11229295685E+04  0.11253524796E+04  0.00000000000E+00 0. -1.
        -14    1    5    5    0    0 -0.24239086257E+02  0.26244503418E+02  0.33284507763E+03  0.33475685649E+03  0.00000000000E+00 0.  1.
          5    1    4    4  501    0 -0.10036867707E+02 -0.45106207573E+02  0.25561051591E+01  0.46468427438E+02  0.41800000000E+01 0.  1.
         -5    1    4    4    0  501  0.75897596634E+02  0.52796049142E+02 -0.33703637159E+02  0.98495053366E+02  0.41800000000E+01 0.  1.
</event>
<event>
11    1  0.8039394E-009  0.1271891E+03  0.7561462E-02  0.1122772E+00
         22   -1    0    0    0    0  0.00000000000E+00  0.00000000000E+00  0.19416527217E+03  0.19416527217E+03  0.00000000000E+00 0.  1.
         22   -1    0    0    0    0 -0.00000000000E+00 -0.00000000000E+00 -0.48339008042E+03  0.48339008042E+03  0.00000000000E+00 0.  1.
         24    2    1    2    0    0 -0.51935746091E+00  0.10008665021E+02 -0.25243696624E+03  0.26462402454E+03  0.78746487739E+02 0.  0.
         25    2    1    2    0    0 -0.12621981497E+02  0.93262957246E+01 -0.19638891525E+03  0.23337311430E+03  0.12509240678E+03 0.  0.
        -24    2    1    2    0    0  0.13141338958E+02 -0.19334960745E+02  0.15960107324E+03  0.17955821375E+03  0.78880378106E+02 0.  0.
        -11    1    3    3    0    0  0.12417637286E+01  0.40949762352E+02 -0.19601846563E+03  0.20025399842E+03  0.00000000000E+00 0.  1.
         12    1    3    3    0    0 -0.17611211895E+01 -0.30941097331E+02 -0.56418500606E+02  0.64370026119E+02  0.00000000000E+00 0. -1.
         13    1    5    5    0    0  0.40817880160E+02 -0.12813126134E+02  0.47583293664E+02  0.63987853363E+02  0.00000000000E+00 0. -1.
        -14    1    5    5    0    0 -0.27676541202E+02 -0.65218346115E+01  0.11201777957E+03  0.11557036039E+03  0.00000000000E+00 0.  1.
          5    1    4    4  501    0  0.38633758780E+02 -0.39055475109E+02 -0.77266096974E+02  0.94896889281E+02  0.41800000000E+01 0. -1.
         -5    1    4    4    0  501 -0.51255740277E+02  0.48381770834E+02 -0.11912281828E+03  0.13847622502E+03  0.41800000000E+01 0. -1.
</event>
<event>
11    1  0.8039394E-009  0.1575636E+03  0.7561462E-02  0.1089391E+00
         22   -1    0    0    0    0  0.00000000000E+00  0.00000000000E+00  0.24893747606E+03  0.24893747606E+03  0.00000000000E+00 0. -1.
         22   -1    0    0    0    0 -0.00000000000E+00 -0.00000000000E+00 -0.56814013578E+03  0.56814013578E+03  0.00000000000E+00 0. -1.
         24    2    1    2    0    0  0.47261389376E+02  0.75518468232E+02 -0.38246594659E+03  0.40092007524E+03  0.80746693161E+02 0.  0.
         25    2    1    2    0    0 -0.54729075984E+02 -0.12199912410E+03 -0.11432171552E+03  0.21586460131E+03  0.12509601680E+03 0.  0.
        -24    2    1    2    0    0  0.74676866080E+01  0.46480655865E+02  0.17758500239E+03  0.20029293528E+03  0.79778500468E+02 0.  0.
        -13    1    3    3    0    0 -0.97900328648E+00 -0.53023823705E+01 -0.15034933682E+03  0.15044599293E+03  0.00000000000E+00 0.  1.
         14    1    3    3    0    0  0.48240392663E+02  0.80820850603E+02 -0.23211660977E+03  0.25047408231E+03  0.00000000000E+00 0. -1.
         13    1    5    5    0    0 -0.22932259694E+02  0.34249915531E+00  0.11297367508E+03  0.11527817270E+03  0.00000000000E+00 0. -1.
        -14    1    5    5    0    0  0.30399946302E+02  0.46138156710E+02  0.64611327312E+02  0.85014762581E+02  0.00000000000E+00 0.  1.
          5    1    4    4  501    0 -0.65371148116E+02 -0.12933635116E+02 -0.72330234234E+02  0.98436787370E+02  0.41800000000E+01 0. -1.
         -5    1    4    4    0  501  0.10642072132E+02 -0.10906548898E+03 -0.41991481286E+02  0.11742781394E+03  0.41800000000E+01 0. -1.
</event>
<event>
11    1  0.8039394E-009  0.1353359E+03  0.7561462E-02  0.1112881E+00
         22   -1    0    0    0    0  0.00000000000E+00  0.00000000000E+00  0.87364208813E+03  0.87364208813E+03  0.00000000000E+00 0.  1.
         22   -1    0    0    0    0 -0.00000000000E+00 -0.00000000000E+00 -0.27730437286E+03  0.27730437286E+03  0.00000000000E+00 0.  1.
         24    2    1    2    0    0 -0.38153996360E+02 -0.20334953536E+02 -0.19468032186E+03  0.21516792280E+03  0.80793375399E+02 0.  0.
         25    2    1    2    0    0  0.61305496157E+02  0.64772252638E+02  0.15937668388E+02  0.15445149599E+03  0.12508975485E+03 0.  0.
        -24    2    1    2    0    0 -0.23151499797E+02 -0.44437299102E+02  0.77508036875E+03  0.78132704220E+03  0.84921748403E+02 0.  0.
        -11    1    3    3    0    0 -0.57186275717E+02  0.76587773874E+01 -0.12715812251E+03  0.13963565133E+03  0.00000000000E+00 0.  1.
         12    1    3    3    0    0  0.19032279357E+02 -0.27993730923E+02 -0.67522199355E+02  0.75532271475E+02  0.00000000000E+00 0. -1.
         13    1    5    5    0    0 -0.12095064883E+02 -0.13248088843E+02  0.26413516069E+02  0.31929238695E+02  0.00000000000E+00 0. -1.
        -14    1    5    5    0    0 -0.11056434914E+02 -0.31189210259E+02  0.74866685268E+03  0.74939780350E+03  0.00000000000E+00 0.  1.
          5    1    4    4  501    0 -0.32140916146E+02  0.37638441388E+02  0.26821221735E+02  0.56449456119E+02  0.41800000000E+01 0.  1.
         -5    1    4    4    0  501  0.93446412302E+02  0.27133811250E+02 -0.10883553347E+02  0.98002039869E+02  0.41800000000E+01 0.  1.
</event>
<event>
11    1  0.8039394E-009  0.1515753E+03  0.7561462E-02  0.1095280E+00
         22   -1    0    0    0    0  0.00000000000E+00  0.00000000000E+00  0.50222988335E+03  0.50222988335E+03  0.00000000000E+00 0. -1.
         22   -1    0    0    0    0 -0.00000000000E+00 -0.00000000000E+00 -0.23175309664E+03  0.23175309664E+03  0.00000000000E+00 0. -1.
         24    2    1    2    0    0 -0.29208105863E+02 -0.76893544998E+02 -0.16273612970E+03  0.19931261706E+03  0.80478200158E+02 0.  0.
         25    2    1    2    0    0  0.10094746393E+03  0.94448671127E+02  0.17933307430E+03  0.25868357620E+03  0.12508356848E+03 0.  0.
        -24    2    1    2    0    0 -0.71739358067E+02 -0.17555126129E+02  0.25387984211E+03  0.27598678673E+03  0.79113932241E+02 0.  0.
        -11    1    3    3    0    0 -0.79181276684E+01  0.16572028324E+02 -0.35915326591E+02  0.40339057409E+02  0.00000000000E+00 0.  1.
         12    1    3    3    0    0 -0.21289978195E+02 -0.93465573322E+02 -0.12682080310E+03  0.15897355965E+03  0.00000000000E+00 0. -1.
         11    1    5    5    0    0 -0.29263744910E+01 -0.36348556065E+02  0.97850634474E+02  0.10442474737E+03  0.00000000000E+00 0. -1.
        -12    1    5    5    0    0 -0.68812983576E+02  0.18793429937E+02  0.15602920763E+03  0.17156203937E+03  0.00000000000E+00 0.  1.
          5    1    4    4  501    0  0.64321941271E+02 -0.17498493711E+02  0.48185720083E+02  0.82358031976E+02  0.41800000000E+01 0. -1.
         -5    1    4    4    0  501  0.36625522660E+02  0.11194716484E+03  0.13114735422E+03  0.17632554422E+03  0.41800000000E+01 0. -1.
</event>
<event>
11    1  0.8039394E-009  0.1492080E+03  0.7561462E-02  0.1097691E+00
         22   -1    0    0    0    0  0.00000000000E+00  0.00000000000E+00  0.59723338388E+03  0.59723338388E+03  0.00000000000E+00 0.  1.
         22   -1    0    0    0    0 -0.00000000000E+00 -0.00000000000E+00 -0.60889256661E+03  0.60889256661E+03  0.00000000000E+00 0. -1.
         24    2    1    2    0    0 -0.45729537831E+02  0.66856305067E+02 -0.55751860536E+03  0.56916643883E+03  0.81009157606E+02 0.  0.
         25    2    1    2    0    0  0.95984527673E+02 -0.44868863757E+02  0.12806431182E+03  0.20801424822E+03  0.12507283883E+03 0.  0.
        -24    2    1    2    0    0 -0.50254989843E+02 -0.21987441310E+02  0.41779511081E+03  0.42894526344E+03  0.80201451551E+02 0.  0.
        -11    1    3    3    0    0 -0.33108134924E+01  0.57163381002E+02 -0.17381247754E+03  0.18300106820E+03  0.00000000000E+00 0.  1.
         12    1    3    3    0    0 -0.42418724338E+02  0.96929240649E+01 -0.38370612782E+03  0.38616537063E+03  0.00000000000E+00 0. -1.
         13    1    5    5    0    0 -0.54892808321E+02 -0.39900985648E+02  0.21857203897E+03  0.22886468771E+03  0.00000000000E+00 0. -1.
        -14    1    5    5    0    0  0.46378184777E+01  0.17913544338E+02  0.19922307184E+03  0.20008057573E+03  0.00000000000E+00 0.  1.
          5    1    4    4  501    0  0.12265198793E+03 -0.54963971710E+02  0.11211258911E+03  0.17507499355E+03  0.41800000000E+01 0. -1.
         -5    1    4    4    0  501 -0.26667460255E+02  0.10095107953E+02  0.15951722709E+02  0.32939254673E+02  0.41800000000E+01 0. -1.
</event>
<event>
11    1  0.8039394E-009  0.1670787E+03  0.7561462E-02  0.1080602E+00
         22   -1    0    0    0    0  0.00000000000E+00  0.00000000000E+00  0.51060248323E+03  0.51060248323E+03  0.00000000000E+00 0.  1.
         22   -1    0    0    0    0 -0.00000000000E+00 -0.00000000000E+00 -0.25212728776E+03  0.25212728776E+03  0.00000000000E+00 0.  1.
        -24    2    1    2    0    0 -0.44745339955E+02  0.84340704388E+02 -0.78189310365E+02  0.14739494547E+03  0.80599018789E+02 0.  0.
         25    2    1    2    0    0  0.48890170200E+02 -0.13173447105E+03 -0.68293737648E+02  0.20015133722E+03  0.12510916666E+03 0.  0.
         24    2    1    2    0    0 -0.41448302452E+01  0.47393766666E+02  0.40495824349E+03  0.41518348830E+03  0.78248330675E+02 0.  0.
        -13    1    5    5    0    0 -0.25302294595E+01 -0.20042750301E+02  0.51010317981E+02  0.54864983744E+02  0.00000000000E+00 0.  1.
         14    1    5    5    0    0 -0.16146007856E+01  0.67436516966E+02  0.35394792550E+03  0.36031850456E+03  0.00000000000E+00 0. -1.
         13    1    3    3    0    0 -0.89982958783E+01 -0.48179401849E+01  0.11916360887E+02  0.15690173139E+02  0.00000000000E+00 0. -1.
        -14    1    3    3    0    0 -0.35747044076E+02  0.89158644573E+02 -0.90105671252E+02  0.13170477233E+03  0.00000000000E+00 0.  1.
          5    1    4    4  501    0 -0.31733018542E+01  0.23331941287E+02 -0.14210434960E+02  0.27818306754E+02  0.41800000000E+01 0. -1.
         -5    1    4    4    0  501  0.52063472054E+02 -0.15506641234E+03 -0.54083302688E+02  0.17233303046E+03  0.41800000000E+01 0. -1.
</event>
<event>
11    1  0.8039394E-009  0.1306263E+03  0.7561462E-02  0.1118502E+00
         22   -1    0    0    0    0  0.00000000000E+00  0.00000000000E+00  0.65378030443E+02  0.65378030443E+02  0.00000000000E+00 0.  1.
         22   -1    0    0    0    0 -0.00000000000E+00 -0.00000000000E+00 -0.20461792486E+04  0.20461792486E+04  0.00000000000E+00 0.  1.
        -24    2    1    2    0    0  0.32135773848E+02  0.19808894777E+02 -0.16584002304E+04  0.16607946865E+04  0.80762405157E+02 0.  0.
         25    2    1    2    0    0 -0.30464078394E+02 -0.21582312109E+02 -0.34402433002E+03  0.36795115704E+03  0.12506581488E+03 0.  0.
         24    2    1    2    0    0 -0.16716954546E+01  0.17734173326E+01  0.21623342263E+02  0.82811435551E+02  0.79901347628E+02 0.  0.
        -11    1    5    5    0    0 -0.21815214058E+02  0.84919866081E+01  0.45310007132E+02  0.51000138698E+02  0.00000000000E+00 0.  1.
         12    1    5    5    0    0  0.20143518604E+02 -0.67185692755E+01 -0.23686664869E+02  0.31811296853E+02  0.00000000000E+00 0. -1.
         11    1    3    3    0    0 -0.42511237965E+01 -0.26546311038E+02 -0.33233139599E+03  0.33341705931E+03  0.00000000000E+00 0. -1.
        -12    1    3    3    0    0  0.36386897645E+02  0.46355205815E+02 -0.13260688344E+04  0.13273776271E+04  0.00000000000E+00 0.  1.
          5    1    4    4  501    0  0.42916315213E+01  0.49636046284E+02 -0.15757578564E+03  0.16531713708E+03  0.41800000000E+01 0.  1.
         -5    1    4    4    0  501 -0.34755709915E+02 -0.71218358393E+02 -0.18644854438E+03  0.20263401996E+03  0.41800000000E+01 0.  1.
</event>
<event>
11    1  0.8039394E-009  0.1354759E+03  0.7561462E-02  0.1112718E+00
         22   -1    0    0    0    0  0.00000000000E+00  0.00000000000E+00  0.11816213587E+03  0.11816213587E+03  0.00000000000E+00 0. -1.
         22   -1    0    0    0    0 -0.00000000000E+00 -0.00000000000E+00 -0.10538544327E+04  0.10538544327E+04  0.00000000000E+00 0. -1.
         24    2    1    2    0    0 -0.20543699701E+02  0.45817740053E+02 -0.88155517924E+03  0.88690850461E+03  0.83341781817E+02 0.  0.
         25    2    1    2    0    0  0.55228561998E+02 -0.59864135646E+02 -0.10784165298E+03  0.18415296764E+03  0.12509430274E+03 0.  0.
        -24    2    1    2    0    0 -0.34684862297E+02  0.14046395593E+02  0.53704535371E+02  0.10095509634E+03  0.76859699816E+02 0.  0.
        -11    1    3    3    0    0 -0.31553028711E+02 -0.24324976971E+01 -0.13276608592E+03  0.13648569242E+03  0.00000000000E+00 0.  1.
         12    1    3    3    0    0  0.11009329010E+02  0.48250237750E+02 -0.74878909332E+03  0.75042281218E+03  0.00000000000E+00 0. -1.
         13    1    5    5    0    0 -0.54918698366E+02 -0.22168340793E+01  0.20171568702E+02  0.58548014206E+02  0.00000000000E+00 0. -1.
        -14    1    5    5    0    0  0.20233836069E+02  0.16263229672E+02  0.33532966669E+02  0.42407082133E+02  0.00000000000E+00 0.  1.
          5    1    4    4  501    0  0.14624412015E+02 -0.48577033464E+02 -0.12763082514E+03  0.13740706508E+03  0.41800000000E+01 0. -1.
         -5    1    4    4    0  501  0.40604149983E+02 -0.11287102182E+02  0.19789172166E+02  0.46745902564E+02  0.41800000000E+01 0. -1.
</event>
<event>
11    1  0.8039394E-009  0.1272305E+03  0.7561462E-02  0.1122719E+00
         22   -1    0    0    0    0  0.00000000000E+00  0.00000000000E+00  0.52017629706E+03  0.52017629706E+03  0.00000000000E+00 0. -1.
         22   -1    0    0    0    0 -0.00000000000E+00 -0.00000000000E+00 -0.40310706024E+03  0.40310706024E+03  0.00000000000E+00 0. -1.
         24    2    1    2    0    0  0.11563205473E+02 -0.20073081235E+02 -0.30847731744E+03  0.31931331162E+03  0.79158696891E+02 0.  0.
         25    2    1    2    0    0 -0.16356500144E+02  0.18283305256E+02 -0.38447094251E+02  0.13314160210E+03  0.12508674113E+03 0.  0.
        -24    2    1    2    0    0  0.47932946705E+01  0.17897759788E+01  0.46399364851E+03  0.47082844358E+03  0.79769282619E+02 0.  0.
        -13    1    3    3    0    0 -0.18966908548E+02  0.21599829207E+02 -0.78290030014E+02  0.83400389935E+02  0.00000000000E+00 0.  1.
         14    1    3    3    0    0  0.30530114021E+02 -0.41672910442E+02 -0.23018728743E+03  0.23591292169E+03  0.00000000000E+00 0. -1.
         11    1    5    5    0    0  0.14728040358E+02  0.27303019261E+02  0.40028997707E+03  0.40149026860E+03  0.00000000000E+00 0. -1.
        -12    1    5    5    0    0 -0.99347456873E+01 -0.25513243282E+02  0.63703671443E+02  0.69338174983E+02  0.00000000000E+00 0.  1.
          5    1    4    4  501    0  0.37075372205E+02  0.51833583125E+02 -0.14222393668E+02  0.65429751989E+02  0.41800000000E+01 0.  1.
         -5    1    4    4    0  501 -0.53431872349E+02 -0.33550277869E+02 -0.24224700582E+02  0.67711850116E+02  0.41800000000E+01 0.  1.
</event>
<event>
11    1  0.8039394E-009  0.1796642E+03  0.7561462E-02  0.1069915E+00
         22   -1    0    0    0    0  0.00000000000E+00  0.00000000000E+00  0.19896295002E+04  0.19896295002E+04  0.00000000000E+00 0.  1.
         22   -1    0    0    0    0 -0.00000000000E+00 -0.00000000000E+00 -0.11990290322E+03  0.11990290322E+03  0.00000000000E+00 0. -1.
         24    2    1    2    0    0 -0.72238855470E+02  0.96156788621E+02 -0.22900959472E+02  0.14760720142E+03  0.82455149806E+02 0.  0.
         25    2    1    2    0    0  0.13751383094E+03 -0.12335199747E+03  0.34685728494E+03  0.41241072616E+03  0.12508741725E+03 0.  0.
        -24    2    1    2    0    0 -0.65274975471E+02  0.27195208850E+02  0.15457702715E+04  0.15495144759E+04  0.81172512110E+02 0.  0.
        -13    1    3    3    0    0 -0.44614282242E+02  0.39378716542E+02  0.28696147459E+02  0.66065016275E+02  0.00000000000E+00 0.  1.
         14    1    3    3    0    0 -0.27624573228E+02  0.56778072078E+02 -0.51597106930E+02  0.81542185147E+02  0.00000000000E+00 0. -1.
         11    1    5    5    0    0  0.10626096113E+02  0.19692897166E+02  0.14979160340E+03  0.15145378360E+03  0.00000000000E+00 0. -1.
        -12    1    5    5    0    0 -0.75901071585E+02  0.75023116835E+01  0.13959786681E+04  0.13980606923E+04  0.00000000000E+00 0.  1.
          5    1    4    4  501    0  0.13399115680E+03 -0.45200057119E+02  0.25558783209E+03  0.29212888863E+03  0.41800000000E+01 0.  1.
         -5    1    4    4    0  501  0.35226741435E+01 -0.78151940352E+02  0.91269452854E+02  0.12028183752E+03  0.41800000000E+01 0.  1.
</event>
<event>
11    1  0.8039394E-009  0.1277709E+03  0.7561462E-02  0.1122038E+00
         22   -1    0    0    0    0  0.00000000000E+00  0.00000000000E+00  0.81414039769E+03  0.81414039769E+03  0.00000000000E+00 0. -1.
         22   -1    0    0    0    0 -0.00000000000E+00 -0.00000000000E+00 -0.16468176360E+03  0.16468176360E+03  0.00000000000E+00 0.  1.
        -24    2    1    2    0    0  0.19189645998E+02 -0.17424556262E+02 -0.13418312716E+03  0.16044037806E+03  0.84048471864E+02 0.  0.
         25    2    1    2    0    0 -0.36054291648E+02  0.30805427665E+01  0.29362740019E+03  0.32120577392E+03  0.12508675934E+03 0.  0.
         24    2    1    2    0    0  0.16864645649E+02  0.14344013495E+02  0.49001436106E+03  0.49717600930E+03  0.81115616163E+02 0.  0.
        -13    1    5    5    0    0  0.79642204652E+01 -0.15255386846E+02  0.21028174713E+02  0.27172408196E+02  0.00000000000E+00 0.  1.
         14    1    5    5    0    0  0.89004251840E+01  0.29599400341E+02  0.46898618635E+03  0.47000360111E+03  0.00000000000E+00 0. -1.
         13    1    3    3    0    0  0.22468923924E+02  0.21572718022E+02 -0.14193367068E+02  0.34229904672E+02  0.00000000000E+00 0. -1.
        -14    1    3    3    0    0 -0.32792779252E+01 -0.38997274284E+02 -0.11998976010E+03  0.12621047339E+03  0.00000000000E+00 0.  1.
          5    1    4    4  501    0 -0.24694800432E+02  0.18113508418E+02  0.29945412203E+03  0.30104513940E+03  0.41800000000E+01 0.  1.
         -5    1    4    4    0  501 -0.11359491215E+02 -0.15032965651E+02 -0.58267218327E+01  0.20160634520E+02  0.41800000000E+01 0.  1.
</event>
<event>
11    1  0.8039394E-009  0.1544034E+03  0.7561462E-02  0.1092462E+00
         22   -1    0    0    0    0  0.00000000000E+00  0.00000000000E+00  0.48383389357E+03  0.48383389357E+03  0.00000000000E+00 0.  1.
         22   -1    0    0    0    0 -0.00000000000E+00 -0.00000000000E+00 -0.61700806479E+03  0.61700806479E+03  0.00000000000E+00 0. -1.
        -24    2    1    2    0    0 -0.58281828510E+02  0.63531266528E+02 -0.28950682720E+03  0.31262277129E+03  0.80534469495E+02 0.  0.
         25    2    1    2    0    0  0.10114367589E+03 -0.34084691244E+02 -0.28896985519E+03  0.33247854301E+03  0.12508635018E+03 0.  0.
         24    2    1    2    0    0 -0.42861847380E+02 -0.29446575284E+02  0.44530251117E+03  0.45574064406E+03  0.81859449279E+02 0.  0.
        -11    1    5    5    0    0 -0.57945876139E+02 -0.16248800879E+01  0.19466093901E+03  0.20310895099E+03  0.00000000000E+00 0.  1.
         12    1    5    5    0    0  0.15084028758E+02 -0.27821695196E+02  0.25064157216E+03  0.25263169306E+03  0.00000000000E+00 0. -1.
         11    1    3    3    0    0 -0.70292208072E+02  0.20905959525E+02 -0.19207642103E+03  0.20560010986E+03  0.00000000000E+00 0. -1.
        -12    1    3    3    0    0  0.12010379563E+02  0.42625307003E+02 -0.97430406171E+02  0.10702266144E+03  0.00000000000E+00 0.  1.
          5    1    4    4  501    0  0.62239530711E+02  0.80820831824E+00 -0.31805736330E+02  0.70024921616E+02  0.41800000000E+01 0. -1.
         -5    1    4    4    0  501  0.38904145178E+02 -0.34892899562E+02 -0.25716411886E+03  0.26245362139E+03  0.41800000000E+01 0. -1.
</event>
<event>
11    1  0.8039394E-009  0.1840096E+03  0.7561462E-02  0.1066445E+00
         22   -1    0    0    0    0  0.00000000000E+00  0.00000000000E+00  0.18038614765E+03  0.18038614765E+03  0.00000000000E+00 0.  1.
         22   -1    0    0    0    0 -0.00000000000E+00 -0.00000000000E+00 -0.15418534144E+04  0.15418534144E+04  0.00000000000E+00 0.  1.
        -24    2    1    2    0    0  0.68139502187E+02  0.25954698621E+02 -0.13692252991E+04  0.13735309735E+04  0.80577771386E+02 0.  0.
         25    2    1    2    0    0  0.28383789515E+02 -0.13205965398E+03 -0.33762018253E+01  0.18413471658E+03  0.12509517735E+03 0.  0.
         24    2    1    2    0    0 -0.96523291702E+02  0.10610495536E+03  0.11134234140E+02  0.16457387204E+03  0.79909829158E+02 0.  0.
        -13    1    5    5    0    0 -0.36423021724E+02  0.87441040616E+02  0.29162006100E+02  0.99111022068E+02  0.00000000000E+00 0.  1.
         14    1    5    5    0    0 -0.60100269978E+02  0.18663914745E+02 -0.18027771960E+02  0.65462849975E+02  0.00000000000E+00 0. -1.
         13    1    3    3    0    0  0.77603582840E+02  0.12934108262E+02 -0.75365797518E+03  0.75775322551E+03  0.00000000000E+00 0. -1.
        -14    1    3    3    0    0 -0.94640806529E+01  0.13020590359E+02 -0.61556732391E+03  0.61577774794E+03  0.00000000000E+00 0.  1.
          5    1    4    4  501    0  0.39715508882E+02 -0.10543271959E+03  0.49955402344E+02  0.12331421098E+03  0.41800000000E+01 0.  1.
         -5    1    4    4    0  501 -0.11331719367E+02 -0.26626934394E+02 -0.53331604169E+02  0.60820505607E+02  0.41800000000E+01 0.  1.
</event>
<event>
11    1  0.8039394E-009  0.1749722E+03  0.7561462E-02  0.1073784E+00
         22   -1    0    0    0    0  0.00000000000E+00  0.00000000000E+00  0.30162244078E+04  0.30162244078E+04  0.00000000000E+00 0.  1.
         22   -1    0    0    0    0 -0.00000000000E+00 -0.00000000000E+00 -0.11138673694E+04  0.11138673694E+04  0.00000000000E+00 0. -1.
         24    2    1    2    0    0 -0.18007932655E+02  0.12061416420E+03 -0.10612117935E+04  0.10710281211E+04  0.77837673251E+02 0.  0.
         25    2    1    2    0    0  0.13893094595E+02 -0.13615317477E+03  0.13509060856E+03  0.22940963426E+03  0.12509437514E+03 0.  0.
        -24    2    1    2    0    0  0.41148380599E+01  0.15539010567E+02  0.28284782233E+04  0.28296540219E+04  0.79965186820E+02 0.  0.
        -11    1    3    3    0    0 -0.30423067394E+02  0.82191247386E+01 -0.24654525121E+03  0.24855115758E+03  0.00000000000E+00 0.  1.
         12    1    3    3    0    0  0.12415134738E+02  0.11239503947E+03 -0.81466654227E+03  0.82247696355E+03  0.00000000000E+00 0. -1.
         11    1    5    5    0    0 -0.32420795799E+02 -0.12373121776E+02  0.14267799444E+04  0.14272018820E+04  0.00000000000E+00 0. -1.
        -12    1    5    5    0    0  0.36535633859E+02  0.27912132343E+02  0.14016982788E+04  0.14024521399E+04  0.00000000000E+00 0.  1.
          5    1    4    4  501    0  0.60774837284E+02 -0.10934793192E+03  0.11947444062E+03  0.17303804618E+03  0.41800000000E+01 0. -1.
         -5    1    4    4    0  501 -0.46881742689E+02 -0.26805242853E+02  0.15616167932E+02  0.56371588082E+02  0.41800000000E+01 0. -1.
</event>
<event>
11    1  0.8039394E-009  0.1612335E+03  0.7561462E-02  0.1085923E+00
         22   -1    0    0    0    0  0.00000000000E+00  0.00000000000E+00  0.88176152705E+03  0.88176152705E+03  0.00000000000E+00 0.  1.
         22   -1    0    0    0    0 -0.00000000000E+00 -0.00000000000E+00 -0.42492716299E+03  0.42492716299E+03  0.00000000000E+00 0. -1.
        -24    2    1    2    0    0  0.10161643357E+03 -0.24217828489E+02 -0.29403931511E+03  0.32220001897E+03  0.80257900610E+02 0.  0.
         25    2    1    2    0    0 -0.69425907275E+02  0.81356432271E+02 -0.53768530232E+02  0.17314011861E+03  0.12509044790E+03 0.  0.
         24    2    1    2    0    0 -0.32190526292E+02 -0.57138603781E+02  0.80464220940E+03  0.81134855246E+03  0.80847624636E+02 0.  0.
        -11    1    5    5    0    0 -0.65743337663E+01 -0.70586733408E+02  0.66316497028E+03  0.66694339086E+03  0.00000000000E+00 0.  1.
         12    1    5    5    0    0 -0.25616192526E+02  0.13448129626E+02  0.14147723912E+03  0.14440516160E+03  0.00000000000E+00 0. -1.
         11    1    3    3    0    0  0.56850242920E+02 -0.21365318684E+02 -0.25684777869E+03  0.26393030971E+03  0.00000000000E+00 0. -1.
        -12    1    3    3    0    0  0.44766190648E+02 -0.28525098057E+01 -0.37191536416E+02  0.58269709269E+02  0.00000000000E+00 0.  1.
          5    1    4    4  501    0 -0.96164608316E+02  0.30651207037E+02 -0.11240495803E+02  0.10164127868E+03  0.41800000000E+01 0. -1.
         -5    1    4    4    0  501  0.26738701041E+02  0.50705225234E+02 -0.42528034430E+02  0.71498839934E+02  0.41800000000E+01 0. -1.
</event>
<event>
11    1  0.8039394E-009  0.1391393E+03  0.7561462E-02  0.1108523E+00
         22   -1    0    0    0    0  0.00000000000E+00  0.00000000000E+00  0.19810223056E+03  0.19810223056E+03  0.00000000000E+00 0.  1.
         22   -1    0    0    0    0 -0.00000000000E+00 -0.00000000000E+00 -0.76965541834E+03  0.76965541834E+03  0.00000000000E+00 0. -1.
        -24    2    1    2    0    0 -0.38621255160E+02 -0.23663363025E+02 -0.36976577193E+03  0.38151039602E+03  0.82291555356E+02 0.  0.
         25    2    1    2    0    0  0.18777384344E+02  0.80822524773E+02 -0.36304981836E+03  0.39285829674E+03  0.12509036747E+03 0.  0.
         24    2    1    2    0    0  0.19843870816E+02 -0.57159161749E+02  0.16126240251E+03  0.19338895613E+03  0.87936209323E+02 0.  0.
        -13    1    5    5    0    0  0.32376620995E+02 -0.69666753937E+02  0.15757299833E+03  0.17530245861E+03  0.00000000000E+00 0.  1.
         14    1    5    5    0    0 -0.12532750179E+02  0.12507592189E+02  0.36894041750E+01  0.18086497521E+02  0.00000000000E+00 0. -1.
         13    1    3    3    0    0 -0.25967655384E+02 -0.48601990916E+02 -0.31737467121E+03  0.32212288738E+03  0.00000000000E+00 0. -1.
        -14    1    3    3    0    0 -0.12653599776E+02  0.24938627891E+02 -0.52391100719E+02  0.59387508644E+02  0.00000000000E+00 0.  1.
          5    1    4    4  501    0  0.34027421551E+02  0.53279022947E+02 -0.57178946487E+02  0.85342978767E+02  0.41800000000E+01 0.  1.
         -5    1    4    4    0  501 -0.15250037207E+02  0.27543501826E+02 -0.30587087187E+03  0.30751531797E+03  0.41800000000E+01 0.  1.
</event>
<event>
11    1  0.8039394E-009  0.1536083E+03  0.7561462E-02  0.1093248E+00
         22   -1    0    0    0    0  0.00000000000E+00  0.00000000000E+00  0.20255911017E+03  0.20255911017E+03  0.00000000000E+00 0. -1.
         22   -1    0    0    0    0 -0.00000000000E+00 -0.00000000000E+00 -0.25042837482E+04  0.25042837482E+04  0.00000000000E+00 0.  1.
         24    2    1    2    0    0 -0.71050995690E+02  0.54519383372E+02 -0.22995762412E+04  0.23027094490E+04  0.79995690377E+02 0.  0.
         25    2    1    2    0    0  0.10587668514E+03  0.91124299318E+01 -0.14925437366E+03  0.22185127414E+03  0.12509280932E+03 0.  0.
        -24    2    1    2    0    0 -0.34825689454E+02 -0.63631813303E+02  0.14710597676E+03  0.18228213525E+03  0.79528435937E+02 0.  0.
        -11    1    3    3    0    0 -0.71853640733E+02  0.61832895237E+02 -0.22768371154E+04  0.22788096679E+04  0.00000000000E+00 0.  1.
         12    1    3    3    0    0  0.80264504347E+00 -0.73135118655E+01 -0.22739125799E+02  0.23899781107E+02  0.00000000000E+00 0. -1.
         11    1    5    5    0    0 -0.51485747493E+02 -0.63913306271E+02  0.14338106243E+03  0.16520841981E+03  0.00000000000E+00 0. -1.
        -12    1    5    5    0    0  0.16660058039E+02  0.28149296720E+00  0.37249143336E+01  0.17073715441E+02  0.00000000000E+00 0.  1.
          5    1    4    4  501    0  0.22512321457E+02  0.43177280184E+02 -0.16593425459E+01  0.48901001617E+02  0.41800000000E+01 0.  1.
         -5    1    4    4    0  501  0.83364363687E+02 -0.34064850252E+02 -0.14759503111E+03  0.17295027252E+03  0.41800000000E+01 0.  1.
</event>
<event>
11    1  0.8039394E-009  0.1435642E+03  0.7561462E-02  0.1103642E+00
         22   -1    0    0    0    0  0.00000000000E+00  0.00000000000E+00  0.12442472396E+04  0.12442472396E+04  0.00000000000E+00 0. -1.
         22   -1    0    0    0    0 -0.00000000000E+00 -0.00000000000E+00 -0.91126209638E+02  0.91126209638E+02  0.00000000000E+00 0.  1.
        -24    2    1    2    0    0  0.38296619481E+02  0.27711235886E+02 -0.44322796974E+02  0.10378500996E+03  0.81069564594E+02 0.  0.
         25    2    1    2    0    0 -0.33892441137E+02  0.48453953927E+02  0.34131493278E+03  0.36829435255E+03  0.12509341935E+03 0.  0.
         24    2    1    2    0    0 -0.44041783444E+01 -0.76165189813E+02  0.85612889420E+03  0.86329408676E+03  0.80619252266E+02 0.  0.
        -11    1    5    5    0    0  0.12825030109E+01 -0.21057444496E+02  0.39435546665E+02  0.44723854077E+02  0.00000000000E+00 0.  1.
         12    1    5    5    0    0 -0.56866813553E+01 -0.55107745317E+02  0.81669334753E+03  0.81857023269E+03  0.00000000000E+00 0. -1.
         13    1    3    3    0    0 -0.69703745870E+01 -0.10805517578E+02  0.15035906855E+02  0.19784433956E+02  0.00000000000E+00 0. -1.
        -14    1    3    3    0    0  0.45266994068E+02  0.38516753464E+02 -0.59358703829E+02  0.84000576008E+02  0.00000000000E+00 0.  1.
          5    1    4    4  501    0 -0.53466777979E+02  0.70334026575E+02  0.14570456945E+03  0.17044901173E+03  0.41800000000E+01 0.  1.
         -5    1    4    4    0  501  0.19574336842E+02 -0.21880072648E+02  0.19561036333E+03  0.19784534082E+03  0.41800000000E+01 0.  1.
</event>
<event>
11    1  0.8039394E-009  0.1415710E+03  0.7561462E-02  0.1105817E+00
         22   -1    0    0    0    0  0.00000000000E+00  0.00000000000E+00  0.19083137189E+03  0.19083137189E+03  0.00000000000E+00 0.  1.
         22   -1    0    0    0    0 -0.00000000000E+00 -0.00000000000E+00 -0.12169820811E+04  0.12169820811E+04  0.00000000000E+00 0. -1.
        -24    2    1    2    0    0  0.62827784252E+02  0.20367689317E+02 -0.11211605278E+04  0.11260500377E+04  0.81397697351E+02 0.  0.
         25    2    1    2    0    0 -0.85408855667E+02  0.23457576003E+02  0.67454561406E+01  0.15341875028E+03  0.12508749443E+03 0.  0.
         24    2    1    2    0    0  0.22581071415E+02 -0.43825265321E+02  0.88264362446E+02  0.12834466498E+03  0.79064509629E+02 0.  0.
        -11    1    5    5    0    0  0.52157567380E+02 -0.23081419902E+02  0.55102815716E+02  0.79306267593E+02  0.00000000000E+00 0.  1.
         12    1    5    5    0    0 -0.29576495965E+02 -0.20743845419E+02  0.33161546730E+02  0.49038397382E+02  0.00000000000E+00 0. -1.
         13    1    3    3    0    0  0.20044426800E+02 -0.24188239322E+02 -0.66304538279E+03  0.66378914544E+03  0.00000000000E+00 0. -1.
        -14    1    3    3    0    0  0.42783357452E+02  0.44555928640E+02 -0.45811514496E+03  0.46226089224E+03  0.00000000000E+00 0.  1.
          5    1    4    4  501    0 -0.11775350106E+03  0.11745413688E+02  0.85418591038E+01  0.11871932240E+03  0.41800000000E+01 0. -1.
         -5    1    4    4    0  501  0.32344645393E+02  0.11712162315E+02 -0.17964029633E+01  0.34699427882E+02  0.41800000000E+01 0. -1.
</event>
<event>
11    1  0.8039394E-009  0.1577632E+03  0.7561462E-02  0.1089200E+00
         22   -1    0    0    0    0  0.00000000000E+00  0.00000000000E+00  0.12362065213E+03  0.12362065213E+03  0.00000000000E+00 0. -1.
         22   -1    0    0    0    0 -0.00000000000E+00 -0.00000000000E+00 -0.10006439468E+04  0.10006439468E+04  0.00000000000E+00 0.  1.
        -24    2    1    2    0    0 -0.11526812791E+02 -0.85609039495E+02 -0.64332455238E+03  0.65417470557E+03  0.81340584328E+02 0.  0.
         25    2    1    2    0    0  0.22616592228E+02  0.14720964822E+03 -0.29319233156E+03  0.35183699006E+03  0.12508130761E+03 0.  0.
         24    2    1    2    0    0 -0.11089779437E+02 -0.61600608723E+02  0.59493589294E+02  0.11825290328E+03  0.80787646106E+02 0.  0.
        -11    1    5    5    0    0  0.12155993707E+02 -0.14163852721E+02  0.62611830943E+02  0.65334709619E+02  0.00000000000E+00 0.  1.
         12    1    5    5    0    0 -0.23245773144E+02 -0.47436756002E+02 -0.31182416493E+01  0.52918193658E+02  0.00000000000E+00 0. -1.
         13    1    3    3    0    0  0.22750864006E+02 -0.15909110286E+02 -0.65320268475E+02  0.70974918646E+02  0.00000000000E+00 0. -1.
        -14    1    3    3    0    0 -0.34277676797E+02 -0.69699929208E+02 -0.57800428390E+03  0.58319978693E+03  0.00000000000E+00 0.  1.
          5    1    4    4  501    0 -0.92816535802E+01  0.13859418041E+03 -0.28569271299E+03  0.31769843341E+03  0.41800000000E+01 0. -1.
         -5    1    4    4    0  501  0.31898245808E+02  0.86154678069E+01 -0.74996185736E+01  0.34138556647E+02  0.41800000000E+01 0. -1.
</event>
<event>
11    1  0.8039394E-009  0.1648726E+03  0.7561462E-02  0.1082582E+00
         22   -1    0    0    0    0  0.00000000000E+00  0.00000000000E+00  0.25549095476E+04  0.25549095476E+04  0.00000000000E+00 0.  1.
         22   -1    0    0    0    0 -0.00000000000E+00 -0.00000000000E+00 -0.13244508255E+03  0.13244508255E+03  0.00000000000E+00 0.  1.
         24    2    1    2    0    0 -0.56515778710E+02 -0.87746757964E+02 -0.58646106237E+02  0.14397987432E+03  0.79983196086E+02 0.  0.
         25    2    1    2    0    0  0.19084596860E+02  0.13770031953E+03  0.26189069276E+03  0.32180719603E+03  0.12509011402E+03 0.  0.
        -24    2    1    2    0    0  0.37431181850E+02 -0.49953561565E+02  0.22192198785E+04  0.22215675598E+04  0.80802857987E+02 0.  0.
        -11    1    3    3    0    0 -0.10238320122E+02 -0.27308400245E+02 -0.61223713141E+02  0.67815300439E+02  0.00000000000E+00 0.  1.
         12    1    3    3    0    0 -0.46277458588E+02 -0.60438357719E+02  0.25776069034E+01  0.76164573882E+02  0.00000000000E+00 0. -1.
         13    1    5    5    0    0  0.23889440698E+02 -0.48713857818E+02  0.64185660679E+03  0.64414567375E+03  0.00000000000E+00 0. -1.
        -14    1    5    5    0    0  0.13541741152E+02 -0.12397037471E+01  0.15773632718E+04  0.15774218861E+04  0.00000000000E+00 0.  1.
          5    1    4    4  501    0  0.67286609839E+02  0.43657587144E+02  0.12913570685E+03  0.15207556004E+03  0.41800000000E+01 0. -1.
         -5    1    4    4    0  501 -0.48202012979E+02  0.94042732385E+02  0.13275498591E+03  0.16973163599E+03  0.41800000000E+01 0. -1.
</event>
<event>
11    1  0.8039394E-009  0.1399264E+03  0.7561462E-02  0.1107641E+00
         22   -1    0    0    0    0  0.00000000000E+00  0.00000000000E+00  0.24088158313E+04  0.24088158313E+04  0.00000000000E+00 0.  1.
         22   -1    0    0    0    0 -0.00000000000E+00 -0.00000000000E+00 -0.55305527455E+03  0.55305527455E+03  0.00000000000E+00 0.  1.
         24    2    1    2    0    0  0.25746543072E+02  0.59659949354E+02 -0.47486012205E+03  0.48585311548E+03  0.79617336533E+02 0.  0.
         25    2    1    2    0    0  0.27252518202E+02 -0.49265747160E+02 -0.61386134889E+01  0.13731051062E+03  0.12508669057E+03 0.  0.
        -24    2    1    2    0    0 -0.52999061274E+02 -0.10394202194E+02  0.23367592923E+04  0.23387074797E+04  0.78687647095E+02 0.  0.
        -13    1    3    3    0    0 -0.15499843550E+02  0.35418032938E+02 -0.35019926883E+03  0.35232685123E+03  0.00000000000E+00 0.  1.
         14    1    3    3    0    0  0.41246386622E+02  0.24241916416E+02 -0.12466085321E+03  0.13352626425E+03  0.00000000000E+00 0. -1.
         11    1    5    5    0    0 -0.42756126915E-01 -0.30637240628E+02  0.42273865400E+03  0.42384739227E+03  0.00000000000E+00 0. -1.
        -12    1    5    5    0    0 -0.52956305147E+02  0.20243038434E+02  0.19140206383E+04  0.19148600875E+04  0.00000000000E+00 0.  1.
          5    1    4    4  501    0  0.49555661899E+02 -0.80929544225E+02  0.92244912776E+01  0.95435414779E+02  0.41800000000E+01 0.  1.
         -5    1    4    4    0  501 -0.22303143697E+02  0.31663797065E+02 -0.15363104766E+02  0.41875095837E+02  0.41800000000E+01 0.  1.
</event>
<event>
11    1  0.8039394E-009  0.1712757E+03  0.7561462E-02  0.1076927E+00
         22   -1    0    0    0    0  0.00000000000E+00  0.00000000000E+00  0.83682565531E+02  0.83682565531E+02  0.00000000000E+00 0.  1.
         22   -1    0    0    0    0 -0.00000000000E+00 -0.00000000000E+00 -0.16196015740E+04  0.16196015740E+04  0.00000000000E+00 0.  1.
         24    2    1    2    0    0  0.78682099442E-01 -0.53033460426E+01 -0.82150475408E+03  0.82550457735E+03  0.80991447523E+02 0.  0.
         25    2    1    2    0    0  0.12621646391E+02  0.12113670371E+03 -0.71474056419E+03  0.73575456546E+03  0.12508916644E+03 0.  0.
        -24    2    1    2    0    0 -0.12700328490E+02 -0.11583335767E+03  0.32630980672E+00  0.14202499672E+03  0.81193153168E+02 0.  0.
        -11    1    3    3    0    0 -0.50960161766E+01  0.38518852952E+01 -0.80957932305E+03  0.80960452488E+03  0.00000000000E+00 0.  1.
         12    1    3    3    0    0  0.51746982760E+01 -0.91552313378E+01 -0.11925431036E+02  0.15900052468E+02  0.00000000000E+00 0. -1.
         11    1    5    5    0    0 -0.29850433294E+02 -0.10060541768E+02  0.13093174562E+02  0.34112960714E+02  0.00000000000E+00 0. -1.
        -12    1    5    5    0    0  0.17150104804E+02 -0.10577281590E+03 -0.12766864756E+02  0.10791203600E+03  0.00000000000E+00 0.  1.
          5    1    4    4  501    0 -0.48372609635E-01 -0.24446304029E+02 -0.60637284911E+02  0.65513180674E+02  0.41800000000E+01 0. -1.
         -5    1    4    4    0  501  0.12670019000E+02  0.14558300774E+03 -0.65410327928E+03  0.67024138479E+03  0.41800000000E+01 0. -1.
</event>
<event>
11    1  0.8039394E-009  0.1556963E+03  0.7561462E-02  0.1091196E+00
         22   -1    0    0    0    0  0.00000000000E+00  0.00000000000E+00  0.27910620281E+03  0.27910620281E+03  0.00000000000E+00 0.  1.
         22   -1    0    0    0    0 -0.00000000000E+00 -0.00000000000E+00 -0.10288739482E+04  0.10288739482E+04  0.00000000000E+00 0.  1.
         24    2    1    2    0    0 -0.64636771333E+02  0.67501301920E+02 -0.93435062597E+03  0.94245758865E+03  0.80503889164E+02 0.  0.
         25    2    1    2    0    0  0.11045626350E+03  0.48349419627E+01  0.26803721670E+02  0.16908735356E+03  0.12509248909E+03 0.  0.
        -24    2    1    2    0    0 -0.45819492167E+02 -0.72336243882E+02  0.15777915889E+03  0.19643520883E+03  0.79753183311E+02 0.  0.
        -11    1    3    3    0    0  0.12279025586E+02  0.11965497085E+01 -0.28021515998E+03  0.28048661659E+03  0.00000000000E+00 0.  1.
         12    1    3    3    0    0 -0.76915796919E+02  0.66304752211E+02 -0.65413546599E+03  0.66197097206E+03  0.00000000000E+00 0. -1.
         11    1    5    5    0    0 -0.49839935072E+02 -0.18037818387E+02  0.39107701527E+02  0.65869525116E+02  0.00000000000E+00 0. -1.
        -12    1    5    5    0    0  0.40204429052E+01 -0.54298425495E+02  0.11867145736E+03  0.13056568372E+03  0.00000000000E+00 0.  1.
          5    1    4    4  501    0 -0.25460169545E+02 -0.11839512115E+02 -0.39987893214E+01  0.28668048354E+02  0.41800000000E+01 0. -1.
         -5    1    4    4    0  501  0.13591643305E+03  0.16674454078E+02  0.30802510991E+02  0.14041930520E+03  0.41800000000E+01 0. -1.
</event>
<event>
11    1  0.8039394E-009  0.1347686E+03  0.7561462E-02  0.1113545E+00
         22   -1    0    0    0    0  0.00000000000E+00  0.00000000000E+00  0.11451244202E+04  0.11451244202E+04  0.00000000000E+00 0. -1.
         22   -1    0    0    0    0 -0.00000000000E+00 -0.00000000000E+00 -0.15856648361E+03  0.15856648361E+03  0.00000000000E+00 0.  1.
        -24    2    1    2    0    0 -0.47117267069E+02 -0.16506262509E+01 -0.10537630006E+03  0.14143824812E+03  0.81718125242E+02 0.  0.
         25    2    1    2    0    0  0.77031048437E+02  0.12420693146E+02  0.13067003040E+03  0.19700152494E+03  0.12508752113E+03 0.  0.
         24    2    1    2    0    0 -0.29913781368E+02 -0.10770066895E+02  0.96126420625E+03  0.96525113074E+03  0.81670328242E+02 0.  0.
        -13    1    5    5    0    0 -0.58303922495E+01  0.77421372372E+01  0.11663937650E+02  0.15165144387E+02  0.00000000000E+00 0.  1.
         14    1    5    5    0    0 -0.24083389119E+02 -0.18512204132E+02  0.94960026860E+03  0.95008598635E+03  0.00000000000E+00 0. -1.
         11    1    3    3    0    0 -0.47472403632E+02 -0.92473101547E+00 -0.13232361659E+02  0.49290766165E+02  0.00000000000E+00 0. -1.
        -12    1    3    3    0    0  0.35513656335E+00 -0.72589523547E+00 -0.92143938405E+02  0.92147481955E+02  0.00000000000E+00 0.  1.
          5    1    4    4  501    0  0.85507317406E+02 -0.22000970136E+02  0.35316108334E+02  0.95185313598E+02  0.41800000000E+01 0.  1.
         -5    1    4    4    0  501 -0.84762689692E+01  0.34421663282E+02  0.95353922067E+02  0.10181621134E+03  0.41800000000E+01 0.  1.
</event>
<event>
11    1  0.8039394E-009  0.2971619E+03  0.7561462E-02  0.1001400E+00
         22   -1    0    0    0    0  0.00000000000E+00  0.00000000000E+00  0.50570045892E+03  0.50570045892E+03  0.00000000000E+00 0.  1.
         22   -1    0    0    0    0 -0.00000000000E+00 -0.00000000000E+00 -0.16165400032E+04  0.16165400032E+04  0.00000000000E+00 0.  1.
        -24    2    1    2    0    0 -0.17181564754E+03  0.22545326311E+03 -0.15122123560E+04  0.15406513641E+04  0.80440196745E+02 0.  0.
         25    2    1    2    0    0  0.49027458166E+02 -0.13766185539E+03  0.63284444432E+02  0.20250074169E+03  0.12508857420E+03 0.  0.
         24    2    1    2    0    0  0.12278818937E+03 -0.87791407718E+02  0.33808836736E+03  0.37908835633E+03  0.81363179866E+02 0.  0.
        -11    1    5    5    0    0  0.11326665972E+03 -0.52080496607E+02  0.30495194799E+03  0.32945015543E+03  0.00000000000E+00 0.  1.
         12    1    5    5    0    0  0.95215296480E+01 -0.35710911111E+02  0.33136419378E+02  0.49638200898E+02  0.00000000000E+00 0. -1.
         13    1    3    3    0    0 -0.97274135887E+02  0.71093674040E+02 -0.73010254448E+03  0.73997722496E+03  0.00000000000E+00 0. -1.
        -14    1    3    3    0    0 -0.74541511648E+02  0.15435958907E+03 -0.78210981155E+03  0.80067413910E+03  0.00000000000E+00 0.  1.
          5    1    4    4  501    0  0.46317995475E+02 -0.10641593930E+02  0.58235732995E+02  0.75282622322E+02  0.41800000000E+01 0. -1.
         -5    1    4    4    0  501  0.27094626911E+01 -0.12702026146E+03  0.50487114366E+01  0.12721811937E+03  0.41800000000E+01 0. -1.
</event>
<event>
11    1  0.8039394E-009  0.2276643E+03  0.7561462E-02  0.1036520E+00
         22   -1    0    0    0    0  0.00000000000E+00  0.00000000000E+00  0.25404413001E+04  0.25404413001E+04  0.00000000000E+00 0. -1.
         22   -1    0    0    0    0 -0.00000000000E+00 -0.00000000000E+00 -0.92367550583E+02  0.92367550583E+02  0.00000000000E+00 0.  1.
        -24    2    1    2    0    0 -0.10564888561E+03 -0.18111936244E+03  0.10804215741E+03  0.24939035409E+03  0.80972405522E+02 0.  0.
         25    2    1    2    0    0  0.10822336608E+03  0.97176609690E+02  0.44193318035E+03  0.48177629033E+03  0.12509143693E+03 0.  0.
         24    2    1    2    0    0 -0.25744804648E+01  0.83942752749E+02  0.18980984117E+04  0.19016422062E+04  0.80078000783E+02 0.  0.
        -11    1    5    5    0    0 -0.18010062790E+02  0.94667131234E+01  0.10626903561E+03  0.10819930197E+03  0.00000000000E+00 0.  1.
         12    1    5    5    0    0  0.15435582325E+02  0.74476039625E+02  0.17918293761E+04  0.17934429043E+04  0.00000000000E+00 0. -1.
         13    1    3    3    0    0  0.32192042370E+01  0.63078422403E+01 -0.26229899216E+00  0.70866741430E+01  0.00000000000E+00 0. -1.
        -14    1    3    3    0    0 -0.10886808985E+03 -0.18742720468E+03  0.10830445640E+03  0.24230367995E+03  0.00000000000E+00 0.  1.
          5    1    4    4  501    0 -0.19147765138E+02  0.16170061625E+01  0.11421151056E+02  0.22741299658E+02  0.41800000000E+01 0.  1.
         -5    1    4    4    0  501  0.12737113122E+03  0.95559603528E+02  0.43051202929E+03  0.45903499067E+03  0.41800000000E+01 0.  1.
</event>
<event>
11    1  0.8039394E-009  0.5065773E+03  0.7561462E-02  0.9378943E-01
         22   -1    0    0    0    0  0.00000000000E+00  0.00000000000E+00  0.18518591158E+04  0.18518591158E+04  0.00000000000E+00 0. -1.
         22   -1    0    0    0    0 -0.00000000000E+00 -0.00000000000E+00 -0.23969208662E+03  0.23969208662E+03  0.00000000000E+00 0. -1.
         24    2    1    2    0    0 -0.39986474616E+03  0.12938253481E+03  0.48234205213E+03  0.64427876182E+03  0.76220811780E+02 0.  0.
         25    2    1    2    0    0  0.47640101206E+03 -0.35666720520E+03  0.58004331061E+03  0.84039715670E+03  0.12509084401E+03 0.  0.
        -24    2    1    2    0    0 -0.76536265899E+02  0.22728467039E+03  0.54978166642E+03  0.60687528388E+03  0.92312556385E+02 0.  0.
        -11    1    3    3    0    0 -0.23459246078E+03  0.39631655512E+02  0.24582656092E+03  0.34210376909E+03  0.00000000000E+00 0.  1.
         12    1    3    3    0    0 -0.16527228538E+03  0.89750879301E+02  0.23651549121E+03  0.30217499273E+03  0.00000000000E+00 0. -1.
         11    1    5    5    0    0 -0.31601145126E+02  0.43852657754E+02  0.22289439925E+03  0.22935474964E+03  0.00000000000E+00 0. -1.
        -12    1    5    5    0    0 -0.44935120773E+02  0.18343201263E+03  0.32688726717E+03  0.37752053424E+03  0.00000000000E+00 0.  1.
          5    1    4    4  501    0  0.51375052874E+02 -0.16134315763E+02  0.16018093582E+02  0.56336168888E+02  0.41800000000E+01 0. -1.
         -5    1    4    4    0  501  0.42502595918E+03 -0.34053288944E+03  0.56402521703E+03  0.78406098781E+03  0.41800000000E+01 0. -1.
</event>
<event>
11    1  0.8039394E-009  0.2621348E+03  0.7561462E-02  0.1017626E+00
         22   -1    0    0    0    0  0.00000000000E+00  0.00000000000E+00  0.46413761841E+03  0.46413761841E+03  0.00000000000E+00 0.  1.
         22   -1    0    0    0    0 -0.00000000000E+00 -0.00000000000E+00 -0.56736814222E+03  0.56736814222E+03  0.00000000000E+00 0.  1.
        -24    2    1    2    0    0  0.43063763260E+02 -0.21714542276E+02 -0.41606903488E+03  0.42625469669E+03  0.79079805294E+02 0.  0.
         25    2    1    2    0    0  0.20367601387E+03  0.78381882202E+01  0.67828402526E+02  0.24858271863E+03  0.12508924811E+03 0.  0.
         24    2    1    2    0    0 -0.24673977713E+03  0.13876354056E+02  0.24501010856E+03  0.35666834531E+03  0.78161911622E+02 0.  0.
        -13    1    5    5    0    0 -0.18917678758E+03 -0.11458767590E+02  0.14543229249E+03  0.23889267886E+03  0.00000000000E+00 0.  1.
         14    1    5    5    0    0 -0.57562989552E+02  0.25335121645E+02  0.99577816061E+02  0.11777566644E+03  0.00000000000E+00 0. -1.
         11    1    3    3    0    0  0.19209550898E+02 -0.32779610538E+02 -0.74066505379E+02  0.83242759035E+02  0.00000000000E+00 0. -1.
        -12    1    3    3    0    0  0.23854212362E+02  0.11065068263E+02 -0.34200252951E+03  0.34301193765E+03  0.00000000000E+00 0.  1.
          5    1    4    4  501    0  0.25873896136E+02 -0.31837461190E+02 -0.20532155361E+02  0.46066519731E+02  0.41800000000E+01 0.  1.
         -5    1    4    4    0  501  0.17780211774E+03  0.39675649410E+02  0.88360557887E+02  0.20251619890E+03  0.41800000000E+01 0.  1.
</event>
<event>
11    1  0.8039394E-009  0.2211904E+03  0.7561462E-02  0.1040474E+00
         22   -1    0    0    0    0  0.00000000000E+00  0.00000000000E+00  0.10179997201E+04  0.10179997201E+04  0.00000000000E+00 0. -1.
         22   -1    0    0    0    0 -0.00000000000E+00 -0.00000000000E+00 -0.13260799537E+04  0.13260799537E+04  0.00000000000E+00 0.  1.
        -24    2    1    2    0    0  0.23073169043E+02 -0.12463965289E+03 -0.10897306852E+04  0.10999764741E+04  0.79798890999E+02 0.  0.
         25    2    1    2    0    0 -0.28006922102E+01  0.30029124847E+03 -0.10058669933E+03  0.34051158919E+03  0.12509108883E+03 0.  0.
         24    2    1    2    0    0 -0.20272476833E+02 -0.17565159558E+03  0.88223715095E+03  0.90359161049E+03  0.82891203891E+02 0.  0.
        -13    1    5    5    0    0 -0.35433282170E+02 -0.57528841229E+02  0.20178152207E+03  0.21279301611E+03  0.00000000000E+00 0.  1.
         14    1    5    5    0    0  0.15160805337E+02 -0.11812275435E+03  0.68045562888E+03  0.69079859437E+03  0.00000000000E+00 0. -1.
         13    1    3    3    0    0  0.52825869065E+02 -0.71931310115E+02 -0.64220243155E+03  0.64837384965E+03  0.00000000000E+00 0. -1.
        -14    1    3    3    0    0 -0.29752700022E+02 -0.52708342780E+02 -0.44752825369E+03  0.45160262444E+03  0.00000000000E+00 0.  1.
          5    1    4    4  501    0  0.31388607179E+02  0.53978800646E+02  0.17799996989E+02  0.65063567936E+02  0.41800000000E+01 0.  1.
         -5    1    4    4    0  501 -0.34189299389E+02  0.24631244783E+03 -0.11838669632E+03  0.27544802125E+03  0.41800000000E+01 0.  1.
</event>
<event>
11    1  0.8039394E-009  0.1434048E+03  0.7561462E-02  0.1103815E+00
         22   -1    0    0    0    0  0.00000000000E+00  0.00000000000E+00  0.26300317434E+03  0.26300317434E+03  0.00000000000E+00 0. -1.
         22   -1    0    0    0    0 -0.00000000000E+00 -0.00000000000E+00 -0.31530009010E+03  0.31530009010E+03  0.00000000000E+00 0. -1.
         24    2    1    2    0    0 -0.29597588166E+02 -0.43597044063E+02 -0.23325554231E+03  0.25292897516E+03  0.82390527249E+02 0.  0.
         25    2    1    2    0    0 -0.25796000888E+02 -0.19806655445E+02  0.26403594394E+02  0.13191792376E+03  0.12508977397E+03 0.  0.
        -24    2    1    2    0    0  0.55393589053E+02  0.63403699508E+02  0.15455503215E+03  0.19345636551E+03  0.80309579586E+02 0.  0.
        -13    1    3    3    0    0  0.22797121831E+02  0.49197141470E+01 -0.33707503638E+02  0.40989122369E+02  0.00000000000E+00 0.  1.
         14    1    3    3    0    0 -0.52394709997E+02 -0.48516758210E+02 -0.19954803868E+03  0.21193985279E+03  0.00000000000E+00 0. -1.
         11    1    5    5    0    0  0.65997921369E+02  0.74725643032E+02  0.12330449946E+03  0.15856748387E+03  0.00000000000E+00 0. -1.
        -12    1    5    5    0    0 -0.10604332316E+02 -0.11321943524E+02  0.31250532691E+02  0.34888881646E+02  0.00000000000E+00 0.  1.
          5    1    4    4  501    0  0.10350120591E+02 -0.35593215441E+02 -0.39921885977E+02  0.54637270810E+02  0.41800000000E+01 0.  1.
         -5    1    4    4    0  501 -0.36146121479E+02  0.15786559995E+02  0.66325480371E+02  0.77280652954E+02  0.41800000000E+01 0.  1.
</event>
<event>
11    1  0.8039394E-009  0.5218500E+03  0.7561462E-02  0.9345980E-01
         22   -1    0    0    0    0  0.00000000000E+00  0.00000000000E+00  0.42360303175E+03  0.42360303175E+03  0.00000000000E+00 0.  1.
         22   -1    0    0    0    0 -0.00000000000E+00 -0.00000000000E+00 -0.16072088914E+03  0.16072088914E+03  0.00000000000E+00 0. -1.
        -24    2    1    2    0    0  0.41356563027E+02  0.13354746326E+03  0.45307773894E+02  0.16729007046E+03  0.79924233186E+02 0.  0.
         25    2    1    2    0    0 -0.88099551451E+02 -0.18333353449E+03  0.13161433338E+03  0.27265794209E+03  0.12508918739E+03 0.  0.
         24    2    1    2    0    0  0.46742988424E+02  0.49786071224E+02  0.85960035329E+02  0.14437590833E+03  0.93764147621E+02 0.  0.
        -11    1    5    5    0    0 -0.18834227574E+02  0.18077045204E+02  0.62689572905E+02  0.67907954193E+02  0.00000000000E+00 0.  1.
         12    1    5    5    0    0  0.65577215998E+02  0.31709026020E+02  0.23270462424E+02  0.76467954142E+02  0.00000000000E+00 0. -1.
         13    1    3    3    0    0  0.20963205478E+02  0.13816025512E+03  0.35415737796E+02  0.14415958713E+03  0.00000000000E+00 0. -1.
        -14    1    3    3    0    0  0.20393357549E+02 -0.46127918575E+01  0.98920360978E+01  0.23130483328E+02  0.00000000000E+00 0.  1.
          5    1    4    4  501    0  0.22818889534E+02 -0.51392447471E+02  0.10755178970E+01  0.56396050530E+02  0.41800000000E+01 0.  1.
         -5    1    4    4    0  501 -0.11091844099E+03 -0.13194108702E+03  0.13053881549E+03  0.21626189156E+03  0.41800000000E+01 0.  1.
</event>
<event>
11    1  0.8039394E-009  0.1510198E+03  0.7561462E-02  0.1095841E+00
         22   -1    0    0    0    0  0.00000000000E+00  0.00000000000E+00  0.22420126758E+03  0.22420126758E+03  0.00000000000E+00 0.  1.
         22   -1    0    0    0    0 -0.00000000000E+00 -0.00000000000E+00 -0.65579390812E+03  0.65579390812E+03  0.00000000000E+00 0.  1.
        -24    2    1    2    0    0  0.68362684162E+02 -0.47049188035E+02 -0.49558022466E+03  0.50881800715E+03  0.80055747168E+02 0.  0.
         25    2    1    2    0    0 -0.79521490990E+02  0.51939541850E+02 -0.10469773662E+03  0.18875905153E+03  0.12508788888E+03 0.  0.
         24    2    1    2    0    0  0.11158806829E+02 -0.48903538146E+01  0.16868532073E+03  0.18241811702E+03  0.68360788890E+02 0.  0.
        -13    1    5    5    0    0 -0.10230791626E+01  0.27054427043E+02  0.11942953593E+03  0.12245980061E+03  0.00000000000E+00 0.  1.
         14    1    5    5    0    0  0.12181885991E+02 -0.31944780857E+02  0.49255784797E+02  0.59958316406E+02  0.00000000000E+00 0. -1.
         11    1    3    3    0    0  0.13673633276E+02 -0.48283026160E+02 -0.13333281973E+03  0.14246353807E+03  0.00000000000E+00 0. -1.
        -12    1    3    3    0    0  0.54689050886E+02  0.12338381251E+01 -0.36224740492E+03  0.36635446908E+03  0.00000000000E+00 0.  1.
          5    1    4    4  501    0 -0.32790974399E+02  0.42791963473E+02  0.18071242846E+02  0.57012650858E+02  0.41800000000E+01 0.  1.
         -5    1    4    4    0  501 -0.46730516592E+02  0.91475783770E+01 -0.12276897946E+03  0.13174640067E+03  0.41800000000E+01 0.  1.
</event>
<event>
11    1  0.8039394E-009  0.1715650E+03  0.7561462E-02  0.1076678E+00
         22   -1    0    0    0    0  0.00000000000E+00  0.00000000000E+00  0.29828037176E+04  0.29828037176E+04  0.00000000000E+00 0.  1.
         22   -1    0    0    0    0 -0.00000000000E+00 -0.00000000000E+00 -0.98643127875E+02  0.98643127875E+02  0.00000000000E+00 0.  1.
         24    2    1    2    0    0 -0.17319522361E+02 -0.11388837141E+03 -0.28688455192E+02  0.14448350781E+03  0.82352471552E+02 0.  0.
         25    2    1    2    0    0  0.12139674131E+02  0.14889392300E+03  0.81417629529E+03  0.83716649501E+03  0.12509168056E+03 0.  0.
        -24    2    1    2    0    0  0.51798482300E+01 -0.35005551590E+02  0.20986727496E+04  0.20997968427E+04  0.58883367380E+02 0.  0.
        -13    1    3    3    0    0 -0.38746540406E+01 -0.11659984075E+03 -0.45889568123E+01  0.11675441889E+03  0.00000000000E+00 0.  1.
         14    1    3    3    0    0 -0.13444868320E+02  0.27114693363E+01 -0.24099498380E+02  0.27729088919E+02  0.00000000000E+00 0. -1.
         13    1    5    5    0    0 -0.62348922234E+01  0.15145420013E+02  0.66535777759E+03  0.66555933607E+03  0.00000000000E+00 0. -1.
        -14    1    5    5    0    0  0.11414740453E+02 -0.50150971604E+02  0.14333149720E+04  0.14342375066E+04  0.00000000000E+00 0.  1.
          5    1    4    4  501    0  0.62160985715E+02  0.98345025024E+02  0.60758680040E+03  0.61863957561E+03  0.41800000000E+01 0.  1.
         -5    1    4    4    0  501 -0.50021311584E+02  0.50548897977E+02  0.20658949490E+03  0.21852691940E+03  0.41800000000E+01 0.  1.
</event>
<event>
11    1  0.8039394E-009  0.1661050E+03  0.7561462E-02  0.1081472E+00
         22   -1    0    0    0    0  0.00000000000E+00  0.00000000000E+00  0.10429774170E+03  0.10429774170E+03  0.00000000000E+00 0. -1.
         22   -1    0    0    0    0 -0.00000000000E+00 -0.00000000000E+00 -0.19626666073E+04  0.19626666073E+04  0.00000000000E+00 0.  1.
         24    2    1    2    0    0  0.62760497484E+02  0.69876124928E+02 -0.10226680576E+04  0.10301105413E+04  0.80350596211E+02 0.  0.
         25    2    1    2    0    0 -0.57970386128E+02 -0.15662331081E+03 -0.88502245927E+03  0.90928833933E+03  0.12509637671E+03 0.  0.
        -24    2    1    2    0    0 -0.47901113561E+01  0.86747185886E+02  0.49321651282E+02  0.12756546840E+03  0.79324044381E+02 0.  0.
        -11    1    3    3    0    0  0.58230072083E+02  0.82070893464E+02 -0.70169151658E+03  0.70887047991E+03  0.00000000000E+00 0.  1.
         12    1    3    3    0    0  0.45304254007E+01 -0.12194768536E+02 -0.32097654101E+03  0.32124006135E+03  0.00000000000E+00 0. -1.
         11    1    5    5    0    0 -0.21166912466E+02  0.93387253640E+02  0.27783181797E+02  0.99705177983E+02  0.00000000000E+00 0. -1.
        -12    1    5    5    0    0  0.16376801110E+02 -0.66400677546E+01  0.21538469484E+02  0.27860290417E+02  0.00000000000E+00 0.  1.
          5    1    4    4  501    0 -0.48919290465E+02 -0.73990231957E+01 -0.12145514761E+03  0.13121230051E+03  0.41800000000E+01 0. -1.
         -5    1    4    4    0  501 -0.90510956628E+01 -0.14922428762E+03 -0.76356731166E+03  0.77807603882E+03  0.41800000000E+01 0. -1.
</event>
<event>
11    1  0.8039394E-009  0.1632996E+03  0.7561462E-02  0.1084014E+00
         22   -1    0    0    0    0  0.00000000000E+00  0.00000000000E+00  0.35949476865E+03  0.35949476865E+03  0.00000000000E+00 0. -1.
         22   -1    0    0    0    0 -0.00000000000E+00 -0.00000000000E+00 -0.34491326367E+03  0.34491326367E+03  0.00000000000E+00 0.  1.
        -24    2    1    2    0    0 -0.61304148824E+02  0.80540873984E+02 -0.25240552154E+03  0.28332280553E+03  0.79487318366E+02 0.  0.
         25    2    1    2    0    0  0.38756774203E+02 -0.14817374892E+03  0.93541715526E+02  0.21875953956E+03  0.12509251052E+03 0.  0.
         24    2    1    2    0    0  0.22547374621E+02  0.67632874935E+02  0.17344531099E+03  0.20232568724E+03  0.75959317648E+02 0.  0.
        -11    1    5    5    0    0  0.29346948213E+02  0.20288075546E+01  0.96988814359E+02  0.10135181074E+03  0.00000000000E+00 0.  1.
         12    1    5    5    0    0 -0.67995735921E+01  0.65604067380E+02  0.76456496630E+02  0.10097387650E+03  0.00000000000E+00 0. -1.
         13    1    3    3    0    0 -0.18500410329E+02 -0.12549557247E+02 -0.22990232187E+02  0.32067231646E+02  0.00000000000E+00 0. -1.
        -14    1    3    3    0    0 -0.42803738496E+02  0.93090431231E+02 -0.22941528936E+03  0.25125557388E+03  0.00000000000E+00 0.  1.
          5    1    4    4  501    0  0.19470415682E+02 -0.16818305243E+03  0.75985487092E+02  0.18562301275E+03  0.41800000000E+01 0.  1.
         -5    1    4    4    0  501  0.19286358521E+02  0.20009303516E+02  0.17556228433E+02  0.33136526809E+02  0.41800000000E+01 0.  1.
</event>
<event>
11    1  0.8039394E-009  0.1306263E+03  0.7561462E-02  0.1118502E+00
         22   -1    0    0    0    0  0.00000000000E+00  0.00000000000E+00  0.13872738138E+03  0.13872738138E+03  0.00000000000E+00 0. -1.
         22   -1    0    0    0    0 -0.00000000000E+00 -0.00000000000E+00 -0.13434376436E+04  0.13434376436E+04  0.00000000000E+00 0.  1.
         24    2    1    2    0    0 -0.14848479091E+02  0.15831076540E+01 -0.12208700785E+04  0.12235026446E+04  0.78816173194E+02 0.  0.
         25    2    1    2    0    0 -0.25238635655E+02  0.10057068938E+01 -0.59952958496E+02  0.14099908749E+03  0.12509350609E+03 0.  0.
        -24    2    1    2    0    0  0.40087114746E+02 -0.25888145479E+01  0.76112774756E+02  0.11766329293E+03  0.80236009951E+02 0.  0.
        -13    1    3    3    0    0  0.14168604102E+02 -0.30129105002E+02 -0.72828817757E+03  0.72904881996E+03  0.00000000000E+00 0.  1.
         14    1    3    3    0    0 -0.29017083193E+02  0.31712212656E+02 -0.49258190095E+03  0.49445382463E+03  0.00000000000E+00 0. -1.
         13    1    5    5    0    0  0.52482278803E+02 -0.18434752630E+02  0.79735926982E+02  0.97221642368E+02  0.00000000000E+00 0. -1.
        -14    1    5    5    0    0 -0.12395164057E+02  0.15845938082E+02 -0.36231522260E+01  0.20441650564E+02  0.00000000000E+00 0.  1.
          5    1    4    4  501    0 -0.65526656087E+02  0.24633245700E+02 -0.62639222981E+02  0.94030229752E+02  0.41800000000E+01 0.  1.
         -5    1    4    4    0  501  0.40288020432E+02 -0.23627538806E+02  0.26862644849E+01  0.46968857738E+02  0.41800000000E+01 0.  1.
</event>
<event>
11    1  0.8039394E-009  0.3472534E+03  0.7561462E-02  0.9819646E-01
         22   -1    0    0    0    0  0.00000000000E+00  0.00000000000E+00  0.56248350655E+03  0.56248350655E+03  0.00000000000E+00 0.  1.
         22   -1    0    0    0    0 -0.00000000000E+00 -0.00000000000E+00 -0.80035337334E+03  0.80035337334E+03  0.00000000000E+00 0.  1.
        -24    2    1    2    0    0 -0.35806666059E+02  0.26678196734E+02 -0.39130026090E+03  0.40177711404E+03  0.79467676886E+02 0.  0.
         25    2    1    2    0    0 -0.52048156985E+02 -0.33599896720E+03 -0.24937119939E+03  0.43981449780E+03  0.12508589361E+03 0.  0.
         24    2    1    2    0    0  0.87854823044E+02  0.30932077047E+03  0.40280159350E+03  0.52124526805E+03  0.77779796618E+02 0.  0.
        -11    1    5    5    0    0  0.47905527786E+02  0.27190624959E+03  0.33579462990E+03  0.43472517943E+03  0.00000000000E+00 0.  1.
         12    1    5    5    0    0  0.39949295258E+02  0.37414520878E+02  0.67006963599E+02  0.86520088621E+02  0.00000000000E+00 0. -1.
         13    1    3    3    0    0 -0.23594923198E+02 -0.23828768897E+02 -0.90320750023E+02  0.96345049237E+02  0.00000000000E+00 0. -1.
        -14    1    3    3    0    0 -0.12211742861E+02  0.50506965631E+02 -0.30097951088E+03  0.30543206481E+03  0.00000000000E+00 0.  1.
          5    1    4    4  501    0 -0.81926255721E+02 -0.26635632088E+03 -0.23034031825E+03  0.36156843842E+03  0.41800000000E+01 0. -1.
         -5    1    4    4    0  501  0.29878098736E+02 -0.69642646328E+02 -0.19030881133E+02  0.78246059378E+02  0.41800000000E+01 0. -1.
</event>
<event>
11    1  0.8039394E-009  0.1530906E+03  0.7561462E-02  0.1093762E+00
         22   -1    0    0    0    0  0.00000000000E+00  0.00000000000E+00  0.46808335391E+03  0.46808335391E+03  0.00000000000E+00 0. -1.
         22   -1    0    0    0    0 -0.00000000000E+00 -0.00000000000E+00 -0.88551076700E+03  0.88551076700E+03  0.00000000000E+00 0. -1.
        -24    2    1    2    0    0  0.33962739626E+02  0.84734728844E+02 -0.61482601409E+03  0.62683537051E+03  0.81105561866E+02 0.  0.
         25    2    1    2    0    0 -0.18513264282E+01 -0.81585985910E+02 -0.23885996962E+03  0.28171168317E+03  0.12509071445E+03 0.  0.
         24    2    1    2    0    0 -0.32111413198E+02 -0.31487429335E+01  0.43625857062E+03  0.44504706723E+03  0.81879754365E+02 0.  0.
        -11    1    5    5    0    0 -0.56539745462E+02  0.11176335772E+02  0.24401269900E+03  0.25072664512E+03  0.00000000000E+00 0.  1.
         12    1    5    5    0    0  0.24428332263E+02 -0.14325078706E+02  0.19224587162E+03  0.19432042212E+03  0.00000000000E+00 0. -1.
         11    1    3    3    0    0 -0.92288316101E+00  0.46429895631E+02 -0.48247774991E+03  0.48470750569E+03  0.00000000000E+00 0. -1.
        -12    1    3    3    0    0  0.34885622787E+02  0.38304833213E+02 -0.13234826418E+03  0.14212786482E+03  0.00000000000E+00 0.  1.
          5    1    4    4  501    0  0.19472347333E+02 -0.35559475169E+02 -0.34952562783E+01  0.40906451831E+02  0.41800000000E+01 0. -1.
         -5    1    4    4    0  501 -0.21323673761E+02 -0.46026510741E+02 -0.23536471334E+03  0.24080523134E+03  0.41800000000E+01 0. -1.
</event>
<event>
11    1  0.8039394E-009  0.1366692E+03  0.7561462E-02  0.1111336E+00
         22   -1    0    0    0    0  0.00000000000E+00  0.00000000000E+00  0.60777115482E+03  0.60777115482E+03  0.00000000000E+00 0. -1.
         22   -1    0    0    0    0 -0.00000000000E+00 -0.00000000000E+00 -0.23710215812E+03  0.23710215812E+03  0.00000000000E+00 0.  1.
         24    2    1    2    0    0 -0.48275488271E+02 -0.21407530570E+02 -0.13965625603E+03  0.16966054023E+03  0.80573096811E+02 0.  0.
         25    2    1    2    0    0  0.58475548522E+02  0.27001804142E+02 -0.17504610038E+02  0.14177912583E+03  0.12508565844E+03 0.  0.
        -24    2    1    2    0    0 -0.10200060252E+02 -0.55942735716E+01  0.52782986277E+03  0.53343364688E+03  0.76234863866E+02 0.  0.
        -13    1    3    3    0    0 -0.35129963716E+02 -0.24729635982E+02 -0.14775035318E+03  0.15386954251E+03  0.00000000000E+00 0.  1.
         14    1    3    3    0    0 -0.13145524555E+02  0.33221054121E+01  0.80940971546E+01  0.15790997718E+02  0.00000000000E+00 0. -1.
         13    1    5    5    0    0 -0.34851535812E+02  0.16793636166E+02  0.37654564393E+03  0.37852777669E+03  0.00000000000E+00 0. -1.
        -14    1    5    5    0    0  0.24651475560E+02 -0.22387909738E+02  0.15128421884E+03  0.15490587019E+03  0.00000000000E+00 0.  1.
          5    1    4    4  501    0  0.54726418620E+02 -0.29092096514E+02 -0.47242065164E+02  0.78042399345E+02  0.41800000000E+01 0.  1.
         -5    1    4    4    0  501  0.37491299021E+01  0.56093900656E+02  0.29737455126E+02  0.63736726487E+02  0.41800000000E+01 0.  1.
</event>
<event>
11    1  0.8039394E-009  0.3158864E+03  0.7561462E-02  0.9936832E-01
         22   -1    0    0    0    0  0.00000000000E+00  0.00000000000E+00  0.92044066958E+03  0.92044066958E+03  0.00000000000E+00 0.  1.
         22   -1    0    0    0    0 -0.00000000000E+00 -0.00000000000E+00 -0.15111735286E+04  0.15111735286E+04  0.00000000000E+00 0. -1.
         24    2    1    2    0    0  0.15861353676E+02 -0.79922653201E+02 -0.13071535997E+04  0.13121636526E+04  0.80521455945E+02 0.  0.
         25    2    1    2    0    0 -0.62815331551E+02  0.35396651862E+03  0.39154562923E+02  0.38264078539E+03  0.12507129434E+03 0.  0.
        -24    2    1    2    0    0  0.46953977874E+02 -0.27404386542E+03  0.67726617778E+03  0.73680976020E+03  0.83032710122E+02 0.  0.
        -13    1    3    3    0    0 -0.20669741792E+02  0.53999353264E+01 -0.28887988343E+03  0.28966874975E+03  0.00000000000E+00 0.  1.
         14    1    3    3    0    0  0.36531095468E+02 -0.85322588527E+02 -0.10182737163E+04  0.10224949028E+04  0.00000000000E+00 0. -1.
         11    1    5    5    0    0 -0.32722334707E+01 -0.49553407538E+02  0.58907754495E+02  0.77047850393E+02  0.00000000000E+00 0. -1.
        -12    1    5    5    0    0  0.50226211345E+02 -0.22449045788E+03  0.61835842329E+03  0.65976190981E+03  0.00000000000E+00 0.  1.
          5    1    4    4  501    0  0.32299654744E+02  0.59748236541E+02 -0.12297423132E+02  0.69150694010E+02  0.41800000000E+01 0. -1.
         -5    1    4    4    0  501 -0.95114986294E+02  0.29421828208E+03  0.51451986055E+02  0.31349009138E+03  0.41800000000E+01 0. -1.
</event>
<event>
11    1  0.8039394E-009  0.1593221E+03  0.7561462E-02  0.1087717E+00
         22   -1    0    0    0    0  0.00000000000E+00  0.00000000000E+00  0.86313275435E+03  0.86313275435E+03  0.00000000000E+00 0.  1.
         22   -1    0    0    0    0 -0.00000000000E+00 -0.00000000000E+00 -0.21933881077E+03  0.21933881077E+03  0.00000000000E+00 0. -1.
         24    2    1    2    0    0  0.76788717504E+02  0.64357959566E+02 -0.18156132983E+03  0.21780324909E+03  0.66597933378E+02 0.  0.
         25    2    1    2    0    0 -0.48847975470E+02 -0.52167280269E+02  0.31432414333E+03  0.34576694746E+03  0.12509022759E+03 0.  0.
        -24    2    1    2    0    0 -0.27940742034E+02 -0.12190679297E+02  0.51103113008E+03  0.51890136856E+03  0.84714323815E+02 0.  0.
        -13    1    3    3    0    0  0.64579678869E+01  0.83495376813E+01  0.42533177909E+01  0.11380282991E+02  0.00000000000E+00 0.  1.
         14    1    3    3    0    0  0.70330749617E+02  0.56008421885E+02 -0.18581464762E+03  0.20642296610E+03  0.00000000000E+00 0. -1.
         11    1    5    5    0    0  0.22408455103E+02 -0.22678610088E+02  0.10816711666E+03  0.11276782938E+03  0.00000000000E+00 0. -1.
        -12    1    5    5    0    0 -0.50349197137E+02  0.10487930791E+02  0.40286401342E+03  0.40613353918E+03  0.00000000000E+00 0.  1.
          5    1    4    4  501    0 -0.85680759919E+02 -0.50281494455E+02  0.17190549958E+03  0.19859102319E+03  0.41800000000E+01 0. -1.
         -5    1    4    4    0  501  0.36832784449E+02 -0.18857858139E+01  0.14241864375E+03  0.14717592427E+03  0.41800000000E+01 0. -1.
</event>
<event>
11    1  0.8039394E-009  0.1858994E+03  0.7561462E-02  0.1064968E+00
         22   -1    0    0    0    0  0.00000000000E+00  0.00000000000E+00  0.18301346912E+04  0.18301346912E+04  0.00000000000E+00 0.  1.
         22   -1    0    0    0    0 -0.00000000000E+00 -0.00000000000E+00 -0.51292336121E+02  0.51292336121E+02  0.00000000000E+00 0. -1.
         24    2    1    2    0    0 -0.34152338253E+02 -0.13910486423E+03  0.24787714306E+03  0.29710158814E+03  0.79433809942E+02 0.  0.
         25    2    1    2    0    0  0.77020459826E+02 -0.35095158483E+02  0.28122621376E+03  0.31922476567E+03  0.12510973714E+03 0.  0.
        -24    2    1    2    0    0 -0.42868121573E+02  0.17420002271E+03  0.12497389983E+04  0.12651006735E+04  0.80304586518E+02 0.  0.
        -13    1    3    3    0    0 -0.36187724634E+02 -0.14509941238E+02  0.53164975322E+02  0.65928782864E+02  0.00000000000E+00 0.  1.
         14    1    3    3    0    0  0.20353863816E+01 -0.12459492299E+03  0.19471216774E+03  0.23117280527E+03  0.00000000000E+00 0. -1.
         13    1    5    5    0    0 -0.62772535543E+02  0.94518924917E+02  0.66247424801E+03  0.67212078353E+03  0.00000000000E+00 0. -1.
        -14    1    5    5    0    0  0.19904413970E+02  0.79681097793E+02  0.58726475026E+03  0.59297988999E+03  0.00000000000E+00 0.  1.
          5    1    4    4  501    0  0.64884057712E+02 -0.73695239194E+01  0.28115781790E+03  0.28867185834E+03  0.41800000000E+01 0.  1.
         -5    1    4    4    0  501  0.12136402114E+02 -0.27725634564E+02  0.68395859260E-01  0.30552907329E+02  0.41800000000E+01 0.  1.
</event>
<event>
11    1  0.8039394E-009  0.1532478E+03  0.7561462E-02  0.1093606E+00
         22   -1    0    0    0    0  0.00000000000E+00  0.00000000000E+00  0.53300839781E+03  0.53300839781E+03  0.00000000000E+00 0.  1.
         22   -1    0    0    0    0 -0.00000000000E+00 -0.00000000000E+00 -0.21469333188E+03  0.21469333188E+03  0.00000000000E+00 0.  1.
        -24    2    1    2    0    0  0.15161733539E+01  0.73424624138E+01 -0.13487331976E+03  0.15822382167E+03  0.82387831772E+02 0.  0.
         25    2    1    2    0    0 -0.41810095828E+02  0.72306116804E+02  0.35239268134E+02  0.15448488698E+03  0.12509003016E+03 0.  0.
         24    2    1    2    0    0  0.40293922474E+02 -0.79648579217E+02  0.41794911756E+03  0.43499302105E+03  0.81055333726E+02 0.  0.
        -13    1    5    5    0    0  0.21067591453E+02 -0.49854231794E+02  0.37682726665E+03  0.38069420369E+03  0.00000000000E+00 0.  1.
         14    1    5    5    0    0  0.19226331022E+02 -0.29794347423E+02  0.41121850919E+02  0.54298817353E+02  0.00000000000E+00 0. -1.
         11    1    3    3    0    0  0.80712269562E+01  0.38369383997E+02 -0.32112110431E+02  0.50680785010E+02  0.00000000000E+00 0. -1.
        -12    1    3    3    0    0 -0.65550536023E+01 -0.31026921584E+02 -0.10276120933E+03  0.10754303666E+03  0.00000000000E+00 0.  1.
          5    1    4    4  501    0 -0.56413564821E+02  0.29554537653E+02 -0.33532073001E+02  0.72096000662E+02  0.41800000000E+01 0.  1.
         -5    1    4    4    0  501  0.14603468993E+02  0.42751579151E+02  0.68771341135E+02  0.82388886314E+02  0.41800000000E+01 0.  1.
</event>
<event>
11    1  0.8039394E-009  0.7717854E+03  0.7561462E-02  0.8932728E-01
         22   -1    0    0    0    0  0.00000000000E+00  0.00000000000E+00  0.68741081948E+03  0.68741081948E+03  0.00000000000E+00 0.  1.
         22   -1    0    0    0    0 -0.00000000000E+00 -0.00000000000E+00 -0.21662906451E+03  0.21662906451E+03  0.00000000000E+00 0.  1.
        -24    2    1    2    0    0  0.18583844098E+03 -0.40362081281E+02 -0.43251986905E+02  0.21056154903E+03  0.79375108232E+02 0.  0.
         25    2    1    2    0    0 -0.28904078513E+03  0.57624861285E+02  0.43406795165E+03  0.53938144293E+03  0.12510856975E+03 0.  0.
         24    2    1    2    0    0  0.10320234415E+03 -0.17262780004E+02  0.79965790231E+02  0.15409689203E+03  0.80016230326E+02 0.  0.
        -11    1    5    5    0    0  0.89311331380E+02  0.12286141218E+02  0.81330651806E+02  0.12141720678E+03  0.00000000000E+00 0.  1.
         12    1    5    5    0    0  0.13891012766E+02 -0.29548921222E+02 -0.13648615749E+01  0.32679685252E+02  0.00000000000E+00 0. -1.
         13    1    3    3    0    0  0.47784239169E+02  0.13528913079E+02 -0.37535023369E+02  0.62251449633E+02  0.00000000000E+00 0. -1.
        -14    1    3    3    0    0  0.13805420181E+03 -0.53890994360E+02 -0.57169635362E+01  0.14831009940E+03  0.00000000000E+00 0.  1.
          5    1    4    4  501    0 -0.15200252639E+01 -0.16434160981E+02  0.52959492459E+01  0.17830075782E+02  0.41800000000E+01 0.  1.
         -5    1    4    4    0  501 -0.28752075986E+03  0.74059022267E+02  0.42877200240E+03  0.52155136715E+03  0.41800000000E+01 0.  1.
</event>
<event>
11    1  0.8039394E-009  0.1723783E+03  0.7561462E-02  0.1075980E+00
         22   -1    0    0    0    0  0.00000000000E+00  0.00000000000E+00  0.25767623163E+03  0.25767623163E+03  0.00000000000E+00 0.  1.
         22   -1    0    0    0    0 -0.00000000000E+00 -0.00000000000E+00 -0.54250009885E+03  0.54250009885E+03  0.00000000000E+00 0. -1.
        -24    2    1    2    0    0 -0.15564322102E+02  0.82080572121E+01 -0.43175038393E+03  0.43948442837E+03  0.80178229155E+02 0.  0.
         25    2    1    2    0    0  0.83221945113E+02 -0.99326499208E+02  0.39063020450E+02  0.18429636248E+03  0.12509030363E+03 0.  0.
         24    2    1    2    0    0 -0.67657623011E+02  0.91118441996E+02  0.10786349626E+03  0.17639553964E+03  0.81244865406E+02 0.  0.
        -11    1    5    5    0    0 -0.54422259088E+02  0.86544848410E+02  0.12015528741E+03  0.15776275278E+03  0.00000000000E+00 0.  1.
         12    1    5    5    0    0 -0.13235363923E+02  0.45735935866E+01 -0.12291791152E+02  0.18632786860E+02  0.00000000000E+00 0. -1.
         13    1    3    3    0    0 -0.16487146051E+02 -0.21784717024E+02 -0.36813248087E+03  0.36914485416E+03  0.00000000000E+00 0. -1.
        -14    1    3    3    0    0  0.92282394925E+00  0.29992774236E+02 -0.63617903061E+02  0.70339574212E+02  0.00000000000E+00 0.  1.
          5    1    4    4  501    0  0.45910232404E+02 -0.11080827337E+03 -0.11177168763E+02  0.12053474349E+03  0.41800000000E+01 0. -1.
         -5    1    4    4    0  501  0.37311712709E+02  0.11481774165E+02  0.50240189214E+02  0.63761618984E+02  0.41800000000E+01 0. -1.
</event>
<event>
11    1  0.8039394E-009  0.1508551E+03  0.7561462E-02  0.1096008E+00
         22   -1    0    0    0    0  0.00000000000E+00  0.00000000000E+00  0.47341577085E+03  0.47341577085E+03  0.00000000000E+00 0.  1.
         22   -1    0    0    0    0 -0.00000000000E+00 -0.00000000000E+00 -0.18529348415E+03  0.18529348415E+03  0.00000000000E+00 0. -1.
         24    2    1    2    0    0 -0.20665736706E+02 -0.41465645845E+02 -0.12966219821E+03  0.15886326732E+03  0.79238750627E+02 0.  0.
         25    2    1    2    0    0  0.61081356228E+02  0.96002322991E+02  0.24564704292E+03  0.29822312706E+03  0.12508871140E+03 0.  0.
        -24    2    1    2    0    0 -0.40415619522E+02 -0.54536677146E+02  0.17213744199E+03  0.20162286063E+03  0.80080007093E+02 0.  0.
        -13    1    3    3    0    0 -0.15208617748E+02  0.21924094847E+02 -0.26145628921E+02  0.37357220190E+02  0.00000000000E+00 0.  1.
         14    1    3    3    0    0 -0.54571189580E+01 -0.63389740692E+02 -0.10351656929E+03  0.12150604713E+03  0.00000000000E+00 0. -1.
         13    1    5    5    0    0  0.22410604521E+02 -0.25342785224E+02  0.39692169386E+02  0.52153238332E+02  0.00000000000E+00 0. -1.
        -14    1    5    5    0    0 -0.62826224044E+02 -0.29193891922E+02  0.13244527260E+03  0.14946962229E+03  0.00000000000E+00 0.  1.
          5    1    4    4  501    0  0.80689230907E+01  0.68606411809E+02  0.22426038419E+03  0.23469584482E+03  0.41800000000E+01 0. -1.
         -5    1    4    4    0  501  0.53012433138E+02  0.27395911182E+02  0.21386658736E+02  0.63527282238E+02  0.41800000000E+01 0. -1.
</event>
<event>
11    1  0.8039394E-009  0.2367426E+03  0.7561462E-02  0.1031209E+00
         22   -1    0    0    0    0  0.00000000000E+00  0.00000000000E+00  0.66521681623E+03  0.66521681623E+03  0.00000000000E+00 0.  1.
         22   -1    0    0    0    0 -0.00000000000E+00 -0.00000000000E+00 -0.86508562519E+03  0.86508562519E+03  0.00000000000E+00 0. -1.
        -24    2    1    2    0    0  0.19180563116E+02  0.18953641869E+03 -0.53005910095E+03  0.56887147527E+03  0.79750591693E+02 0.  0.
         25    2    1    2    0    0 -0.82745402320E+02 -0.22332408318E+03 -0.24949313497E+03  0.36689854630E+03  0.12508905285E+03 0.  0.
         24    2    1    2    0    0  0.63564839205E+02  0.33787664493E+02  0.57968342695E+03  0.59453241985E+03  0.11069700862E+03 0.  0.
        -13    1    5    5    0    0  0.79102959877E+02  0.26076523215E+02  0.56689650969E+03  0.57298247445E+03  0.00000000000E+00 0.  1.
         14    1    5    5    0    0 -0.15538120672E+02  0.77111412780E+01  0.12786917259E+02  0.21549945402E+02  0.00000000000E+00 0. -1.
         11    1    3    3    0    0  0.21269765701E+02  0.18948390919E+02 -0.14410888332E+03  0.14689729304E+03  0.00000000000E+00 0. -1.
        -12    1    3    3    0    0 -0.20892025856E+01  0.17058802777E+03 -0.38595021763E+03  0.42197418223E+03  0.00000000000E+00 0.  1.
          5    1    4    4  501    0 -0.39696599595E+01 -0.13536334704E+03 -0.71324928477E+02  0.15311339505E+03  0.41800000000E+01 0.  1.
         -5    1    4    4    0  501 -0.78775742361E+02 -0.87960736141E+02 -0.17816820650E+03  0.21378515125E+03  0.41800000000E+01 0.  1.
</event>
<event>
11    1  0.8039394E-009  0.1897783E+03  0.7561462E-02  0.1061997E+00
         22   -1    0    0    0    0  0.00000000000E+00  0.00000000000E+00  0.92335291623E+03  0.92335291623E+03  0.00000000000E+00 0.  1.
         22   -1    0    0    0    0 -0.00000000000E+00 -0.00000000000E+00 -0.56302762388E+03  0.56302762388E+03  0.00000000000E+00 0.  1.
         24    2    1    2    0    0  0.53303227563E+02 -0.12892787358E+03 -0.47967884247E+03  0.50612703346E+03  0.81296687683E+02 0.  0.
         25    2    1    2    0    0 -0.81038873421E+02  0.17140816954E+03  0.12601367715E+03  0.25976252604E+03  0.12509621704E+03 0.  0.
        -24    2    1    2    0    0  0.27735645858E+02 -0.42480295961E+02  0.71399045767E+03  0.72049098060E+03  0.82164699719E+02 0.  0.
        -11    1    3    3    0    0  0.74206657370E+02 -0.97354117500E+02 -0.39065367042E+03  0.40938336850E+03  0.00000000000E+00 0.  1.
         12    1    3    3    0    0 -0.20903429807E+02 -0.31573756081E+02 -0.89025172058E+02  0.96743664965E+02  0.00000000000E+00 0. -1.
         11    1    5    5    0    0  0.41016493394E+02 -0.38719878554E+02  0.24954071031E+03  0.25583617380E+03  0.00000000000E+00 0. -1.
        -12    1    5    5    0    0 -0.13280847536E+02 -0.37604174078E+01  0.46444974736E+03  0.46465480679E+03  0.00000000000E+00 0.  1.
          5    1    4    4  501    0 -0.11199257323E+03  0.15608322342E+03  0.10260795655E+03  0.21783060905E+03  0.41800000000E+01 0.  1.
         -5    1    4    4    0  501  0.30953699814E+02  0.15324946124E+02  0.23405720597E+02  0.41931916991E+02  0.41800000000E+01 0.  1.
</event>
<event>
11    1  0.8039394E-009  0.1437518E+03  0.7561462E-02  0.1103440E+00
         22   -1    0    0    0    0  0.00000000000E+00  0.00000000000E+00  0.15128439304E+04  0.15128439304E+04  0.00000000000E+00 0. -1.
         22   -1    0    0    0    0 -0.00000000000E+00 -0.00000000000E+00 -0.41662554796E+02  0.41662554796E+02  0.00000000000E+00 0.  1.
        -24    2    1    2    0    0 -0.34277796811E+02 -0.50294984237E+01  0.39420707586E+02  0.97431828757E+02  0.82089620901E+02 0.  0.
         25    2    1    2    0    0 -0.31150647558E+02  0.46305450378E+02  0.48974310525E+03  0.50853849325E+03  0.12509409419E+03 0.  0.
         24    2    1    2    0    0  0.65428444369E+02 -0.41275951955E+02  0.94201756272E+03  0.94853616314E+03  0.79618959861E+02 0.  0.
        -13    1    5    5    0    0  0.68402972967E+02 -0.31601986671E+02  0.43920025543E+03  0.44561700668E+03  0.00000000000E+00 0.  1.
         14    1    5    5    0    0 -0.29745285977E+01 -0.96739652835E+01  0.50281730729E+03  0.50291915646E+03  0.00000000000E+00 0. -1.
         13    1    3    3    0    0 -0.37230872337E+02  0.33472257842E+02  0.26921147381E+02  0.56844331963E+02  0.00000000000E+00 0. -1.
        -14    1    3    3    0    0  0.29530755266E+01 -0.38501756266E+02  0.12499560206E+02  0.40587496794E+02  0.00000000000E+00 0.  1.
          5    1    4    4  501    0 -0.42923988043E+02  0.30526383887E+02  0.67051703296E+02  0.85368215265E+02  0.41800000000E+01 0. -1.
         -5    1    4    4    0  501  0.11773340484E+02  0.15779066492E+02  0.42269140196E+03  0.42317027799E+03  0.41800000000E+01 0. -1.
</event>
<event>
11    1  0.8039394E-009  0.1383286E+03  0.7561462E-02  0.1109439E+00
         22   -1    0    0    0    0  0.00000000000E+00  0.00000000000E+00  0.13405571574E+04  0.13405571574E+04  0.00000000000E+00 0. -1.
         22   -1    0    0    0    0 -0.00000000000E+00 -0.00000000000E+00 -0.63545926759E+02  0.63545926759E+02  0.00000000000E+00 0.  1.
         24    2    1    2    0    0  0.34012455925E+01  0.21978331817E+02 -0.17277784673E+02  0.82565380420E+02  0.77613817453E+02 0.  0.
         25    2    1    2    0    0 -0.59165219193E+02 -0.34050036081E+02  0.47080877681E+03  0.49190402151E+03  0.12509489974E+03 0.  0.
        -24    2    1    2    0    0  0.55763973601E+02  0.12071704264E+02  0.82348023853E+03  0.82963368225E+03  0.83168483702E+02 0.  0.
        -11    1    3    3    0    0 -0.17787854308E+02 -0.72801468839E+01 -0.36789526462E+02  0.41507560237E+02  0.00000000000E+00 0.  1.
         12    1    3    3    0    0  0.21189099900E+02  0.29258478701E+02  0.19511741789E+02  0.41057820182E+02  0.00000000000E+00 0. -1.
         11    1    5    5    0    0  0.51054648533E+02 -0.16751358804E+02  0.72303288358E+03  0.72502671392E+03  0.00000000000E+00 0. -1.
        -12    1    5    5    0    0  0.47093250679E+01  0.28823063068E+02  0.10044735495E+03  0.10460696833E+03  0.00000000000E+00 0.  1.
          5    1    4    4  501    0 -0.47589102105E+01  0.21545083654E+02  0.10044145821E+02  0.24600713838E+02  0.41800000000E+01 0. -1.
         -5    1    4    4    0  501 -0.54406308983E+02 -0.55595119735E+02  0.46076463099E+03  0.46730330767E+03  0.41800000000E+01 0. -1.
</event>
<event>
11    1  0.8039394E-009  0.1614003E+03  0.7561462E-02  0.1085768E+00
         22   -1    0    0    0    0  0.00000000000E+00  0.00000000000E+00  0.27656542839E+03  0.27656542839E+03  0.00000000000E+00 0.  1.
         22   -1    0    0    0    0 -0.00000000000E+00 -0.00000000000E+00 -0.86091907306E+03  0.86091907306E+03  0.00000000000E+00 0. -1.
         24    2    1    2    0    0  0.44775625563E+02  0.29351898046E+01 -0.63641790657E+03  0.64316160457E+03  0.81336497399E+02 0.  0.
         25    2    1    2    0    0 -0.48039369988E+02 -0.10446454989E+03 -0.16802949910E+03  0.23896040740E+03  0.12509012945E+03 0.  0.
        -24    2    1    2    0    0  0.32637444251E+01  0.10152936009E+03  0.22009376100E+03  0.25536248948E+03  0.80311110181E+02 0.  0.
        -13    1    3    3    0    0  0.89774918582E+01 -0.24825377265E+02 -0.68047300614E+02  0.72988559632E+02  0.00000000000E+00 0.  1.
         14    1    3    3    0    0  0.35798133705E+02  0.27760567069E+02 -0.56837060596E+03  0.57017304494E+03  0.00000000000E+00 0. -1.
         11    1    5    5    0    0 -0.13438587132E+02 -0.11287750156E+01  0.18629598057E+01  0.13613977243E+02  0.00000000000E+00 0. -1.
        -12    1    5    5    0    0  0.16702331557E+02  0.10265813510E+03  0.21823080119E+03  0.24174851224E+03  0.00000000000E+00 0.  1.
          5    1    4    4  501    0 -0.86763445224E+02 -0.96791621249E+02 -0.12433270995E+03  0.17992389651E+03  0.41800000000E+01 0.  1.
         -5    1    4    4    0  501  0.38724075236E+02 -0.76729286411E+01 -0.43696789141E+02  0.59036510890E+02  0.41800000000E+01 0.  1.
</event>
<event>
11    1  0.8039394E-009  0.1513968E+03  0.7561462E-02  0.1095460E+00
         22   -1    0    0    0    0  0.00000000000E+00  0.00000000000E+00  0.24666708056E+03  0.24666708056E+03  0.00000000000E+00 0. -1.
         22   -1    0    0    0    0 -0.00000000000E+00 -0.00000000000E+00 -0.80347263210E+03  0.80347263210E+03  0.00000000000E+00 0. -1.
         24    2    1    2    0    0 -0.88787018901E+01  0.76397280497E+02 -0.49998818293E+03  0.51216504175E+03  0.80059172533E+02 0.  0.
         25    2    1    2    0    0 -0.89886662765E+01 -0.12428112217E+03 -0.25934856770E+03  0.31372911831E+03  0.12505073634E+03 0.  0.
        -24    2    1    2    0    0  0.17867368167E+02  0.47883841670E+02  0.20253119910E+03  0.22424555260E+03  0.81578649875E+02 0.  0.
        -13    1    3    3    0    0 -0.11617957975E+02 -0.13555321494E+02 -0.13836451366E+03  0.13951151325E+03  0.00000000000E+00 0.  1.
         14    1    3    3    0    0  0.27392560846E+01  0.89952601992E+02 -0.36162366927E+03  0.37265352851E+03  0.00000000000E+00 0. -1.
         11    1    5    5    0    0 -0.16144893741E+02  0.31365854043E+02  0.17218854543E+03  0.17576509771E+03  0.00000000000E+00 0. -1.
        -12    1    5    5    0    0  0.34012261907E+02  0.16517987628E+02  0.30342653664E+02  0.48480454893E+02  0.00000000000E+00 0.  1.
          5    1    4    4  501    0  0.42254009223E+02 -0.11648818570E+03 -0.19367000287E+03  0.22995747675E+03  0.41800000000E+01 0. -1.
         -5    1    4    4    0  501 -0.51242675500E+02 -0.77929364687E+01 -0.65678564825E+02  0.83771641554E+02  0.41800000000E+01 0. -1.
</event>
<event>
11    1  0.8039394E-009  0.2838526E+03  0.7561462E-02  0.1007267E+00
         22   -1    0    0    0    0  0.00000000000E+00  0.00000000000E+00  0.16192679918E+04  0.16192679918E+04  0.00000000000E+00 0.  1.
         22   -1    0    0    0    0 -0.00000000000E+00 -0.00000000000E+00 -0.10626770362E+04  0.10626770362E+04  0.00000000000E+00 0.  1.
        -24    2    1    2    0    0  0.53156758049E+02 -0.12909551477E+02 -0.98519306654E+03  0.99000470918E+03  0.80694785378E+02 0.  0.
         25    2    1    2    0    0 -0.61958658500E+01  0.26259792851E+03  0.28528384843E+03  0.40746887350E+03  0.12509175784E+03 0.  0.
         24    2    1    2    0    0 -0.46960892199E+02 -0.24968837704E+03  0.12565001737E+04  0.12844714454E+04  0.80774973167E+02 0.  0.
        -11    1    5    5    0    0 -0.57358788226E+02 -0.24380465322E+03  0.11308234778E+04  0.11582281630E+04  0.00000000000E+00 0.  1.
         12    1    5    5    0    0  0.10397896027E+02 -0.58837238173E+01  0.12567669594E+03  0.12624328240E+03  0.00000000000E+00 0. -1.
         11    1    3    3    0    0  0.16626321200E+02  0.98927554902E+01 -0.47031213830E+02  0.50855051294E+02  0.00000000000E+00 0. -1.
        -12    1    3    3    0    0  0.36530436849E+02 -0.22802306967E+02 -0.93816185271E+03  0.93914965789E+03  0.00000000000E+00 0.  1.
          5    1    4    4  501    0  0.48691744972E+02  0.54532135072E+02  0.50422413791E+02  0.88907434990E+02  0.41800000000E+01 0.  1.
         -5    1    4    4    0  501 -0.54887610823E+02  0.20806579344E+03  0.23486143464E+03  0.31856143851E+03  0.41800000000E+01 0.  1.
</event>
<event>
11    1  0.8039394E-009  0.1748772E+03  0.7561462E-02  0.1073864E+00
         22   -1    0    0    0    0  0.00000000000E+00  0.00000000000E+00  0.12956125225E+03  0.12956125225E+03  0.00000000000E+00 0. -1.
         22   -1    0    0    0    0 -0.00000000000E+00 -0.00000000000E+00 -0.22932957661E+04  0.22932957661E+04  0.00000000000E+00 0. -1.
        -24    2    1    2    0    0 -0.12262529778E+02 -0.10931422959E+02 -0.16816875722E+04  0.16839889934E+04  0.86463714396E+02 0.  0.
         25    2    1    2    0    0  0.11251680401E+03 -0.58417502782E+02 -0.54945499374E+03  0.57759953599E+03  0.12509115883E+03 0.  0.
         24    2    1    2    0    0 -0.10025427423E+03  0.69348925741E+02  0.67408052098E+02  0.16126848889E+03  0.81261842332E+02 0.  0.
        -11    1    5    5    0    0 -0.10754668102E+02  0.54382543256E+02  0.20375763826E+02  0.59061795168E+02  0.00000000000E+00 0.  1.
         12    1    5    5    0    0 -0.89499606131E+02  0.14966382484E+02  0.47032288273E+02  0.10220669373E+03  0.00000000000E+00 0. -1.
         13    1    3    3    0    0  0.14876794528E+02 -0.12741253279E+02 -0.15126713082E+04  0.15127981178E+04  0.00000000000E+00 0. -1.
        -14    1    3    3    0    0 -0.27139324306E+02  0.18098303200E+01 -0.16901626402E+03  0.17119087567E+03  0.00000000000E+00 0.  1.
          5    1    4    4  501    0  0.27831383961E+02 -0.62046000313E+02 -0.10536533643E+03  0.12547357734E+03  0.41800000000E+01 0. -1.
         -5    1    4    4    0  501  0.84685420050E+02  0.36284975306E+01 -0.44408965730E+03  0.45212595865E+03  0.41800000000E+01 0. -1.
</event>
<event>
11    1  0.8039394E-009  0.2550480E+03  0.7561462E-02  0.1021244E+00
         22   -1    0    0    0    0  0.00000000000E+00  0.00000000000E+00  0.19449727128E+03  0.19449727128E+03  0.00000000000E+00 0. -1.
         22   -1    0    0    0    0 -0.00000000000E+00 -0.00000000000E+00 -0.17156343982E+04  0.17156343982E+04  0.00000000000E+00 0. -1.
        -24    2    1    2    0    0  0.53812152854E+02  0.33079494329E+02 -0.85694265678E+03  0.86305195048E+03  0.80733831121E+02 0.  0.
         25    2    1    2    0    0 -0.61302356903E+02  0.19201738566E+03 -0.75497934348E+03  0.79137079699E+03  0.12508106924E+03 0.  0.
         24    2    1    2    0    0  0.74902040490E+01 -0.22509687999E+03  0.90784873314E+02  0.25570892203E+03  0.80127717084E+02 0.  0.
        -13    1    5    5    0    0  0.87560834506E+01 -0.93816516181E+02 -0.31520498046E+01  0.94276949058E+02  0.00000000000E+00 0.  1.
         14    1    5    5    0    0 -0.12658794017E+01 -0.13128036381E+03  0.93936923119E+02  0.16143197297E+03  0.00000000000E+00 0. -1.
         13    1    3    3    0    0  0.43831128383E+02 -0.49317896326E+01 -0.69540673691E+03  0.69680414760E+03  0.00000000000E+00 0. -1.
        -14    1    3    3    0    0  0.99810244709E+01  0.38011283962E+02 -0.16153591986E+03  0.16624780289E+03  0.00000000000E+00 0.  1.
          5    1    4    4  501    0 -0.99078516324E+01 -0.10256060958E+01 -0.42679431568E+00  0.10810732872E+02  0.41800000000E+01 0. -1.
         -5    1    4    4    0  501 -0.51394505270E+02  0.19304299175E+03 -0.75455254917E+03  0.78056006412E+03  0.41800000000E+01 0. -1.
</event>
<event>
11    1  0.8039394E-009  0.1335630E+03  0.7561462E-02  0.1114967E+00
         22   -1    0    0    0    0  0.00000000000E+00  0.00000000000E+00  0.42993934457E+03  0.42993934457E+03  0.00000000000E+00 0. -1.
         22   -1    0    0    0    0 -0.00000000000E+00 -0.00000000000E+00 -0.15945051840E+04  0.15945051840E+04  0.00000000000E+00 0. -1.
        -24    2    1    2    0    0  0.49305152692E+02  0.64142765304E+01 -0.79502885694E+03  0.80054531608E+03  0.79559906339E+02 0.  0.
         25    2    1    2    0    0 -0.29746069053E+02 -0.43897086727E+02 -0.78605390140E+03  0.79770928626E+03  0.12509031385E+03 0.  0.
         24    2    1    2    0    0 -0.19559083639E+02  0.37482810196E+02  0.41651691892E+03  0.42618992623E+03  0.79774624181E+02 0.  0.
        -11    1    5    5    0    0  0.90962873922E+01 -0.13121401783E+02  0.20792669182E+02  0.26215429060E+02  0.00000000000E+00 0.  1.
         12    1    5    5    0    0 -0.28655371032E+02  0.50604211979E+02  0.39572424973E+03  0.39997449717E+03  0.00000000000E+00 0. -1.
         13    1    3    3    0    0  0.15176159695E+02 -0.12790518920E+02 -0.65056281016E+03  0.65086548776E+03  0.00000000000E+00 0. -1.
        -14    1    3    3    0    0  0.34128992997E+02  0.19204795451E+02 -0.14446604678E+03  0.14967982831E+03  0.00000000000E+00 0.  1.
          5    1    4    4  501    0 -0.40857585938E+02 -0.76615527904E+02 -0.36456748579E+03  0.37478821425E+03  0.41800000000E+01 0.  1.
         -5    1    4    4    0  501  0.11111516886E+02  0.32718441178E+02 -0.42148641562E+03  0.42292107201E+03  0.41800000000E+01 0.  1.
</event>
<event>
11    1  0.8039394E-009  0.1475576E+03  0.7561462E-02  0.1099401E+00
         22   -1    0    0    0    0  0.00000000000E+00  0.00000000000E+00  0.51716890017E+03  0.51716890017E+03  0.00000000000E+00 0.  1.
         22   -1    0    0    0    0 -0.00000000000E+00 -0.00000000000E+00 -0.50497176679E+03  0.50497176679E+03  0.00000000000E+00 0.  1.
        -24    2    1    2    0    0 -0.69566190883E+02  0.38595818527E+02 -0.36838374744E+03  0.38545964140E+03  0.80891641407E+02 0.  0.
         25    2    1    2    0    0  0.27175067050E+02 -0.88807231176E+02 -0.72442312251E+02  0.17181649536E+03  0.12509121031E+03 0.  0.
         24    2    1    2    0    0  0.42391123834E+02  0.50211412650E+02  0.45302319307E+03  0.46486453020E+03  0.80937164752E+02 0.  0.
        -11    1    5    5    0    0  0.40586675326E+01  0.29438931461E+02  0.36907758425E+03  0.37027204413E+03  0.00000000000E+00 0.  1.
         12    1    5    5    0    0  0.38332456301E+02  0.20772481189E+02  0.83945608819E+02  0.94592486070E+02  0.00000000000E+00 0. -1.
         11    1    3    3    0    0 -0.45811223502E+02 -0.20110508018E+02 -0.15475028813E+03  0.16263687284E+03  0.00000000000E+00 0. -1.
        -12    1    3    3    0    0 -0.23754967381E+02  0.58706326545E+02 -0.21363345931E+03  0.22282276856E+03  0.00000000000E+00 0.  1.
          5    1    4    4  501    0 -0.24455281410E+02 -0.10494535461E+02  0.24818926114E+02  0.36628507434E+02  0.41800000000E+01 0.  1.
         -5    1    4    4    0  501  0.51630348460E+02 -0.78312695715E+02 -0.97261238364E+02  0.13518798793E+03  0.41800000000E+01 0.  1.
</event>
<event>
11    1  0.8039394E-009  0.2619593E+03  0.7561462E-02  0.1017714E+00
         22   -1    0    0    0    0  0.00000000000E+00  0.00000000000E+00  0.16949734643E+04  0.16949734643E+04  0.00000000000E+00 0. -1.
         22   -1    0    0    0    0 -0.00000000000E+00 -0.00000000000E+00 -0.70077453325E+03  0.70077453325E+03  0.00000000000E+00 0.  1.
        -24    2    1    2    0    0 -0.20014374634E+03 -0.12599873125E+03 -0.47410632999E+03  0.53595603992E+03  0.80863249452E+02 0.  0.
         25    2    1    2    0    0  0.15064363906E+03  0.15811483327E+03 -0.11247440364E+03  0.27566676505E+03  0.12509143612E+03 0.  0.
         24    2    1    2    0    0  0.49500107282E+02 -0.32116102019E+02  0.15807796647E+04  0.15841251926E+04  0.84300491779E+02 0.  0.
        -13    1    5    5    0    0  0.40251593398E+01 -0.71069399641E+01  0.12167021722E+02  0.14654245834E+02  0.00000000000E+00 0.  1.
         14    1    5    5    0    0  0.45474947942E+02 -0.25009162055E+02  0.15686126429E+04  0.15694709467E+04  0.00000000000E+00 0. -1.
         13    1    3    3    0    0 -0.27035602358E+02 -0.12968094750E+00 -0.11296746926E+03  0.11615760726E+03  0.00000000000E+00 0. -1.
        -14    1    3    3    0    0 -0.17310814399E+03 -0.12586905030E+03 -0.36113886073E+03  0.41979843266E+03  0.00000000000E+00 0.  1.
          5    1    4    4  501    0  0.35015982925E+02  0.38198417431E+02  0.26803548539E+02  0.58490518623E+02  0.41800000000E+01 0. -1.
         -5    1    4    4    0  501  0.11562765614E+03  0.11991641584E+03 -0.13927795217E+03  0.21717624643E+03  0.41800000000E+01 0. -1.
</event>
<event>
11    1  0.8039394E-009  0.1295743E+03  0.7561462E-02  0.1119793E+00
         22   -1    0    0    0    0  0.00000000000E+00  0.00000000000E+00  0.43504477079E+03  0.43504477079E+03  0.00000000000E+00 0. -1.
         22   -1    0    0    0    0 -0.00000000000E+00 -0.00000000000E+00 -0.15534778498E+03  0.15534778498E+03  0.00000000000E+00 0.  1.
        -24    2    1    2    0    0 -0.49916245295E+02  0.15457595021E+02 -0.81384849306E+02  0.12622889083E+03  0.81115167486E+02 0.  0.
         25    2    1    2    0    0  0.33918752705E+02  0.21125982681E+02  0.65205898371E+02  0.14661739051E+03  0.12509221034E+03 0.  0.
         24    2    1    2    0    0  0.15997492589E+02 -0.36583577701E+02  0.29587593675E+03  0.31754627443E+03  0.10816093809E+03 0.  0.
        -13    1    5    5    0    0  0.37058891162E+01 -0.50087072690E+02  0.49577155722E+02  0.70571544083E+02  0.00000000000E+00 0.  1.
         14    1    5    5    0    0  0.12291603473E+02  0.13503494989E+02  0.24629878103E+03  0.24697473034E+03  0.00000000000E+00 0. -1.
         11    1    3    3    0    0 -0.10125591747E+02  0.29648016127E+02 -0.77753245477E+02  0.83827797601E+02  0.00000000000E+00 0. -1.
        -12    1    3    3    0    0 -0.39790653547E+02 -0.14190421106E+02 -0.36316038296E+01  0.42401093232E+02  0.00000000000E+00 0.  1.
          5    1    4    4  501    0  0.42466790368E+02 -0.50595947603E+01  0.95946697145E+02  0.10512977160E+03  0.41800000000E+01 0.  1.
         -5    1    4    4    0  501 -0.85480376632E+01  0.26185577441E+02 -0.30740798774E+02  0.41487618913E+02  0.41800000000E+01 0.  1.
</event>
<event>
11    1  0.8039394E-009  0.1350763E+03  0.7561462E-02  0.1113185E+00
         22   -1    0    0    0    0  0.00000000000E+00  0.00000000000E+00  0.87254468557E+02  0.87254468557E+02  0.00000000000E+00 0.  1.
         22   -1    0    0    0    0 -0.00000000000E+00 -0.00000000000E+00 -0.11007701622E+04  0.11007701622E+04  0.00000000000E+00 0.  1.
        -24    2    1    2    0    0  0.51251246896E+02 -0.20792710576E+02 -0.84681147510E+03  0.85228897228E+03  0.79042968019E+02 0.  0.
         25    2    1    2    0    0 -0.27982122325E+02 -0.15511729461E+02 -0.19893646306E+03  0.23716002215E+03  0.12508216041E+03 0.  0.
         24    2    1    2    0    0 -0.23269124571E+02  0.36304440037E+02  0.32232244495E+02  0.98575636342E+02  0.82575867966E+02 0.  0.
        -13    1    5    5    0    0 -0.32039711764E+02  0.59593556757E+02  0.28473156233E+02  0.73407463944E+02  0.00000000000E+00 0.  1.
         14    1    5    5    0    0  0.87705871931E+01 -0.23289116720E+02  0.37590882618E+01  0.25168172398E+02  0.00000000000E+00 0. -1.
         13    1    3    3    0    0  0.45805495449E+02  0.70787491373E+01 -0.21974962745E+03  0.22458439586E+03  0.00000000000E+00 0. -1.
        -14    1    3    3    0    0  0.54457514471E+01 -0.27871459713E+02 -0.62706184765E+03  0.62770457641E+03  0.00000000000E+00 0.  1.
          5    1    4    4  501    0 -0.14227538617E+02 -0.46153234143E+02 -0.15896083110E+02  0.51016680950E+02  0.41800000000E+01 0.  1.
         -5    1    4    4    0  501 -0.13754583708E+02  0.30641504682E+02 -0.18304037995E+03  0.18614334120E+03  0.41800000000E+01 0.  1.
</event>
<event>
11    1  0.8039394E-009  0.1336924E+03  0.7561462E-02  0.1114814E+00
         22   -1    0    0    0    0  0.00000000000E+00  0.00000000000E+00  0.14871730560E+03  0.14871730560E+03  0.00000000000E+00 0.  1.
         22   -1    0    0    0    0 -0.00000000000E+00 -0.00000000000E+00 -0.19527940038E+04  0.19527940038E+04  0.00000000000E+00 0. -1.
         24    2    1    2    0    0  0.38632001535E+02  0.25617489268E+02 -0.18256463294E+04  0.18280207786E+04  0.80788364124E+02 0.  0.
         25    2    1    2    0    0 -0.78804160040E+02 -0.36992524259E+02 -0.46455528130E+02  0.15932652631E+03  0.12509309893E+03 0.  0.
        -24    2    1    2    0    0  0.40172158506E+02  0.11375034991E+02  0.68025159339E+02  0.11416400444E+03  0.81625999945E+02 0.  0.
        -11    1    3    3    0    0 -0.17993043793E+02  0.19725743816E+01 -0.12884610093E+03  0.13011133079E+03  0.00000000000E+00 0.  1.
         12    1    3    3    0    0  0.56625045327E+02  0.23644914886E+02 -0.16968002285E+04  0.16979094478E+04  0.00000000000E+00 0. -1.
         13    1    5    5    0    0 -0.14920217800E+02 -0.76368723286E+01  0.50645922313E+02  0.53347391361E+02  0.00000000000E+00 0. -1.
        -14    1    5    5    0    0  0.55092376305E+02  0.19011907320E+02  0.17379237026E+02  0.60816613080E+02  0.00000000000E+00 0.  1.
          5    1    4    4  501    0 -0.17600044973E+02  0.31257636420E+02 -0.56451209864E+02  0.67015020053E+02  0.41800000000E+01 0.  1.
         -5    1    4    4    0  501 -0.61204115067E+02 -0.68250160678E+02  0.99956817338E+01  0.92311506255E+02  0.41800000000E+01 0.  1.
</event>
<event>
11    1  0.8039394E-009  0.1398120E+03  0.7561462E-02  0.1107769E+00
         22   -1    0    0    0    0  0.00000000000E+00  0.00000000000E+00  0.20686074398E+04  0.20686074398E+04  0.00000000000E+00 0.  1.
         22   -1    0    0    0    0 -0.00000000000E+00 -0.00000000000E+00 -0.11348429188E+03  0.11348429188E+03  0.00000000000E+00 0. -1.
         24    2    1    2    0    0 -0.50377834076E+02 -0.36677431885E+02 -0.81936566570E+02  0.13100875746E+03  0.81034149684E+02 0.  0.
         25    2    1    2    0    0  0.52338913828E+02  0.41565881197E+02  0.81009277130E+03  0.82241434684E+03  0.12509186782E+03 0.  0.
        -24    2    1    2    0    0 -0.19610797517E+01 -0.48884493126E+01  0.12269669432E+04  0.12286686274E+04  0.64428048729E+02 0.  0.
        -11    1    3    3    0    0 -0.27686460735E+02 -0.19356119076E+02  0.96039680180E+01  0.35120302610E+02  0.00000000000E+00 0.  1.
         12    1    3    3    0    0 -0.22691373341E+02 -0.17321312808E+02 -0.91540534588E+02  0.95888454853E+02  0.00000000000E+00 0. -1.
         11    1    5    5    0    0  0.27962470191E+02 -0.12406394659E+02  0.42027283638E+03  0.42138471183E+03  0.00000000000E+00 0. -1.
        -12    1    5    5    0    0 -0.29923549943E+02  0.75179453459E+01  0.80669410680E+03  0.80728391554E+03  0.00000000000E+00 0.  1.
          5    1    4    4  501    0  0.27965345276E+01 -0.41946968981E+02  0.18149771833E+03  0.18634984028E+03  0.41800000000E+01 0.  1.
         -5    1    4    4    0  501  0.49542379300E+02  0.83512850179E+02  0.62859505297E+03  0.63606450656E+03  0.41800000000E+01 0.  1.
</event>
<event>
11    1  0.8039394E-009  0.1737037E+03  0.7561462E-02  0.1074853E+00
         22   -1    0    0    0    0  0.00000000000E+00  0.00000000000E+00  0.17010957211E+04  0.17010957211E+04  0.00000000000E+00 0.  1.
         22   -1    0    0    0    0 -0.00000000000E+00 -0.00000000000E+00 -0.23044141538E+03  0.23044141538E+03  0.00000000000E+00 0. -1.
         24    2    1    2    0    0 -0.47841069184E+02  0.84710191062E+02 -0.13615586103E+03  0.18539164312E+03  0.79793849846E+02 0.  0.
         25    2    1    2    0    0  0.14303449993E+03 -0.15126551045E+03  0.15645174555E+03  0.28891168631E+03  0.12511071490E+03 0.  0.
        -24    2    1    2    0    0 -0.95193430744E+02  0.66555319390E+02  0.14503584212E+04  0.14572338071E+04  0.80618972111E+02 0.  0.
        -11    1    3    3    0    0 -0.25098010808E+02  0.40056465034E+02 -0.82036892463E+01  0.47976359333E+02  0.00000000000E+00 0.  1.
         12    1    3    3    0    0 -0.22743058376E+02  0.44653726028E+02 -0.12795217179E+03  0.13741528378E+03  0.00000000000E+00 0. -1.
         13    1    5    5    0    0 -0.86905032122E+02  0.28058242150E+02  0.71299485432E+03  0.71881945706E+03  0.00000000000E+00 0. -1.
        -14    1    5    5    0    0 -0.82883986223E+01  0.38497077241E+02  0.73736356692E+03  0.73841435003E+03  0.00000000000E+00 0.  1.
          5    1    4    4  501    0  0.81904631613E+02 -0.15659517196E+03  0.13930023437E+03  0.22506097898E+03  0.41800000000E+01 0.  1.
         -5    1    4    4    0  501  0.61129868315E+02  0.53296615119E+01  0.17151511175E+02  0.63850707338E+02  0.41800000000E+01 0.  1.
</event>
<event>
11    1  0.8039394E-009  0.2522510E+03  0.7561462E-02  0.1022707E+00
         22   -1    0    0    0    0  0.00000000000E+00  0.00000000000E+00  0.97521347088E+03  0.97521347088E+03  0.00000000000E+00 0. -1.
         22   -1    0    0    0    0 -0.00000000000E+00 -0.00000000000E+00 -0.14523970378E+04  0.14523970378E+04  0.00000000000E+00 0.  1.
        -24    2    1    2    0    0  0.34561372031E+02 -0.45001090937E+02 -0.12969407867E+04  0.13027230373E+04  0.10868450253E+03 0.  0.
         25    2    1    2    0    0 -0.18737432887E+03  0.19367350111E+03  0.24785322437E+02  0.29812514741E+03  0.12508288115E+03 0.  0.
         24    2    1    2    0    0  0.15281295684E+03 -0.14867241017E+03  0.79497189734E+03  0.82676232397E+03  0.78104657088E+02 0.  0.
        -13    1    5    5    0    0  0.71242032870E+01 -0.17132610244E+02  0.19841560796E+02  0.27165569037E+02  0.00000000000E+00 0.  1.
         14    1    5    5    0    0  0.14568875355E+03 -0.13153979993E+03  0.77513033654E+03  0.79959675493E+03  0.00000000000E+00 0. -1.
         13    1    3    3    0    0  0.43674193079E+02 -0.30664256070E+01 -0.19114996669E+03  0.19609984159E+03  0.00000000000E+00 0. -1.
        -14    1    3    3    0    0 -0.91128210483E+01 -0.41934665330E+02 -0.11057908200E+04  0.11066231957E+04  0.00000000000E+00 0.  1.
          5    1    4    4  501    0 -0.14332711382E+03  0.19877854038E+03 -0.39346441729E+01  0.24512960551E+03  0.41800000000E+01 0. -1.
         -5    1    4    4    0  501 -0.44047215043E+02 -0.51050392692E+01  0.28719966610E+02  0.52995541898E+02  0.41800000000E+01 0. -1.
</event>
<event>
11    1  0.8039394E-009  0.1542629E+03  0.7561462E-02  0.1092601E+00
         22   -1    0    0    0    0  0.00000000000E+00  0.00000000000E+00  0.10861070813E+03  0.10861070813E+03  0.00000000000E+00 0. -1.
         22   -1    0    0    0    0 -0.00000000000E+00 -0.00000000000E+00 -0.36031225264E+04  0.36031225264E+04  0.00000000000E+00 0.  1.
         24    2    1    2    0    0 -0.88089613920E+02  0.11524129734E+02 -0.30990712647E+04  0.31014139955E+04  0.81446191001E+02 0.  0.
         25    2    1    2    0    0  0.98845281590E+02 -0.10208070886E+03 -0.44836119278E+03  0.48668892594E+03  0.12508993016E+03 0.  0.
        -24    2    1    2    0    0 -0.10755667670E+02  0.90556579130E+02  0.52920639185E+02  0.12363031313E+03  0.64557585623E+02 0.  0.
        -11    1    3    3    0    0 -0.55989215739E+02  0.85789411378E+01 -0.28066243042E+04  0.28071958206E+04  0.00000000000E+00 0.  1.
         12    1    3    3    0    0 -0.32100398181E+02  0.29451885961E+01 -0.29244696052E+03  0.29421817486E+03  0.00000000000E+00 0. -1.
         11    1    5    5    0    0 -0.23931812903E+02  0.86481855766E+01  0.41534470936E+00  0.25449858425E+02  0.00000000000E+00 0. -1.
        -12    1    5    5    0    0  0.13176145233E+02  0.81908393553E+02  0.52505294476E+02  0.98180454703E+02  0.00000000000E+00 0.  1.
          5    1    4    4  501    0  0.19576568141E+02 -0.25625051129E+02 -0.30059524362E+03  0.30234890136E+03  0.41800000000E+01 0. -1.
         -5    1    4    4    0  501  0.79268713449E+02 -0.76455657734E+02 -0.14776594916E+03  0.18434002458E+03  0.41800000000E+01 0. -1.
</event>
<event>
11    1  0.8039394E-009  0.1564873E+03  0.7561462E-02  0.1090428E+00
         22   -1    0    0    0    0  0.00000000000E+00  0.00000000000E+00  0.39414927757E+03  0.39414927757E+03  0.00000000000E+00 0.  1.
         22   -1    0    0    0    0 -0.00000000000E+00 -0.00000000000E+00 -0.49547881935E+03  0.49547881935E+03  0.00000000000E+00 0. -1.
        -24    2    1    2    0    0  0.59623970301E+02 -0.64784764518E+02 -0.30695206536E+03  0.32946459903E+03  0.81088026457E+02 0.  0.
         25    2    1    2    0    0 -0.12739530995E+03  0.40976517378E+02 -0.11794080994E+03  0.21785676142E+03  0.12507155501E+03 0.  0.
         24    2    1    2    0    0  0.67771339652E+02  0.23808247140E+02  0.32356333352E+03  0.34230673647E+03  0.85562164088E+02 0.  0.
        -11    1    5    5    0    0  0.51363089384E+02  0.55617872941E+02  0.22945092316E+03  0.24161796473E+03  0.00000000000E+00 0.  1.
         12    1    5    5    0    0  0.16408250268E+02 -0.31809625801E+02  0.94112410356E+02  0.10068877173E+03  0.00000000000E+00 0. -1.
         13    1    3    3    0    0  0.68918580840E+02 -0.53584673222E+02 -0.30156250765E+03  0.31394431673E+03  0.00000000000E+00 0. -1.
        -14    1    3    3    0    0 -0.92946105386E+01 -0.11200091296E+02 -0.53895577086E+01  0.15520282291E+02  0.00000000000E+00 0.  1.
          5    1    4    4  501    0 -0.12840955151E+03  0.74416293451E+02 -0.86936486973E+02  0.17205296515E+03  0.41800000000E+01 0.  1.
         -5    1    4    4    0  501  0.10142415592E+01 -0.33439776074E+02 -0.31004322965E+02  0.45803796265E+02  0.41800000000E+01 0.  1.
</event>
<event>
11    1  0.8039394E-009  0.1968060E+03  0.7561462E-02  0.1056806E+00
         22   -1    0    0    0    0  0.00000000000E+00  0.00000000000E+00  0.28649064100E+04  0.28649064100E+04  0.00000000000E+00 0. -1.
         22   -1    0    0    0    0 -0.00000000000E+00 -0.00000000000E+00 -0.51294824848E+03  0.51294824848E+03  0.00000000000E+00 0.  1.
         24    2    1    2    0    0 -0.14063463578E+03 -0.50745780017E+02 -0.44942936818E+03  0.48051711942E+03  0.80973514792E+02 0.  0.
         25    2    1    2    0    0  0.17621683824E+03  0.94395462508E+02  0.24860473912E+03  0.34266226120E+03  0.12510088534E+03 0.  0.
        -24    2    1    2    0    0 -0.35582202460E+02 -0.43649682491E+02  0.25527827906E+04  0.25546752779E+04  0.80587911606E+02 0.  0.
        -13    1    3    3    0    0 -0.92548570820E+02 -0.69249221300E+02 -0.34898247454E+03  0.36762679466E+03  0.00000000000E+00 0.  1.
         14    1    3    3    0    0 -0.48086064961E+02  0.18503441283E+02 -0.10044689364E+03  0.11289032476E+03  0.00000000000E+00 0. -1.
         13    1    5    5    0    0 -0.49098463049E+02 -0.55161299332E+02  0.15739077581E+04  0.15756392541E+04  0.00000000000E+00 0. -1.
        -14    1    5    5    0    0  0.13516260589E+02  0.11511616841E+02  0.97887503252E+03  0.97903602380E+03  0.00000000000E+00 0.  1.
          5    1    4    4  501    0  0.78305752931E+00  0.37130296971E+02  0.60549112297E+01  0.37860355021E+02  0.41800000000E+01 0.  1.
         -5    1    4    4    0  501  0.17543378071E+03  0.57265165536E+02  0.24254982789E+03  0.30480190618E+03  0.41800000000E+01 0.  1.
</event>
<event>
11    1  0.8039394E-009  0.1334988E+03  0.7561462E-02  0.1115043E+00
         22   -1    0    0    0    0  0.00000000000E+00  0.00000000000E+00  0.13210300347E+04  0.13210300347E+04  0.00000000000E+00 0.  1.
         22   -1    0    0    0    0 -0.00000000000E+00 -0.00000000000E+00 -0.12275482930E+03  0.12275482930E+03  0.00000000000E+00 0. -1.
         24    2    1    2    0    0  0.16666651813E+02 -0.44584675547E+02 -0.33639658533E+02  0.99962289357E+02  0.81211218997E+02 0.  0.
         25    2    1    2    0    0 -0.45713292481E+02  0.26396294452E+02  0.30293125365E+02  0.13910938598E+03  0.12508908167E+03 0.  0.
        -24    2    1    2    0    0  0.29046640668E+02  0.18188381095E+02  0.12016217386E+04  0.12047131887E+04  0.79148845805E+02 0.  0.
        -11    1    3    3    0    0 -0.11586567530E+02  0.10791915114E+02  0.14395018903E+02  0.21399311862E+02  0.00000000000E+00 0.  1.
         12    1    3    3    0    0  0.28253219342E+02 -0.55376590661E+02 -0.48034677436E+02  0.78562977495E+02  0.00000000000E+00 0. -1.
         13    1    5    5    0    0  0.16396908204E+02 -0.41913396195E+01  0.49660525397E+02  0.52465166627E+02  0.00000000000E+00 0. -1.
        -14    1    5    5    0    0  0.12649732465E+02  0.22379720714E+02  0.11519612132E+04  0.11522480220E+04  0.00000000000E+00 0.  1.
          5    1    4    4  501    0  0.18601958756E+02 -0.31176366749E+02 -0.17319758445E+02  0.40440637307E+02  0.41800000000E+01 0.  1.
         -5    1    4    4    0  501 -0.64315251237E+02  0.57572661201E+02  0.47612883810E+02  0.98668748670E+02  0.41800000000E+01 0.  1.
</event>
<event>
11    1  0.8039394E-009  0.2976065E+03  0.7561462E-02  0.1001209E+00
         22   -1    0    0    0    0  0.00000000000E+00  0.00000000000E+00  0.12764591629E+04  0.12764591629E+04  0.00000000000E+00 0. -1.
         22   -1    0    0    0    0 -0.00000000000E+00 -0.00000000000E+00 -0.12822829022E+04  0.12822829022E+04  0.00000000000E+00 0. -1.
        -24    2    1    2    0    0  0.12402285744E+01  0.10038560851E+02 -0.10936458759E+04  0.10967494823E+04  0.81827954939E+02 0.  0.
         25    2    1    2    0    0 -0.99581782775E+02  0.24234855828E+03 -0.45471673481E+02  0.29387805480E+03  0.12508909963E+03 0.  0.
         24    2    1    2    0    0  0.98341554201E+02 -0.25238711913E+03  0.11332938101E+04  0.11681145280E+04  0.82257955285E+02 0.  0.
        -11    1    5    5    0    0  0.29132707599E+02 -0.29246784492E+02  0.90499301218E+02  0.99469656559E+02  0.00000000000E+00 0.  1.
         12    1    5    5    0    0  0.69208846602E+02 -0.22314033464E+03  0.10427945089E+04  0.10686448714E+04  0.00000000000E+00 0. -1.
         13    1    3    3    0    0  0.10333889716E+02 -0.20295139737E+02 -0.91730859800E+03  0.91759127390E+03  0.00000000000E+00 0. -1.
        -14    1    3    3    0    0 -0.90936611419E+01  0.30333700589E+02 -0.17633727791E+03  0.17915820842E+03  0.00000000000E+00 0.  1.
          5    1    4    4  501    0 -0.21530620549E+02  0.10801585618E+03  0.39087748760E+02  0.11694578792E+03  0.41800000000E+01 0. -1.
         -5    1    4    4    0  501 -0.78051162226E+02  0.13433270209E+03 -0.84559422241E+02  0.17693226689E+03  0.41800000000E+01 0. -1.
</event>
<event>
11    1  0.8039394E-009  0.1617113E+03  0.7561462E-02  0.1085479E+00
         22   -1    0    0    0    0  0.00000000000E+00  0.00000000000E+00  0.26883578362E+03  0.26883578362E+03  0.00000000000E+00 0. -1.
         22   -1    0    0    0    0 -0.00000000000E+00 -0.00000000000E+00 -0.50775200887E+03  0.50775200887E+03  0.00000000000E+00 0. -1.
         24    2    1    2    0    0 -0.85213420390E+02  0.54597090501E+02 -0.38241765073E+03  0.40398939283E+03  0.81987807796E+02 0.  0.
         25    2    1    2    0    0  0.84248792326E+02 -0.72787155701E+02 -0.39420298426E+02  0.17203714826E+03  0.12508793471E+03 0.  0.
        -24    2    1    2    0    0  0.96462806345E+00  0.18190065200E+02  0.18292172390E+03  0.20056125139E+03  0.80203799823E+02 0.  0.
        -11    1    3    3    0    0 -0.29953271901E+02 -0.19319212054E+02 -0.14366252204E+03  0.14801807555E+03  0.00000000000E+00 0.  1.
         12    1    3    3    0    0 -0.55260148488E+02  0.73916302555E+02 -0.23875512869E+03  0.25597131728E+03  0.00000000000E+00 0. -1.
         13    1    5    5    0    0 -0.30767877187E+02  0.30229036634E+02  0.13582768732E+03  0.14251181553E+03  0.00000000000E+00 0. -1.
        -14    1    5    5    0    0  0.31732505250E+02 -0.12038971434E+02  0.47094036577E+02  0.58049435861E+02  0.00000000000E+00 0.  1.
          5    1    4    4  501    0  0.43923154167E+02 -0.10654625901E+02 -0.76611135340E+02  0.89047756755E+02  0.41800000000E+01 0. -1.
         -5    1    4    4    0  501  0.40325638159E+02 -0.62132529800E+02  0.37190836914E+02  0.82989391507E+02  0.41800000000E+01 0. -1.
</event>
<event>
11    1  0.8039394E-009  0.1382828E+03  0.7561462E-02  0.1109491E+00
         22   -1    0    0    0    0  0.00000000000E+00  0.00000000000E+00  0.24312513310E+04  0.24312513310E+04  0.00000000000E+00 0. -1.
         22   -1    0    0    0    0 -0.00000000000E+00 -0.00000000000E+00 -0.93005457270E+02  0.93005457270E+02  0.00000000000E+00 0. -1.
        -24    2    1    2    0    0  0.45147619954E+02 -0.19581641875E+02 -0.61525013590E+02  0.11218311986E+03  0.79862236367E+02 0.  0.
         25    2    1    2    0    0  0.25848091174E+02 -0.22966926655E+01  0.96292848110E+03  0.97136601773E+03  0.12508909656E+03 0.  0.
         24    2    1    2    0    0 -0.70995711128E+02  0.21878334541E+02  0.14368424063E+04  0.14407076507E+04  0.74855740573E+02 0.  0.
        -13    1    5    5    0    0 -0.28587726434E+02  0.23343917673E+02  0.11640255548E+04  0.11646105310E+04  0.00000000000E+00 0.  1.
         14    1    5    5    0    0 -0.42407984694E+02 -0.14655831326E+01  0.27281685147E+03  0.27609711977E+03  0.00000000000E+00 0. -1.
         11    1    3    3    0    0  0.18446652594E+02 -0.42434635593E+02 -0.61593981317E+02  0.77037626030E+02  0.00000000000E+00 0. -1.
        -12    1    3    3    0    0  0.26700967360E+02  0.22852993718E+02  0.68967726931E-01  0.35145493827E+02  0.00000000000E+00 0.  1.
          5    1    4    4  501    0  0.56963828693E+02 -0.44194155692E+02  0.66082543065E+03  0.66475989903E+03  0.41800000000E+01 0.  1.
         -5    1    4    4    0  501 -0.31115737519E+02  0.41897463026E+02  0.30210305045E+03  0.30660611870E+03  0.41800000000E+01 0.  1.
</event>
<event>
11    1  0.8039394E-009  0.1339370E+03  0.7561462E-02  0.1114524E+00
         22   -1    0    0    0    0  0.00000000000E+00  0.00000000000E+00  0.11373679155E+04  0.11373679155E+04  0.00000000000E+00 0. -1.
         22   -1    0    0    0    0 -0.00000000000E+00 -0.00000000000E+00 -0.68796594948E+03  0.68796594948E+03  0.00000000000E+00 0.  1.
        -24    2    1    2    0    0 -0.21601303455E+02 -0.35785029979E+01 -0.54202201334E+03  0.54801165106E+03  0.77778433739E+02 0.  0.
         25    2    1    2    0    0  0.65971648054E+02 -0.13674771470E+02 -0.10522486589E+03  0.17680463290E+03  0.12509335750E+03 0.  0.
         24    2    1    2    0    0 -0.44370344599E+02  0.17253274468E+02  0.10966488452E+04  0.11005175810E+04  0.78954755454E+02 0.  0.
        -13    1    5    5    0    0 -0.21141027413E+02  0.40183801646E+02  0.32247693585E+03  0.32565788047E+03  0.00000000000E+00 0.  1.
         14    1    5    5    0    0 -0.23229317186E+02 -0.22930527178E+02  0.77417190937E+03  0.77485970054E+03  0.00000000000E+00 0. -1.
         13    1    3    3    0    0 -0.86343528834E+01  0.23624306142E+02 -0.60136736612E+02  0.65185021138E+02  0.00000000000E+00 0. -1.
        -14    1    3    3    0    0 -0.12966950572E+02 -0.27202809140E+02 -0.48188527673E+03  0.48282662992E+03  0.00000000000E+00 0.  1.
          5    1    4    4  501    0  0.38118349293E+02 -0.42873995665E+02  0.65522254837E+01  0.57892936666E+02  0.41800000000E+01 0.  1.
         -5    1    4    4    0  501  0.27853298761E+02  0.29199224194E+02 -0.11177709137E+03  0.11891169623E+03  0.41800000000E+01 0.  1.
</event>
<event>
11    1  0.8039394E-009  0.1745435E+03  0.7561462E-02  0.1074144E+00
         22   -1    0    0    0    0  0.00000000000E+00  0.00000000000E+00  0.14012138967E+03  0.14012138967E+03  0.00000000000E+00 0. -1.
         22   -1    0    0    0    0 -0.00000000000E+00 -0.00000000000E+00 -0.39156571894E+03  0.39156571894E+03  0.00000000000E+00 0. -1.
         24    2    1    2    0    0  0.53110991973E+01 -0.41652295235E+02 -0.10502551547E+03  0.13687043257E+03  0.77071622142E+02 0.  0.
         25    2    1    2    0    0  0.11638385725E+03  0.14815522300E+02 -0.17378251787E+03  0.24415747190E+03  0.12509118929E+03 0.  0.
        -24    2    1    2    0    0 -0.12169495645E+03  0.26836772935E+02  0.27363704074E+02  0.15065920414E+03  0.80122086125E+02 0.  0.
        -11    1    3    3    0    0  0.14309267726E+02  0.18670891749E+02 -0.14232895027E+02  0.27494229256E+02  0.00000000000E+00 0.  1.
         12    1    3    3    0    0 -0.89981685291E+01 -0.60323186984E+02 -0.90792620440E+02  0.10937620331E+03  0.00000000000E+00 0. -1.
         13    1    5    5    0    0 -0.12775370196E+03  0.38612635346E+02  0.30817361831E+02  0.13697318629E+03  0.00000000000E+00 0. -1.
        -14    1    5    5    0    0  0.60587455100E+01 -0.11775862411E+02 -0.34536577568E+01  0.13686017850E+02  0.00000000000E+00 0.  1.
          5    1    4    4  501    0  0.25833998536E+02  0.62954418603E+02 -0.80202401849E+02  0.10526420077E+03  0.41800000000E+01 0. -1.
         -5    1    4    4    0  501  0.90549858714E+02 -0.48138896302E+02 -0.93580116025E+02  0.13889327113E+03  0.41800000000E+01 0. -1.
</event>
<event>
11    1  0.8039394E-009  0.1270469E+03  0.7561462E-02  0.1122951E+00
         22   -1    0    0    0    0  0.00000000000E+00  0.00000000000E+00  0.20055251655E+03  0.20055251655E+03  0.00000000000E+00 0. -1.
         22   -1    0    0    0    0 -0.00000000000E+00 -0.00000000000E+00 -0.14304488764E+04  0.14304488764E+04  0.00000000000E+00 0.  1.
        -24    2    1    2    0    0  0.24382593300E+02  0.42897069343E+00 -0.13244515019E+04  0.13269448929E+04  0.77564638483E+02 0.  0.
         25    2    1    2    0    0 -0.37701191664E+02  0.14981355624E+02 -0.46660463532E+02  0.13953835607E+03  0.12509169872E+03 0.  0.
         24    2    1    2    0    0  0.13318598364E+02 -0.15410326317E+02  0.14121560556E+03  0.16451814395E+03  0.81911593909E+02 0.  0.
        -11    1    5    5    0    0  0.14347565820E+02  0.16256411624E+02  0.20358948673E+01  0.21777704924E+02  0.00000000000E+00 0.  1.
         12    1    5    5    0    0 -0.10289674559E+01 -0.31666737942E+02  0.13917971069E+03  0.14274043903E+03  0.00000000000E+00 0. -1.
         13    1    3    3    0    0  0.79339981888E+01 -0.30248119528E+02 -0.25259603396E+03  0.25452436707E+03  0.00000000000E+00 0. -1.
        -14    1    3    3    0    0  0.16448595111E+02  0.30677090221E+02 -0.10718554679E+04  0.10724205259E+04  0.00000000000E+00 0.  1.
          5    1    4    4  501    0 -0.69812921869E+02  0.47405383596E+02 -0.39079608143E+02  0.93090292868E+02  0.41800000000E+01 0.  1.
         -5    1    4    4    0  501  0.32111730205E+02 -0.32424027972E+02 -0.75808553888E+01  0.46448063201E+02  0.41800000000E+01 0.  1.
</event>
<event>
11    1  0.8039394E-009  0.1562635E+03  0.7561462E-02  0.1090645E+00
         22   -1    0    0    0    0  0.00000000000E+00  0.00000000000E+00  0.73967659186E+03  0.73967659186E+03  0.00000000000E+00 0. -1.
         22   -1    0    0    0    0 -0.00000000000E+00 -0.00000000000E+00 -0.43518530697E+03  0.43518530697E+03  0.00000000000E+00 0.  1.
         24    2    1    2    0    0 -0.85988399371E+01 -0.62040262312E+01 -0.36900037779E+03  0.37764859880E+03  0.79653972768E+02 0.  0.
         25    2    1    2    0    0  0.89178116023E+02  0.52216429254E+02  0.58961987097E+02  0.17263929332E+03  0.12509403588E+03 0.  0.
        -24    2    1    2    0    0 -0.80579276086E+02 -0.46012403023E+02  0.61452967558E+03  0.62457400671E+03  0.61933890025E+02 0.  0.
        -11    1    3    3    0    0 -0.30733170321E+02 -0.33318039664E+02 -0.20332133495E+03  0.20831270910E+03  0.00000000000E+00 0.  1.
         12    1    3    3    0    0  0.22134330384E+02  0.27114013433E+02 -0.16567904284E+03  0.16933588971E+03  0.00000000000E+00 0. -1.
         13    1    5    5    0    0 -0.63497775914E+02 -0.61571664025E+02  0.48419317715E+03  0.49220531301E+03  0.00000000000E+00 0. -1.
        -14    1    5    5    0    0 -0.17081500171E+02  0.15559261003E+02  0.13033649843E+03  0.13236869371E+03  0.00000000000E+00 0.  1.
          5    1    4    4  501    0  0.98020614345E+01  0.25210839860E+02  0.81288481319E+02  0.85772702242E+02  0.41800000000E+01 0.  1.
         -5    1    4    4    0  501  0.79376054588E+02  0.27005589394E+02 -0.22326494222E+02  0.86866591074E+02  0.41800000000E+01 0.  1.
</event>
<event>
11    1  0.8039394E-009  0.1879553E+03  0.7561462E-02  0.1063384E+00
         22   -1    0    0    0    0  0.00000000000E+00  0.00000000000E+00  0.32700861759E+04  0.32700861759E+04  0.00000000000E+00 0.  1.
         22   -1    0    0    0    0 -0.00000000000E+00 -0.00000000000E+00 -0.16244191732E+03  0.16244191732E+03  0.00000000000E+00 0.  1.
        -24    2    1    2    0    0  0.10218233166E+02  0.27943416103E+02 -0.11786682412E+03  0.14572133257E+03  0.80354662243E+02 0.  0.
         25    2    1    2    0    0  0.19731946570E+02 -0.16309620660E+03  0.34717488562E+03  0.40393798652E+03  0.12508306610E+03 0.  0.
         24    2    1    2    0    0 -0.29950179737E+02  0.13515279050E+03  0.28783361971E+04  0.28828687741E+04  0.83365552359E+02 0.  0.
        -11    1    5    5    0    0 -0.10511381141E+02  0.56903687911E+02  0.20007313594E+04  0.20015680082E+04  0.00000000000E+00 0.  1.
         12    1    5    5    0    0 -0.19438798595E+02  0.78249102590E+02  0.87760483763E+03  0.88130076591E+03  0.00000000000E+00 0. -1.
         11    1    3    3    0    0  0.32540530635E+02 -0.13740552701E+02 -0.31835483901E+02  0.47551939579E+02  0.00000000000E+00 0. -1.
        -12    1    3    3    0    0 -0.22322297469E+02  0.41683968804E+02 -0.86031340223E+02  0.98169392990E+02  0.00000000000E+00 0.  1.
          5    1    4    4  501    0  0.46929257469E+02 -0.16303556349E+03  0.33112930922E+03  0.37208472421E+03  0.41800000000E+01 0.  1.
         -5    1    4    4    0  501 -0.27197310898E+02 -0.60643118873E-01  0.16045576402E+02  0.31853262309E+02  0.41800000000E+01 0.  1.
</event>
<event>
11    1  0.8039394E-009  0.1401330E+03  0.7561462E-02  0.1107410E+00
         22   -1    0    0    0    0  0.00000000000E+00  0.00000000000E+00  0.76463566000E+03  0.76463566000E+03  0.00000000000E+00 0. -1.
         22   -1    0    0    0    0 -0.00000000000E+00 -0.00000000000E+00 -0.30200762113E+03  0.30200762113E+03  0.00000000000E+00 0. -1.
        -24    2    1    2    0    0 -0.54518421061E+02  0.26706894527E+02 -0.18095094567E+03  0.20720649383E+03  0.80658352938E+02 0.  0.
         25    2    1    2    0    0  0.80106082336E+02  0.28632072407E+01 -0.52600814925E+02  0.15760853554E+03  0.12509365437E+03 0.  0.
         24    2    1    2    0    0 -0.25587661274E+02 -0.29570101768E+02  0.69617979947E+03  0.70182825176E+03  0.79796381201E+02 0.  0.
        -11    1    5    5    0    0  0.14617840436E+02 -0.39763801686E+02  0.23510792299E+03  0.23889448850E+03  0.00000000000E+00 0.  1.
         12    1    5    5    0    0 -0.40205501711E+02  0.10193699918E+02  0.46107187647E+03  0.46293376325E+03  0.00000000000E+00 0. -1.
         11    1    3    3    0    0 -0.54258313292E+02  0.46490483590E+02 -0.17042116597E+03  0.18479367802E+03  0.00000000000E+00 0. -1.
        -12    1    3    3    0    0 -0.26010776903E+00 -0.19783589063E+02 -0.10529779700E+02  0.22412815816E+02  0.00000000000E+00 0.  1.
          5    1    4    4  501    0 -0.10443242877E+02 -0.13612359668E+02  0.29383598042E+02  0.34281567808E+02  0.41800000000E+01 0.  1.
         -5    1    4    4    0  501  0.90549325213E+02  0.16475566909E+02 -0.81984412966E+02  0.12332696774E+03  0.41800000000E+01 0.  1.
</event>
<event>
11    1  0.8039394E-009  0.1585956E+03  0.7561462E-02  0.1088406E+00
         22   -1    0    0    0    0  0.00000000000E+00  0.00000000000E+00  0.17085609663E+03  0.17085609663E+03  0.00000000000E+00 0. -1.
         22   -1    0    0    0    0 -0.00000000000E+00 -0.00000000000E+00 -0.82265349535E+03  0.82265349535E+03  0.00000000000E+00 0.  1.
        -24    2    1    2    0    0 -0.57439687222E+02  0.33088560061E+02 -0.57165470902E+03  0.58099994954E+03  0.79860281396E+02 0.  0.
         25    2    1    2    0    0  0.10749887160E+03  0.49950800713E+02 -0.18059857672E+03  0.24962994509E+03  0.12509266039E+03 0.  0.
         24    2    1    2    0    0 -0.50059184380E+02 -0.83039360774E+02  0.10045588702E+03  0.16287969737E+03  0.83886549576E+02 0.  0.
        -11    1    5    5    0    0  0.17496424715E+02 -0.14251845693E+02  0.48187875954E+02  0.53210068337E+02  0.00000000000E+00 0.  1.
         12    1    5    5    0    0 -0.67555609095E+02 -0.68787515081E+02  0.52268011063E+02  0.10966962903E+03  0.00000000000E+00 0. -1.
         13    1    3    3    0    0  0.19721664445E+02  0.65413612764E+01 -0.81945735070E+02  0.84538967062E+02  0.00000000000E+00 0. -1.
        -14    1    3    3    0    0 -0.77161351667E+02  0.26547198785E+02 -0.48970897395E+03  0.49646098247E+03  0.00000000000E+00 0.  1.
          5    1    4    4  501    0  0.13188951337E+03  0.33007227732E+02 -0.11741114451E+03  0.17968631021E+03  0.41800000000E+01 0.  1.
         -5    1    4    4    0  501 -0.24390641770E+02  0.16943572982E+02 -0.63187432205E+02  0.69943634878E+02  0.41800000000E+01 0.  1.
</event>
<event>
11    1  0.8039394E-009  0.1448917E+03  0.7561462E-02  0.1102216E+00
         22   -1    0    0    0    0  0.00000000000E+00  0.00000000000E+00  0.63326224112E+02  0.63326224112E+02  0.00000000000E+00 0.  1.
         22   -1    0    0    0    0 -0.00000000000E+00 -0.00000000000E+00 -0.32549026912E+04  0.32549026912E+04  0.00000000000E+00 0. -1.
         24    2    1    2    0    0 -0.86764370087E+01 -0.20161395850E+01 -0.26059521552E+04  0.26071506083E+04  0.78538613683E+02 0.  0.
         25    2    1    2    0    0  0.52698044279E+02  0.59657231374E+02 -0.58418145462E+03  0.60270416331E+03  0.12509303506E+03 0.  0.
        -24    2    1    2    0    0 -0.44021607270E+02 -0.57641091789E+02 -0.14428573176E+01  0.10837414374E+03  0.80513823816E+02 0.  0.
        -11    1    3    3    0    0  0.47736051030E+01 -0.11441674245E+02 -0.66524824546E+02  0.67670166958E+02  0.00000000000E+00 0.  1.
         12    1    3    3    0    0 -0.13450042112E+02  0.94255346596E+01 -0.25394273306E+04  0.25394804413E+04  0.00000000000E+00 0. -1.
         13    1    5    5    0    0 -0.50409924982E+02 -0.34928303183E+02 -0.32471332270E+02  0.69394051037E+02  0.00000000000E+00 0. -1.
        -14    1    5    5    0    0  0.63883177115E+01 -0.22712788607E+02  0.31028474953E+02  0.38980092706E+02  0.00000000000E+00 0.  1.
          5    1    4    4  501    0  0.54917720353E+02  0.92337614267E+02 -0.51424061652E+03  0.52535994813E+03  0.41800000000E+01 0. -1.
         -5    1    4    4    0  501 -0.22196760740E+01 -0.32680382892E+02 -0.69940838097E+02  0.77344215179E+02  0.41800000000E+01 0. -1.
</event>
<event>
11    1  0.8039394E-009  0.1471704E+03  0.7561462E-02  0.1099806E+00
         22   -1    0    0    0    0  0.00000000000E+00  0.00000000000E+00  0.80652914545E+02  0.80652914545E+02  0.00000000000E+00 0. -1.
         22   -1    0    0    0    0 -0.00000000000E+00 -0.00000000000E+00 -0.94417857570E+03  0.94417857570E+03  0.00000000000E+00 0. -1.
         24    2    1    2    0    0 -0.41105987935E+01  0.69757013077E+02 -0.57030556068E+03  0.58023455408E+03  0.80875010378E+02 0.  0.
         25    2    1    2    0    0 -0.36937576432E+02 -0.11404857328E+03 -0.29553477984E+03  0.34257784613E+03  0.12508921994E+03 0.  0.
        -24    2    1    2    0    0  0.41048175226E+02  0.44291560206E+02  0.23146793623E+01  0.10201909004E+03  0.82193929198E+02 0.  0.
        -13    1    3    3    0    0 -0.41107276482E+02  0.31986600279E+02 -0.22828944348E+03  0.23415597533E+03  0.00000000000E+00 0.  1.
         14    1    3    3    0    0  0.36996677689E+02  0.37770412798E+02 -0.34201611720E+03  0.34607857875E+03  0.00000000000E+00 0. -1.
         11    1    5    5    0    0  0.29195137328E+02  0.58435708244E+02  0.27433797218E+02  0.70849850186E+02  0.00000000000E+00 0. -1.
        -12    1    5    5    0    0  0.11853037898E+02 -0.14144148038E+02 -0.25119117856E+02  0.31169239853E+02  0.00000000000E+00 0.  1.
          5    1    4    4  501    0  0.94968050597E+01 -0.10845161757E+03 -0.12556366564E+03  0.16623973409E+03  0.41800000000E+01 0.  1.
         -5    1    4    4    0  501 -0.46434381492E+02 -0.55969557105E+01 -0.16997111419E+03  0.17633811204E+03  0.41800000000E+01 0.  1.
</event>
<event>
11    1  0.8039394E-009  0.1604148E+03  0.7561462E-02  0.1086688E+00
         22   -1    0    0    0    0  0.00000000000E+00  0.00000000000E+00  0.14518297453E+03  0.14518297453E+03  0.00000000000E+00 0. -1.
         22   -1    0    0    0    0 -0.00000000000E+00 -0.00000000000E+00 -0.10405160403E+04  0.10405160403E+04  0.00000000000E+00 0. -1.
        -24    2    1    2    0    0  0.38267700823E+02  0.90452625951E+02 -0.83648546338E+03  0.84597248075E+03  0.79469574490E+02 0.  0.
         25    2    1    2    0    0 -0.11011145831E+03 -0.87530191358E+02 -0.11172125260E+03  0.21889761956E+03  0.12509381246E+03 0.  0.
         24    2    1    2    0    0  0.71843757489E+02 -0.29224345931E+01  0.52873650217E+02  0.12082891452E+03  0.81448987610E+02 0.  0.
        -13    1    5    5    0    0  0.46465734104E+02 -0.32875510088E+02  0.25144202545E+01  0.56975309728E+02  0.00000000000E+00 0.  1.
         14    1    5    5    0    0  0.25378023385E+02  0.29953075495E+02  0.50359229962E+02  0.63853604792E+02  0.00000000000E+00 0. -1.
         11    1    3    3    0    0  0.33253740507E+02  0.83164422984E+02 -0.83044388661E+03  0.83525994834E+03  0.00000000000E+00 0. -1.
        -12    1    3    3    0    0  0.50139603163E+01  0.72882029676E+01 -0.60415767711E+01  0.10712532401E+02  0.00000000000E+00 0.  1.
          5    1    4    4  501    0 -0.36282539945E+02 -0.67644045860E+02  0.74617034154E+01  0.77235283796E+02  0.41800000000E+01 0.  1.
         -5    1    4    4    0  501 -0.73828918367E+02 -0.19886145498E+02 -0.11918295601E+03  0.14166233576E+03  0.41800000000E+01 0.  1.
</event>
<event>
11    1  0.8039394E-009  0.3131144E+03  0.7561462E-02  0.9947887E-01
         22   -1    0    0    0    0  0.00000000000E+00  0.00000000000E+00  0.12708357518E+04  0.12708357518E+04  0.00000000000E+00 0.  1.
         22   -1    0    0    0    0 -0.00000000000E+00 -0.00000000000E+00 -0.41839325666E+03  0.41839325666E+03  0.00000000000E+00 0. -1.
        -24    2    1    2    0    0 -0.14744325022E+03 -0.25622051291E+03 -0.18498941127E+03  0.35798626291E+03  0.80898818789E+02 0.  0.
         25    2    1    2    0    0  0.13836701633E+03  0.23395323871E+03  0.83136955837E+01  0.29932651461E+03  0.12509074987E+03 0.  0.
         24    2    1    2    0    0  0.90762338840E+01  0.22267274193E+02  0.10291182108E+04  0.10319162309E+04  0.72031981053E+02 0.  0.
        -13    1    5    5    0    0  0.37136375189E+02  0.14173087643E+02  0.79351083696E+03  0.79450578044E+03  0.00000000000E+00 0.  1.
         14    1    5    5    0    0 -0.28060141305E+02  0.80941865501E+01  0.23560737384E+03  0.23741045048E+03  0.00000000000E+00 0. -1.
         11    1    3    3    0    0 -0.10766711244E+03 -0.15200277437E+03 -0.73425797870E+02  0.20022087381E+03  0.00000000000E+00 0. -1.
        -12    1    3    3    0    0 -0.39776137774E+02 -0.10421773854E+03 -0.11156361340E+03  0.15776538910E+03  0.00000000000E+00 0.  1.
          5    1    4    4  501    0  0.11283361576E+03  0.69243882576E+02  0.15888736085E+01  0.13246183239E+03  0.41800000000E+01 0. -1.
         -5    1    4    4    0  501  0.25533400572E+02  0.16470935614E+03  0.67248219752E+01  0.16686468223E+03  0.41800000000E+01 0. -1.
</event>
<event>
11    1  0.8039394E-009  0.1441815E+03  0.7561462E-02  0.1102977E+00
         22   -1    0    0    0    0  0.00000000000E+00  0.00000000000E+00  0.35398250777E+03  0.35398250777E+03  0.00000000000E+00 0.  1.
         22   -1    0    0    0    0 -0.00000000000E+00 -0.00000000000E+00 -0.39791949126E+03  0.39791949126E+03  0.00000000000E+00 0. -1.
        -24    2    1    2    0    0  0.13832328023E+02  0.70869095230E+02 -0.18875949840E+03  0.21594780182E+03  0.76089045974E+02 0.  0.
         25    2    1    2    0    0  0.58516697988E+02 -0.71748895625E+02 -0.15081424845E+03  0.21671289565E+03  0.12508970237E+03 0.  0.
         24    2    1    2    0    0 -0.72349026011E+02  0.87980039468E+00  0.29563676336E+03  0.31924130156E+03  0.96326305652E+02 0.  0.
        -11    1    5    5    0    0 -0.56669221074E+02 -0.23623222829E+02  0.27911242211E+03  0.28578523659E+03  0.00000000000E+00 0.  1.
         12    1    5    5    0    0 -0.15679804937E+02  0.24503023224E+02  0.16524341246E+02  0.33456064974E+02  0.00000000000E+00 0. -1.
         11    1    3    3    0    0 -0.25939235329E+02  0.48411102818E+01 -0.33842123483E+02  0.42913513024E+02  0.00000000000E+00 0. -1.
        -12    1    3    3    0    0  0.39771563352E+02  0.66027984948E+02 -0.15491737492E+03  0.17303428879E+03  0.00000000000E+00 0.  1.
          5    1    4    4  501    0 -0.35027225907E+02 -0.46967023181E+02 -0.58861345474E+02  0.83156107486E+02  0.41800000000E+01 0.  1.
         -5    1    4    4    0  501  0.93543923895E+02 -0.24781872444E+02 -0.91952902975E+02  0.13355678817E+03  0.41800000000E+01 0.  1.
</event>
<event>
11    1  0.8039394E-009  0.1598078E+03  0.7561462E-02  0.1087258E+00
         22   -1    0    0    0    0  0.00000000000E+00  0.00000000000E+00  0.16616878941E+04  0.16616878941E+04  0.00000000000E+00 0.  1.
         22   -1    0    0    0    0 -0.00000000000E+00 -0.00000000000E+00 -0.77607753155E+02  0.77607753155E+02  0.00000000000E+00 0. -1.
        -24    2    1    2    0    0 -0.13717046088E+02  0.95987507003E+02  0.10307645226E+02  0.12548958859E+03  0.78991331433E+02 0.  0.
         25    2    1    2    0    0 -0.56418949940E+02 -0.12360513299E+03  0.47809454942E+03  0.51252580723E+03  0.12508788142E+03 0.  0.
         24    2    1    2    0    0  0.70135996028E+02  0.27617625983E+02  0.10956779463E+04  0.11012802514E+04  0.81401713644E+02 0.  0.
        -11    1    5    5    0    0  0.33326392387E+02  0.55512540945E+02  0.64619878559E+03  0.64943449333E+03  0.00000000000E+00 0.  1.
         12    1    5    5    0    0  0.36809603641E+02 -0.27894914962E+02  0.44947916069E+03  0.45184575808E+03  0.00000000000E+00 0. -1.
         11    1    3    3    0    0  0.17280646146E+02  0.91156857524E+02  0.14259843958E+02  0.93869785099E+02  0.00000000000E+00 0. -1.
        -12    1    3    3    0    0 -0.30997692235E+02  0.48306494786E+01 -0.39521987317E+01  0.31619803495E+02  0.00000000000E+00 0.  1.
          5    1    4    4  501    0 -0.89217121745E+02 -0.12122760431E+03  0.41038119452E+03  0.43713387431E+03  0.41800000000E+01 0. -1.
         -5    1    4    4    0  501  0.32798171805E+02 -0.23775286737E+01  0.67713354905E+02  0.75391932916E+02  0.41800000000E+01 0. -1.
</event>
<event>
11    1  0.8039394E-009  0.1445590E+03  0.7561462E-02  0.1102572E+00
         22   -1    0    0    0    0  0.00000000000E+00  0.00000000000E+00  0.18140551705E+04  0.18140551705E+04  0.00000000000E+00 0.  1.
         22   -1    0    0    0    0 -0.00000000000E+00 -0.00000000000E+00 -0.10470429277E+03  0.10470429277E+03  0.00000000000E+00 0. -1.
        -24    2    1    2    0    0  0.46623924902E+01  0.72602024076E+02 -0.62080284291E+02  0.12533073171E+03  0.81000239563E+02 0.  0.
         25    2    1    2    0    0  0.20787166988E+02 -0.68595186716E+02  0.53088904940E+03  0.55011666233E+03  0.12509098069E+03 0.  0.
         24    2    1    2    0    0 -0.25449559478E+02 -0.40068373596E+01  0.12405421126E+04  0.12433120692E+04  0.78844362461E+02 0.  0.
        -11    1    5    5    0    0 -0.42621970116E+02  0.20167484902E+02  0.97091171759E+03  0.97205602881E+03  0.00000000000E+00 0.  1.
         12    1    5    5    0    0  0.17172410637E+02 -0.24174322261E+02  0.26963039501E+03  0.27125604040E+03  0.00000000000E+00 0. -1.
         11    1    3    3    0    0 -0.98387351397E+01  0.75919816812E+02 -0.73844320082E+02  0.10636542155E+03  0.00000000000E+00 0. -1.
        -12    1    3    3    0    0  0.14501127630E+02 -0.33177927362E+01  0.11764035791E+02  0.18965310155E+02  0.00000000000E+00 0.  1.
          5    1    4    4  501    0 -0.14021211535E+02 -0.56044320093E+02  0.86091290339E+02  0.10376291659E+03  0.41800000000E+01 0. -1.
         -5    1    4    4    0  501  0.34808378523E+02 -0.12550866623E+02  0.44479775906E+03  0.44635374574E+03  0.41800000000E+01 0. -1.
</event>
<event>
11    1  0.8039394E-009  0.1583228E+03  0.7561462E-02  0.1088665E+00
         22   -1    0    0    0    0  0.00000000000E+00  0.00000000000E+00  0.36353195508E+03  0.36353195508E+03  0.00000000000E+00 0. -1.
         22   -1    0    0    0    0 -0.00000000000E+00 -0.00000000000E+00 -0.48595027300E+03  0.48595027300E+03  0.00000000000E+00 0. -1.
        -24    2    1    2    0    0  0.59281379139E+02 -0.81083102381E+02 -0.39466896323E+03  0.41521654187E+03  0.80947110542E+02 0.  0.
         25    2    1    2    0    0  0.62394987659E+01  0.88584248844E+02  0.11848377389E+02  0.15386257587E+03  0.12508879933E+03 0.  0.
         24    2    1    2    0    0 -0.65520877905E+02 -0.75011464628E+01  0.26040226792E+03  0.28040311033E+03  0.80419590298E+02 0.  0.
        -11    1    5    5    0    0 -0.15836019546E+02  0.26711610317E+02  0.16224893804E+03  0.16519384836E+03  0.00000000000E+00 0.  1.
         12    1    5    5    0    0 -0.49684858359E+02 -0.34212756780E+02  0.98153329882E+02  0.11520926197E+03  0.00000000000E+00 0. -1.
         13    1    3    3    0    0  0.64821390909E+02 -0.45200170303E+02 -0.34351152961E+03  0.35248409764E+03  0.00000000000E+00 0. -1.
        -14    1    3    3    0    0 -0.55400117700E+01 -0.35882932078E+02 -0.51157433618E+02  0.62732444232E+02  0.00000000000E+00 0.  1.
          5    1    4    4  501    0  0.63815530492E+02  0.64569454849E+02  0.65785366688E+01  0.91117429596E+02  0.41800000000E+01 0. -1.
         -5    1    4    4    0  501 -0.57576031726E+02  0.24014793995E+02  0.52698407205E+01  0.62745146275E+02  0.41800000000E+01 0. -1.
</event>
<event>
11    1  0.8039394E-009  0.1619847E+03  0.7561462E-02  0.1085225E+00
         22   -1    0    0    0    0  0.00000000000E+00  0.00000000000E+00  0.37524482929E+03  0.37524482929E+03  0.00000000000E+00 0. -1.
         22   -1    0    0    0    0 -0.00000000000E+00 -0.00000000000E+00 -0.30283040828E+03  0.30283040828E+03  0.00000000000E+00 0. -1.
        -24    2    1    2    0    0 -0.10185619840E+03 -0.23705372697E+02 -0.22940275889E+03  0.26461010690E+03  0.80350812302E+02 0.  0.
         25    2    1    2    0    0  0.89912652167E+02  0.16412984558E+02  0.73844938023E+02  0.17162351067E+03  0.12509150035E+03 0.  0.
         24    2    1    2    0    0  0.11943546232E+02  0.72923881393E+01  0.22797224188E+03  0.24184162000E+03  0.79499678471E+02 0.  0.
        -11    1    5    5    0    0  0.25820965827E+02 -0.13890116285E+02  0.28912425688E+02  0.41177493437E+02  0.00000000000E+00 0.  1.
         12    1    5    5    0    0 -0.13877419595E+02  0.21182504424E+02  0.19905981619E+03  0.20066412656E+03  0.00000000000E+00 0. -1.
         13    1    3    3    0    0 -0.85374905277E+02 -0.20000162355E+00 -0.21727330517E+03  0.23344507617E+03  0.00000000000E+00 0. -1.
        -14    1    3    3    0    0 -0.16481293121E+02 -0.23505371073E+02 -0.12129453725E+02  0.31165030722E+02  0.00000000000E+00 0.  1.
          5    1    4    4  501    0  0.46008261146E+02  0.67061897192E+00 -0.31784195885E+02  0.56079562512E+02  0.41800000000E+01 0.  1.
         -5    1    4    4    0  501  0.43904391021E+02  0.15742365586E+02  0.10562913391E+03  0.11554394816E+03  0.41800000000E+01 0.  1.
</event>
<event>
11    1  0.8039394E-009  0.1751306E+03  0.7561462E-02  0.1073651E+00
         22   -1    0    0    0    0  0.00000000000E+00  0.00000000000E+00  0.30321042853E+03  0.30321042853E+03  0.00000000000E+00 0.  1.
         22   -1    0    0    0    0 -0.00000000000E+00 -0.00000000000E+00 -0.11847422457E+04  0.11847422457E+04  0.00000000000E+00 0.  1.
        -24    2    1    2    0    0  0.17634919018E+02  0.84063937525E+01 -0.89540395904E+03  0.89991038681E+03  0.87799752788E+02 0.  0.
         25    2    1    2    0    0 -0.96952720909E+02  0.84580104623E+02 -0.23727968946E+03  0.29749239005E+03  0.12508575826E+03 0.  0.
         24    2    1    2    0    0  0.79317801891E+02 -0.92986498376E+02  0.25115183132E+03  0.29054989739E+03  0.80026232690E+02 0.  0.
        -13    1    5    5    0    0  0.71938382399E+02 -0.92502160423E+02  0.15599265183E+03  0.19510378769E+03  0.00000000000E+00 0.  1.
         14    1    5    5    0    0  0.73794194923E+01 -0.48433795296E+00  0.95159179491E+02  0.95446109700E+02  0.00000000000E+00 0. -1.
         13    1    3    3    0    0  0.21542037756E+02 -0.23864526818E+02 -0.13361975151E+03  0.13743294010E+03  0.00000000000E+00 0. -1.
        -14    1    3    3    0    0 -0.39071187381E+01  0.32270920570E+02 -0.76178420753E+03  0.76247744670E+03  0.00000000000E+00 0.  1.
          5    1    4    4  501    0  0.11522149479E+02  0.65224453534E+02 -0.64644147856E+02  0.92646249355E+02  0.41800000000E+01 0.  1.
         -5    1    4    4    0  501 -0.10847487039E+03  0.19355651089E+02 -0.17263554160E+03  0.20484614070E+03  0.41800000000E+01 0.  1.
</event>
<event>
11    1  0.8039394E-009  0.1593968E+03  0.7561462E-02  0.1087646E+00
         22   -1    0    0    0    0  0.00000000000E+00  0.00000000000E+00  0.83195848693E+03  0.83195848693E+03  0.00000000000E+00 0. -1.
         22   -1    0    0    0    0 -0.00000000000E+00 -0.00000000000E+00 -0.32114047399E+03  0.32114047399E+03  0.00000000000E+00 0.  1.
        -24    2    1    2    0    0 -0.72948791572E+02  0.54666484763E+02 -0.21202038309E+03  0.24449139156E+03  0.80705928839E+02 0.  0.
         25    2    1    2    0    0  0.11584271890E+03 -0.92696158126E+02  0.16155080519E+02  0.19473627956E+03  0.12509643759E+03 0.  0.
         24    2    1    2    0    0 -0.42893927326E+02  0.38029673363E+02  0.70668331552E+03  0.71387128981E+03  0.83215172456E+02 0.  0.
        -11    1    5    5    0    0  0.82323549059E+01 -0.17600381858E+02  0.67595323025E+02  0.70332587068E+02  0.00000000000E+00 0.  1.
         12    1    5    5    0    0 -0.51126282231E+02  0.55630055221E+02  0.63908799249E+03  0.64353870274E+03  0.00000000000E+00 0. -1.
         11    1    3    3    0    0 -0.26033794045E+02  0.51562512138E+02 -0.52047425762E+02  0.77752077907E+02  0.00000000000E+00 0. -1.
        -12    1    3    3    0    0 -0.46914997526E+02  0.31039726254E+01 -0.15997295733E+03  0.16673931365E+03  0.00000000000E+00 0.  1.
          5    1    4    4  501    0  0.63325392104E+02 -0.73216947444E+02  0.67939317473E+02  0.11833870853E+03  0.41800000000E+01 0. -1.
         -5    1    4    4    0  501  0.52517326794E+02 -0.19479210682E+02 -0.51784236955E+02  0.76397571030E+02  0.41800000000E+01 0. -1.
</event>
<event>
11    1  0.8039394E-009  0.5147163E+03  0.7561462E-02  0.9361225E-01
         22   -1    0    0    0    0  0.00000000000E+00  0.00000000000E+00  0.47881579714E+02  0.47881579714E+02  0.00000000000E+00 0.  1.
         22   -1    0    0    0    0 -0.00000000000E+00 -0.00000000000E+00 -0.13832711120E+04  0.13832711120E+04  0.00000000000E+00 0.  1.
         24    2    1    2    0    0  0.91296949249E+02 -0.77983549562E+02 -0.49092189914E+03  0.51167785316E+03  0.79958410501E+02 0.  0.
         25    2    1    2    0    0 -0.13991425039E+03  0.14968803123E+03 -0.50688266326E+03  0.56085844187E+03  0.12509857454E+03 0.  0.
        -24    2    1    2    0    0  0.48617301143E+02 -0.71704481670E+02 -0.33758496990E+03  0.35861639670E+03  0.84480372959E+02 0.  0.
        -11    1    3    3    0    0  0.24507416382E+02  0.14499778490E+02 -0.69981692255E+02  0.75553254628E+02  0.00000000000E+00 0.  1.
         12    1    3    3    0    0  0.66789532867E+02 -0.92483328053E+02 -0.42094020689E+03  0.43612459853E+03  0.00000000000E+00 0. -1.
         13    1    5    5    0    0 -0.13999001769E+02  0.24708273255E+01 -0.11380867304E+03  0.11469302985E+03  0.00000000000E+00 0. -1.
        -14    1    5    5    0    0  0.62616302912E+02 -0.74175308995E+02 -0.22377629686E+03  0.24392336684E+03  0.00000000000E+00 0.  1.
          5    1    4    4  501    0 -0.57904161144E+02  0.11231236556E+03 -0.40735465857E+03  0.42652344554E+03  0.41800000000E+01 0. -1.
         -5    1    4    4    0  501 -0.82010089248E+02  0.37375665670E+02 -0.99528004686E+02  0.13433499633E+03  0.41800000000E+01 0. -1.
</event>
<event>
11    1  0.8039394E-009  0.1354125E+03  0.7561462E-02  0.1112792E+00
         22   -1    0    0    0    0  0.00000000000E+00  0.00000000000E+00  0.58869493105E+03  0.58869493105E+03  0.00000000000E+00 0.  1.
         22   -1    0    0    0    0 -0.00000000000E+00 -0.00000000000E+00 -0.59769931221E+03  0.59769931221E+03  0.00000000000E+00 0. -1.
        -24    2    1    2    0    0 -0.49741618173E+02  0.20665222920E+02 -0.56928383382E+03  0.57744952025E+03  0.80390204503E+02 0.  0.
         25    2    1    2    0    0  0.24735163503E+02  0.38966943684E+02  0.28496533604E+03  0.31461538213E+03  0.12508934775E+03 0.  0.
         24    2    1    2    0    0  0.25006454670E+02 -0.59632166604E+02  0.27531411662E+03  0.29432934086E+03  0.81551088365E+02 0.  0.
        -11    1    5    5    0    0  0.13616855511E+02 -0.44887288794E+02  0.27122893239E+03  0.27525519289E+03  0.00000000000E+00 0.  1.
         12    1    5    5    0    0  0.11389599160E+02 -0.14744877811E+02  0.40851842332E+01  0.19074147973E+02  0.00000000000E+00 0. -1.
         13    1    3    3    0    0 -0.40170724538E+02  0.46950444193E+02 -0.47795717573E+03  0.48193473952E+03  0.00000000000E+00 0. -1.
        -14    1    3    3    0    0 -0.95708936344E+01 -0.26285221273E+02 -0.91326658085E+02  0.95514780738E+02  0.00000000000E+00 0.  1.
          5    1    4    4  501    0  0.39124477812E+02 -0.37796953344E+02  0.13148536639E+03  0.14235592162E+03  0.41800000000E+01 0. -1.
         -5    1    4    4    0  501 -0.14389314310E+02  0.76763897028E+02  0.15347996965E+03  0.17225946051E+03  0.41800000000E+01 0. -1.
</event>
<event>
11    1  0.8039394E-009  0.1415438E+03  0.7561462E-02  0.1105847E+00
         22   -1    0    0    0    0  0.00000000000E+00  0.00000000000E+00  0.40576513353E+03  0.40576513353E+03  0.00000000000E+00 0.  1.
         22   -1    0    0    0    0 -0.00000000000E+00 -0.00000000000E+00 -0.11632575990E+04  0.11632575990E+04  0.00000000000E+00 0. -1.
         24    2    1    2    0    0  0.55209979954E+02  0.36580197148E+02 -0.95069542076E+03  0.95637810967E+03  0.80318446755E+02 0.  0.
         25    2    1    2    0    0 -0.79875558878E+02  0.34191918569E+01 -0.17674922692E+03  0.23082417415E+03  0.12509082452E+03 0.  0.
        -24    2    1    2    0    0  0.24665578925E+02 -0.39999389005E+02  0.36995218218E+03  0.38182044873E+03  0.81938367451E+02 0.  0.
        -11    1    3    3    0    0  0.23527347874E+02  0.51055598821E+02 -0.33384336299E+03  0.33854335214E+03  0.00000000000E+00 0.  1.
         12    1    3    3    0    0  0.31682632080E+02 -0.14475401673E+02 -0.61685205778E+03  0.61783475753E+03  0.00000000000E+00 0. -1.
         13    1    5    5    0    0 -0.64905516217E+00 -0.59914239711E+02  0.19760581960E+03  0.20649018701E+03  0.00000000000E+00 0. -1.
        -14    1    5    5    0    0  0.25314634087E+02  0.19914850706E+02  0.17234636259E+03  0.17533026172E+03  0.00000000000E+00 0.  1.
          5    1    4    4  501    0  0.76590834345E+01 -0.32657994405E+02 -0.10955119357E+03  0.11464790696E+03  0.41800000000E+01 0. -1.
         -5    1    4    4    0  501 -0.87534642313E+02  0.36077186262E+02 -0.67198033350E+02  0.11617626720E+03  0.41800000000E+01 0. -1.
</event>
<event>
11    1  0.8039394E-009  0.1311555E+03  0.7561462E-02  0.1117857E+00
         22   -1    0    0    0    0  0.00000000000E+00  0.00000000000E+00  0.27426017142E+03  0.27426017142E+03  0.00000000000E+00 0. -1.
         22   -1    0    0    0    0 -0.00000000000E+00 -0.00000000000E+00 -0.18950104277E+04  0.18950104277E+04  0.00000000000E+00 0.  1.
        -24    2    1    2    0    0 -0.38987447635E+02 -0.34022102676E+01 -0.17718476689E+04  0.17740940185E+04  0.80211149658E+02 0.  0.
         25    2    1    2    0    0  0.48467780486E+02  0.15605653106E+02 -0.75152757150E+02  0.15455728628E+03  0.12508939076E+03 0.  0.
         24    2    1    2    0    0 -0.94803328509E+01 -0.12203442838E+02  0.22625016979E+03  0.24061929434E+03  0.80434474865E+02 0.  0.
        -13    1    5    5    0    0  0.28811323233E+02  0.16328919765E+02  0.11193034485E+03  0.11672672387E+03  0.00000000000E+00 0.  1.
         14    1    5    5    0    0 -0.38291656084E+02 -0.28532362603E+02  0.11431982494E+03  0.12389257046E+03  0.00000000000E+00 0. -1.
         11    1    3    3    0    0  0.44608025730E+00 -0.37265025048E+02 -0.74789612820E+03  0.74882407790E+03  0.00000000000E+00 0. -1.
        -12    1    3    3    0    0 -0.39433527892E+02  0.33862814780E+02 -0.10239515408E+04  0.10252699406E+04  0.00000000000E+00 0.  1.
          5    1    4    4  501    0 -0.31486570863E+02  0.40171552381E+02 -0.25696681856E+02  0.57297029800E+02  0.41800000000E+01 0.  1.
         -5    1    4    4    0  501  0.79954351349E+02 -0.24565899276E+02 -0.49456075294E+02  0.97260256478E+02  0.41800000000E+01 0.  1.
</event>
<event>
11    1  0.8039394E-009  0.1974686E+03  0.7561462E-02  0.1056328E+00
         22   -1    0    0    0    0  0.00000000000E+00  0.00000000000E+00  0.15267304195E+03  0.15267304195E+03  0.00000000000E+00 0.  1.
         22   -1    0    0    0    0 -0.00000000000E+00 -0.00000000000E+00 -0.11742278243E+04  0.11742278243E+04  0.00000000000E+00 0. -1.
        -24    2    1    2    0    0  0.63421796463E+01  0.74155320793E+02 -0.83038186384E+03  0.83742576553E+03  0.78794911850E+02 0.  0.
         25    2    1    2    0    0  0.62148721275E+01 -0.21222895044E+03 -0.21942920979E+03  0.32996455044E+03  0.12509066469E+03 0.  0.
         24    2    1    2    0    0 -0.12557051774E+02  0.13807362965E+03  0.28256291288E+02  0.15951055028E+03  0.73642317315E+02 0.  0.
        -11    1    5    5    0    0  0.31036940305E+02  0.58106085706E+02  0.13497631354E+02  0.67244292782E+02  0.00000000000E+00 0.  1.
         12    1    5    5    0    0 -0.43593992079E+02  0.79967543943E+02  0.14758659935E+02  0.92266257498E+02  0.00000000000E+00 0. -1.
         13    1    3    3    0    0 -0.54243581737E+01  0.47162758461E+02 -0.75508793861E+03  0.75657884221E+03  0.00000000000E+00 0. -1.
        -14    1    3    3    0    0  0.11766537820E+02  0.26992562332E+02 -0.75293925233E+02  0.80846923321E+02  0.00000000000E+00 0.  1.
          5    1    4    4  501    0  0.38943081262E+02 -0.24416776128E+02 -0.10960062772E+02  0.47437726660E+02  0.41800000000E+01 0.  1.
         -5    1    4    4    0  501 -0.32728209135E+02 -0.18781217431E+03 -0.20846914702E+03  0.28252682378E+03  0.41800000000E+01 0.  1.
</event>
<event>
11    1  0.8039394E-009  0.1578261E+03  0.7561462E-02  0.1089140E+00
         22   -1    0    0    0    0  0.00000000000E+00  0.00000000000E+00  0.61628914503E+03  0.61628914503E+03  0.00000000000E+00 0. -1.
         22   -1    0    0    0    0 -0.00000000000E+00 -0.00000000000E+00 -0.44730926360E+03  0.44730926360E+03  0.00000000000E+00 0.  1.
        -24    2    1    2    0    0 -0.92879562821E+02 -0.15737354881E+02 -0.35865626791E+03  0.37749288310E+03  0.70656073674E+02 0.  0.
         25    2    1    2    0    0  0.12258973414E+03 -0.17827441285E+02  0.28290774042E+02  0.17830967292E+03  0.12509161036E+03 0.  0.
         24    2    1    2    0    0 -0.29710171323E+02  0.33564796166E+02  0.49934537530E+03  0.50779585262E+03  0.80632092089E+02 0.  0.
        -11    1    5    5    0    0  0.12271176921E+02  0.24716550524E+02  0.56517893748E+02  0.62894848489E+02  0.00000000000E+00 0.  1.
         12    1    5    5    0    0 -0.41981348243E+02  0.88482456420E+01  0.44282748156E+03  0.44490100413E+03  0.00000000000E+00 0. -1.
         11    1    3    3    0    0 -0.38451104774E+02 -0.37175280875E+02 -0.11373784781E+03  0.12568526959E+03  0.00000000000E+00 0. -1.
        -12    1    3    3    0    0 -0.54428458047E+02  0.21437925994E+02 -0.24491842010E+03  0.25180761351E+03  0.00000000000E+00 0.  1.
          5    1    4    4  501    0  0.13082337675E+03  0.18695458003E+02  0.17553444515E+01  0.13223021474E+03  0.41800000000E+01 0. -1.
         -5    1    4    4    0  501 -0.82336426112E+01 -0.36522899288E+02  0.26535429591E+02  0.46079458185E+02  0.41800000000E+01 0. -1.
</event>
<event>
11    1  0.8039394E-009  0.1990530E+03  0.7561462E-02  0.1055195E+00
         22   -1    0    0    0    0  0.00000000000E+00  0.00000000000E+00  0.40518255161E+03  0.40518255161E+03  0.00000000000E+00 0.  1.
         22   -1    0    0    0    0 -0.00000000000E+00 -0.00000000000E+00 -0.10247977073E+04  0.10247977073E+04  0.00000000000E+00 0.  1.
        -24    2    1    2    0    0  0.58474846444E+01  0.73514522511E+02 -0.91023292406E+03  0.91705073134E+03  0.83782394925E+02 0.  0.
         25    2    1    2    0    0 -0.14904285373E+03  0.48755295435E+00  0.32016935894E+02  0.19719678863E+03  0.12508988491E+03 0.  0.
         24    2    1    2    0    0  0.14319536908E+03 -0.74002075466E+02  0.25860083244E+03  0.31573273899E+03  0.82653197338E+02 0.  0.
        -11    1    5    5    0    0  0.82200873375E+02 -0.81269991760E+02  0.19904544304E+03  0.23017576662E+03  0.00000000000E+00 0.  1.
         12    1    5    5    0    0  0.60994495709E+02  0.72679162944E+01  0.59555389393E+02  0.85556972363E+02  0.00000000000E+00 0. -1.
         13    1    3    3    0    0  0.37908545605E+01  0.49259702696E+02 -0.18724796820E+03  0.19365611399E+03  0.00000000000E+00 0. -1.
        -14    1    3    3    0    0  0.20566300838E+01  0.24254819816E+02 -0.72298495586E+03  0.72339461735E+03  0.00000000000E+00 0.  1.
          5    1    4    4  501    0 -0.14151015961E+03 -0.25144192061E+02  0.62207282417E+02  0.15666708031E+03  0.41800000000E+01 0. -1.
         -5    1    4    4    0  501 -0.75326941168E+01  0.25631745015E+02 -0.30190346523E+02  0.40529708318E+02  0.41800000000E+01 0. -1.
</event>
<event>
11    1  0.8039394E-009  0.2846210E+03  0.7561462E-02  0.1006918E+00
         22   -1    0    0    0    0  0.00000000000E+00  0.00000000000E+00  0.36474009296E+03  0.36474009296E+03  0.00000000000E+00 0.  1.
         22   -1    0    0    0    0 -0.00000000000E+00 -0.00000000000E+00 -0.20580306929E+04  0.20580306929E+04  0.00000000000E+00 0.  1.
         24    2    1    2    0    0 -0.16909238664E+02  0.58389839415E+02 -0.13275194082E+04  0.13315064482E+04  0.83104433368E+02 0.  0.
         25    2    1    2    0    0  0.32281854691E+02 -0.30924645287E+03 -0.63376186344E+03  0.71692216937E+03  0.12509120922E+03 0.  0.
        -24    2    1    2    0    0 -0.15372616027E+02  0.25085661346E+03  0.26799067164E+03  0.37434216832E+03  0.71747481174E+02 0.  0.
        -11    1    3    3    0    0  0.16552645143E+02  0.65507885643E+02 -0.97167024036E+03  0.97401659593E+03  0.00000000000E+00 0.  1.
         12    1    3    3    0    0 -0.33461883807E+02 -0.71180462278E+01 -0.35584916783E+03  0.35748985229E+03  0.00000000000E+00 0. -1.
         13    1    5    5    0    0 -0.14387943174E+02  0.45957637715E+01  0.15278606464E+02  0.21484174849E+02  0.00000000000E+00 0. -1.
        -14    1    5    5    0    0 -0.98467285272E+00  0.24626084969E+03  0.25271206518E+03  0.35285799347E+03  0.00000000000E+00 0.  1.
          5    1    4    4  501    0  0.29779080550E+02 -0.15575800743E+03 -0.19100261888E+03  0.24828778330E+03  0.41800000000E+01 0.  1.
         -5    1    4    4    0  501  0.25027741411E+01 -0.15348844544E+03 -0.44275924456E+03  0.46863438607E+03  0.41800000000E+01 0.  1.
</event>
<event>
11    1  0.8039394E-009  0.3744786E+03  0.7561462E-02  0.9728214E-01
         22   -1    0    0    0    0  0.00000000000E+00  0.00000000000E+00  0.12769586102E+04  0.12769586102E+04  0.00000000000E+00 0.  1.
         22   -1    0    0    0    0 -0.00000000000E+00 -0.00000000000E+00 -0.87260555387E+03  0.87260555387E+03  0.00000000000E+00 0. -1.
         24    2    1    2    0    0  0.13417344433E+03  0.16227853924E+03 -0.71331442696E+03  0.74805491749E+03  0.80198818037E+02 0.  0.
         25    2    1    2    0    0 -0.42274042732E+03 -0.25604283343E+03  0.52486889566E+03  0.73171153097E+03  0.12508799098E+03 0.  0.
        -24    2    1    2    0    0  0.28856698299E+03  0.93764294191E+02  0.59279858768E+03  0.66979771564E+03  0.71806460628E+02 0.  0.
        -11    1    3    3    0    0  0.14193952576E+02  0.42852451567E+02 -0.73777976016E+02  0.86492720157E+02  0.00000000000E+00 0.  1.
         12    1    3    3    0    0  0.11997949175E+03  0.11942608767E+03 -0.63953645094E+03  0.66156219734E+03  0.00000000000E+00 0. -1.
         11    1    5    5    0    0  0.83019665170E+02  0.30260243391E+02  0.10895889015E+03  0.14028537657E+03  0.00000000000E+00 0. -1.
        -12    1    5    5    0    0  0.20554731782E+03  0.63504050800E+02  0.48383969753E+03  0.52951233908E+03  0.00000000000E+00 0.  1.
          5    1    4    4  501    0 -0.53467903007E+02 -0.23755473972E+02  0.13268673242E+03  0.14507370732E+03  0.41800000000E+01 0.  1.
         -5    1    4    4    0  501 -0.36927252431E+03 -0.23228735946E+03  0.39218216324E+03  0.58663782365E+03  0.41800000000E+01 0.  1.
</event>
<event>
11    1  0.8039394E-009  0.1716144E+03  0.7561462E-02  0.1076635E+00
         22   -1    0    0    0    0  0.00000000000E+00  0.00000000000E+00  0.14071937917E+04  0.14071937917E+04  0.00000000000E+00 0. -1.
         22   -1    0    0    0    0 -0.00000000000E+00 -0.00000000000E+00 -0.22998950834E+03  0.22998950834E+03  0.00000000000E+00 0.  1.
        -24    2    1    2    0    0 -0.73365586565E+02  0.87041606285E+02 -0.15448536681E+03  0.20792306364E+03  0.80046994445E+02 0.  0.
         25    2    1    2    0    0  0.12126675515E+03 -0.86577713293E+02  0.15464294722E+03  0.24852359116E+03  0.12509279712E+03 0.  0.
         24    2    1    2    0    0 -0.47901168588E+02 -0.46389299251E+00  0.11770467029E+04  0.11807366452E+04  0.80033413935E+02 0.  0.
        -11    1    5    5    0    0  0.12365382215E+02  0.19989581198E+02  0.16195280468E+03  0.16364961649E+03  0.00000000000E+00 0.  1.
         12    1    5    5    0    0 -0.60266550804E+02 -0.20453474190E+02  0.10150938982E+04  0.10170870287E+04  0.00000000000E+00 0. -1.
         11    1    3    3    0    0  0.14015199427E+02  0.33775745465E+02 -0.35222476019E+02  0.50772528139E+02  0.00000000000E+00 0. -1.
        -12    1    3    3    0    0 -0.87380785992E+02  0.53265860820E+02 -0.11926289079E+03  0.15715053550E+03  0.00000000000E+00 0.  1.
          5    1    4    4  501    0  0.57856459661E+02 -0.10794145296E+03  0.12555310540E+03  0.17544167654E+03  0.41800000000E+01 0. -1.
         -5    1    4    4    0  501  0.63410295492E+02  0.21363739668E+02  0.29089841827E+02  0.73081914620E+02  0.41800000000E+01 0. -1.
</event>
<event>
11    1  0.8039394E-009  0.2167114E+03  0.7561462E-02  0.1043297E+00
         22   -1    0    0    0    0  0.00000000000E+00  0.00000000000E+00  0.23607291587E+04  0.23607291587E+04  0.00000000000E+00 0. -1.
         22   -1    0    0    0    0 -0.00000000000E+00 -0.00000000000E+00 -0.46674283064E+03  0.46674283064E+03  0.00000000000E+00 0. -1.
        -24    2    1    2    0    0  0.12714906951E+03 -0.11482471925E+03 -0.36095164901E+03  0.40929384061E+03  0.88790500678E+02 0.  0.
         25    2    1    2    0    0 -0.18339168429E+03  0.13322250514E+03  0.12791702923E+03  0.28877654048E+03  0.12509347795E+03 0.  0.
         24    2    1    2    0    0  0.56242614773E+02 -0.18397785893E+02  0.21270209479E+04  0.21294016083E+04  0.81433324450E+02 0.  0.
        -13    1    5    5    0    0 -0.10335086175E+02 -0.10601893620E+01  0.42707030223E+02  0.43952570326E+02  0.00000000000E+00 0.  1.
         14    1    5    5    0    0  0.66577700948E+02 -0.17337596531E+02  0.20843139177E+04  0.20854490380E+04  0.00000000000E+00 0. -1.
         11    1    3    3    0    0  0.10873831394E+03 -0.42699310636E+02 -0.19328343493E+03  0.22584450019E+03  0.00000000000E+00 0. -1.
        -12    1    3    3    0    0  0.18410755571E+02 -0.72125408611E+02 -0.16766821408E+03  0.18344934042E+03  0.00000000000E+00 0.  1.
          5    1    4    4  501    0 -0.66036101719E+01 -0.21131008298E+02  0.21176317401E+02  0.30919831786E+02  0.41800000000E+01 0.  1.
         -5    1    4    4    0  501 -0.17678807411E+03  0.15435351344E+03  0.10674071183E+03  0.25785670870E+03  0.41800000000E+01 0.  1.
</event>
<event>
11    1  0.8039394E-009  0.3502447E+03  0.7561462E-02  0.9809168E-01
         22   -1    0    0    0    0  0.00000000000E+00  0.00000000000E+00  0.11606260710E+04  0.11606260710E+04  0.00000000000E+00 0. -1.
         22   -1    0    0    0    0 -0.00000000000E+00 -0.00000000000E+00 -0.24920110105E+03  0.24920110105E+03  0.00000000000E+00 0. -1.
         24    2    1    2    0    0 -0.12441021396E+03 -0.26081459880E+03  0.10975712594E+03  0.31932320774E+03  0.80115716435E+02 0.  0.
         25    2    1    2    0    0 -0.23323647302E+02  0.44827864302E+03  0.38953814144E+03  0.60735949452E+03  0.12509139714E+03 0.  0.
        -24    2    1    2    0    0  0.14773386127E+03 -0.18746404423E+03  0.41212970259E+03  0.48314446982E+03  0.81299602180E+02 0.  0.
        -13    1    3    3    0    0 -0.83005200239E+02 -0.88371761858E+02  0.30164678625E+02  0.12493734188E+03  0.00000000000E+00 0.  1.
         14    1    3    3    0    0 -0.41405013725E+02 -0.17244283694E+03  0.79592447317E+02  0.19438586585E+03  0.00000000000E+00 0. -1.
         13    1    5    5    0    0  0.10806768345E+03 -0.17923640486E+03  0.36711998923E+03  0.42258892499E+03  0.00000000000E+00 0. -1.
        -14    1    5    5    0    0  0.39666177819E+02 -0.82276393647E+01  0.45009713363E+02  0.60555544827E+02  0.00000000000E+00 0.  1.
          5    1    4    4  501    0 -0.20130291098E+02  0.18790003589E+02  0.52081608294E+00  0.27857431754E+02  0.41800000000E+01 0.  1.
         -5    1    4    4    0  501 -0.31933562040E+01  0.42948863943E+03  0.38901732535E+03  0.57950206277E+03  0.41800000000E+01 0.  1.
</event>
<event>
11    1  0.8039394E-009  0.1282421E+03  0.7561462E-02  0.1121448E+00
         22   -1    0    0    0    0  0.00000000000E+00  0.00000000000E+00  0.59771462389E+03  0.59771462389E+03  0.00000000000E+00 0. -1.
         22   -1    0    0    0    0 -0.00000000000E+00 -0.00000000000E+00 -0.40789476413E+03  0.40789476413E+03  0.00000000000E+00 0. -1.
        -24    2    1    2    0    0  0.21906209247E+02  0.16396988699E+02 -0.34615882920E+03  0.35675601637E+03  0.81854608564E+02 0.  0.
         25    2    1    2    0    0 -0.35047492022E+02 -0.23131159640E+02  0.28210823601E+02  0.13493373544E+03  0.12509150710E+03 0.  0.
         24    2    1    2    0    0  0.13141282776E+02  0.67341709414E+01  0.50776786536E+03  0.51391963620E+03  0.77891880243E+02 0.  0.
        -11    1    5    5    0    0 -0.10816917412E+02 -0.18149020474E+02  0.43407780697E+02  0.48276578912E+02  0.00000000000E+00 0.  1.
         12    1    5    5    0    0  0.23958200187E+02  0.24883191415E+02  0.46436008466E+03  0.46564305728E+03  0.00000000000E+00 0. -1.
         11    1    3    3    0    0  0.27845224438E+02 -0.12860119694E+02 -0.30138713631E+03  0.30294379864E+03  0.00000000000E+00 0. -1.
        -12    1    3    3    0    0 -0.59390151908E+01  0.29257108392E+02 -0.44771692893E+02  0.53812217734E+02  0.00000000000E+00 0.  1.
          5    1    4    4  501    0  0.87236417683E+01 -0.66402015121E+02  0.29329899044E+02  0.73232813108E+02  0.41800000000E+01 0. -1.
         -5    1    4    4    0  501 -0.43771133791E+02  0.43270855481E+02 -0.11190754426E+01  0.61700922337E+02  0.41800000000E+01 0. -1.
</event>
<event>
11    1  0.8039394E-009  0.1713084E+03  0.7561462E-02  0.1076899E+00
         22   -1    0    0    0    0  0.00000000000E+00  0.00000000000E+00  0.41315541255E+03  0.41315541255E+03  0.00000000000E+00 0.  1.
         22   -1    0    0    0    0 -0.00000000000E+00 -0.00000000000E+00 -0.79560131724E+03  0.79560131724E+03  0.00000000000E+00 0. -1.
         24    2    1    2    0    0  0.10294780798E+03  0.30707893022E+02 -0.56695867433E+03  0.58267131736E+03  0.80761994893E+02 0.  0.
         25    2    1    2    0    0 -0.18082986609E+03 -0.85402360132E+02 -0.14332484302E+03  0.27601701664E+03  0.12510147586E+03 0.  0.
        -24    2    1    2    0    0  0.77882058108E+02  0.54694467110E+02  0.32783761265E+03  0.35006839580E+03  0.77545352905E+02 0.  0.
        -11    1    3    3    0    0  0.21329064630E+02  0.18652531943E+02 -0.38454279532E+02  0.47765861870E+02  0.00000000000E+00 0.  1.
         12    1    3    3    0    0  0.81618743350E+02  0.12055361080E+02 -0.52850439480E+03  0.53490545549E+03  0.00000000000E+00 0. -1.
         11    1    5    5    0    0 -0.50126891372E+01 -0.88062175835E+01  0.61407613697E+01  0.11848437480E+02  0.00000000000E+00 0. -1.
        -12    1    5    5    0    0  0.82894747245E+02  0.63500684693E+02  0.32169685128E+03  0.33821995832E+03  0.00000000000E+00 0.  1.
          5    1    4    4  501    0 -0.34678972495E+02 -0.15030755349E+02  0.22356604696E+02  0.44111732150E+02  0.41800000000E+01 0. -1.
         -5    1    4    4    0  501 -0.14615089359E+03 -0.70371604783E+02 -0.16568144771E+03  0.23190528449E+03  0.41800000000E+01 0. -1.
</event>
<event>
11    1  0.8039394E-009  0.1280327E+03  0.7561462E-02  0.1121710E+00
         22   -1    0    0    0    0  0.00000000000E+00  0.00000000000E+00  0.50282948687E+03  0.50282948687E+03  0.00000000000E+00 0. -1.
         22   -1    0    0    0    0 -0.00000000000E+00 -0.00000000000E+00 -0.31382268727E+03  0.31382268727E+03  0.00000000000E+00 0. -1.
        -24    2    1    2    0    0 -0.34670275145E+02  0.93019989279E-01 -0.27875190091E+03  0.29197116572E+03  0.79639831239E+02 0.  0.
         25    2    1    2    0    0  0.15578591236E+02  0.24903274776E+02  0.16776657201E+03  0.21132252926E+03  0.12509485637E+03 0.  0.
         24    2    1    2    0    0  0.19091683909E+02 -0.24996294765E+02  0.29999212850E+03  0.31335847915E+03  0.84905548394E+02 0.  0.
        -13    1    5    5    0    0  0.38583702558E+02 -0.27420281412E+02  0.83550345388E+02  0.96027257329E+02  0.00000000000E+00 0.  1.
         14    1    5    5    0    0 -0.19492018648E+02  0.24239866469E+01  0.21644178311E+03  0.21733122182E+03  0.00000000000E+00 0. -1.
         13    1    3    3    0    0 -0.84894043474E+01  0.11478981670E+02 -0.25336460596E+03  0.25376654736E+03  0.00000000000E+00 0. -1.
        -14    1    3    3    0    0 -0.26180870798E+02 -0.11385961681E+02 -0.25387294951E+02  0.38204618361E+02  0.00000000000E+00 0.  1.
          5    1    4    4  501    0 -0.16134898503E+02  0.44560729656E+02  0.93094647063E+01  0.48478161169E+02  0.41800000000E+01 0.  1.
         -5    1    4    4    0  501  0.31713489739E+02 -0.19657454880E+02  0.15845710731E+03  0.16284436809E+03  0.41800000000E+01 0.  1.
</event>
<event>
11    1  0.8039394E-009  0.1404045E+03  0.7561462E-02  0.1107107E+00
         22   -1    0    0    0    0  0.00000000000E+00  0.00000000000E+00  0.10617031757E+04  0.10617031757E+04  0.00000000000E+00 0.  1.
         22   -1    0    0    0    0 -0.00000000000E+00 -0.00000000000E+00 -0.17751210414E+04  0.17751210414E+04  0.00000000000E+00 0.  1.
         24    2    1    2    0    0  0.47920872502E+01  0.41697390392E+02 -0.14176446602E+04  0.14205174041E+04  0.79947960821E+02 0.  0.
         25    2    1    2    0    0 -0.54440758279E+02 -0.81375197715E+02 -0.33565005186E+03  0.37134034497E+03  0.12508787121E+03 0.  0.
        -24    2    1    2    0    0  0.49648671029E+02  0.39677807323E+02  0.10398768463E+04  0.10449664680E+04  0.81066298306E+02 0.  0.
        -13    1    3    3    0    0  0.25334895396E+02  0.57235226305E+02 -0.85780979928E+03  0.86009033234E+03  0.00000000000E+00 0.  1.
         14    1    3    3    0    0 -0.20542808145E+02 -0.15537835913E+02 -0.55983486089E+03  0.56042707177E+03  0.00000000000E+00 0. -1.
         11    1    5    5    0    0 -0.69418232003E+01  0.59461836631E+01  0.12530905121E+02  0.15510306014E+02  0.00000000000E+00 0. -1.
        -12    1    5    5    0    0  0.56590494229E+02  0.33731623660E+02  0.10273459412E+04  0.10294561619E+04  0.00000000000E+00 0.  1.
          5    1    4    4  501    0 -0.90755632087E+02 -0.70789622109E+02 -0.20363777798E+03  0.23395207282E+03  0.41800000000E+01 0.  1.
         -5    1    4    4    0  501  0.36314873808E+02 -0.10585575606E+02 -0.13201227388E+03  0.13738827215E+03  0.41800000000E+01 0.  1.
</event>
<event>
11    1  0.8039394E-009  0.1454708E+03  0.7561462E-02  0.1101599E+00
         22   -1    0    0    0    0  0.00000000000E+00  0.00000000000E+00  0.11435825991E+04  0.11435825991E+04  0.00000000000E+00 0. -1.
         22   -1    0    0    0    0 -0.00000000000E+00 -0.00000000000E+00 -0.15936084511E+03  0.15936084511E+03  0.00000000000E+00 0. -1.
         24    2    1    2    0    0 -0.62468795279E+02  0.49264825286E+02 -0.10365799141E+03  0.15501194752E+03  0.83392753252E+02 0.  0.
         25    2    1    2    0    0  0.44859490260E+02 -0.96201941354E+01  0.13114140184E+03  0.18694331923E+03  0.12507923619E+03 0.  0.
        -24    2    1    2    0    0  0.17609305018E+02 -0.39644631151E+02  0.95673834356E+03  0.96098817747E+03  0.79172184485E+02 0.  0.
        -13    1    3    3    0    0 -0.13346707125E+02  0.48047747996E+02 -0.12430687464E+02  0.51393021602E+02  0.00000000000E+00 0.  1.
         14    1    3    3    0    0 -0.49122088153E+02  0.12170772900E+01 -0.91227303950E+02  0.10361892591E+03  0.00000000000E+00 0. -1.
         13    1    5    5    0    0  0.14208407035E+02 -0.42281136359E+02  0.95545796884E+03  0.95649856432E+03  0.00000000000E+00 0. -1.
        -14    1    5    5    0    0  0.34008979832E+01  0.26365052082E+01  0.12803747164E+01  0.44896131481E+01  0.00000000000E+00 0.  1.
          5    1    4    4  501    0  0.12724688079E+02 -0.63281696705E+02  0.39102166207E+02  0.75584010390E+02  0.41800000000E+01 0. -1.
         -5    1    4    4    0  501  0.32134802182E+02  0.53661502569E+02  0.92039235630E+02  0.11135930884E+03  0.41800000000E+01 0. -1.
</event>
<event>
11    1  0.8039394E-009  0.1348206E+03  0.7561462E-02  0.1113484E+00
         22   -1    0    0    0    0  0.00000000000E+00  0.00000000000E+00  0.13469817434E+04  0.13469817434E+04  0.00000000000E+00 0.  1.
         22   -1    0    0    0    0 -0.00000000000E+00 -0.00000000000E+00 -0.37986564631E+03  0.37986564631E+03  0.00000000000E+00 0.  1.
        -24    2    1    2    0    0  0.14878957678E+02 -0.47950113464E+02 -0.34600192170E+03  0.36484045113E+03  0.10426230476E+03 0.  0.
         25    2    1    2    0    0 -0.45086582302E+02  0.40152547143E+02  0.18898039409E+03  0.23453443154E+03  0.12509109993E+03 0.  0.
         24    2    1    2    0    0  0.30207624624E+02  0.77975663202E+01  0.11241376247E+04  0.11274725071E+04  0.80842762367E+02 0.  0.
        -11    1    5    5    0    0  0.81034927251E+01 -0.99392073760E+01  0.10023051764E+04  0.10023872111E+04  0.00000000000E+00 0.  1.
         12    1    5    5    0    0  0.22104131899E+02  0.17736773696E+02  0.12183244833E+03  0.12508529592E+03  0.00000000000E+00 0. -1.
         11    1    3    3    0    0 -0.11386204150E+02  0.47130534886E+01  0.14788574561E+01  0.12411508269E+02  0.00000000000E+00 0. -1.
        -12    1    3    3    0    0  0.26265161828E+02 -0.52663166952E+02 -0.34748077916E+03  0.35242894286E+03  0.00000000000E+00 0.  1.
          5    1    4    4  501    0  0.28298070011E+02 -0.26921643935E+02  0.49352124204E+02  0.63076621992E+02  0.41800000000E+01 0. -1.
         -5    1    4    4    0  501 -0.73384652313E+02  0.67074191078E+02  0.13962826989E+03  0.17145780955E+03  0.41800000000E+01 0. -1.
</event>
<event>
11    1  0.8039394E-009  0.1342087E+03  0.7561462E-02  0.1114203E+00
         22   -1    0    0    0    0  0.00000000000E+00  0.00000000000E+00  0.25302878563E+03  0.25302878563E+03  0.00000000000E+00 0.  1.
         22   -1    0    0    0    0 -0.00000000000E+00 -0.00000000000E+00 -0.37843217878E+03  0.37843217878E+03  0.00000000000E+00 0.  1.
        -24    2    1    2    0    0  0.39149893015E+02 -0.26910883965E+02 -0.29304565768E+03  0.30788567658E+03  0.81614475177E+02 0.  0.
         25    2    1    2    0    0 -0.54510206948E+02  0.24377429068E+02  0.19021492806E+01  0.13863712358E+03  0.12510400534E+03 0.  0.
         24    2    1    2    0    0  0.15360313933E+02  0.25334548966E+01  0.16574011525E+03  0.18493816425E+03  0.80560419283E+02 0.  0.
        -11    1    5    5    0    0  0.46108928701E+02  0.12119034610E+02  0.11881499487E+03  0.12802307336E+03  0.00000000000E+00 0.  1.
         12    1    5    5    0    0 -0.30748614769E+02 -0.95855797129E+01  0.46925120381E+02  0.56915090894E+02  0.00000000000E+00 0. -1.
         13    1    3    3    0    0  0.14507447767E+02  0.38588314898E+01 -0.31714476139E+01  0.15343229815E+02  0.00000000000E+00 0. -1.
        -14    1    3    3    0    0  0.24642445248E+02 -0.30769715454E+02 -0.28987421007E+03  0.29254244677E+03  0.00000000000E+00 0.  1.
          5    1    4    4  501    0 -0.54723781878E+02  0.59771943597E+02  0.36488346109E+02  0.88973306931E+02  0.41800000000E+01 0.  1.
         -5    1    4    4    0  501  0.21357492984E+00 -0.35394514529E+02 -0.34586196829E+02  0.49663816648E+02  0.41800000000E+01 0.  1.
</event>
