<event>
11    1  0.8039394E-009  0.1508915E+03  0.7561462E-02  0.1095971E+00
         22   -1    0    0    0    0  0.00000000000E+00  0.00000000000E+00  0.27243849150E+04  0.27243849150E+04  0.00000000000E+00 0.  1.
         22   -1    0    0    0    0 -0.00000000000E+00 -0.00000000000E+00 -0.26309476703E+03  0.26309476703E+03  0.00000000000E+00 0.  1.
         24    2    1    2    0    0 -0.51834466231E+02  0.62972582503E+02 -0.17238406268E+03  0.20705911693E+03  0.80652680072E+02 0.  0.
         25    2    1    2    0    0  0.64427360606E+01  0.99982461608E+01 -0.17112451600E+02  0.12681453093E+03  0.12509042921E+03 0.  0.
        -24    2    1    2    0    0  0.45391730171E+02 -0.72970828664E+02  0.26507866623E+04  0.26536060342E+04  0.87005200251E+02 0.  0.
        -11    1    3    3    0    0 -0.38183422527E+01  0.21292097807E+02 -0.12727430621E+03  0.12909950498E+03  0.00000000000E+00 0.  1.
         12    1    3    3    0    0 -0.48016123979E+02  0.41680484696E+02 -0.45109756474E+02  0.77959611951E+02  0.00000000000E+00 0. -1.
         13    1    5    5    0    0  0.20533185703E+02  0.98162260613E+01  0.19918345993E+03  0.20047947705E+03  0.00000000000E+00 0. -1.
        -14    1    5    5    0    0  0.24858544467E+02 -0.82787054725E+02  0.24516032023E+04  0.24531265571E+04  0.00000000000E+00 0.  1.
          5    1    4    4  501    0  0.26406526361E+02 -0.19629346647E+02  0.44482047683E+02  0.55486402391E+02  0.41800000000E+01 0. -1.
         -5    1    4    4    0  501 -0.19963790300E+02  0.29627592808E+02 -0.61594499282E+02  0.71328128537E+02  0.41800000000E+01 0. -1.
</event>
<event>
11    1  0.8039394E-009  0.1315562E+03  0.7561462E-02  0.1117372E+00
         22   -1    0    0    0    0  0.00000000000E+00  0.00000000000E+00  0.42221207052E+03  0.42221207052E+03  0.00000000000E+00 0. -1.
         22   -1    0    0    0    0 -0.00000000000E+00 -0.00000000000E+00 -0.10578860820E+04  0.10578860820E+04  0.00000000000E+00 0.  1.
         24    2    1    2    0    0 -0.38985144964E+02  0.19954403920E+02 -0.73651720220E+03  0.74227236006E+03  0.81195120651E+02 0.  0.
         25    2    1    2    0    0  0.54695786586E+02 -0.56833888247E+02 -0.29559234033E+03  0.33053005782E+03  0.12511421795E+03 0.  0.
        -24    2    1    2    0    0 -0.15710641622E+02  0.36879484327E+02  0.39643553109E+03  0.40729573461E+03  0.84390547412E+02 0.  0.
        -11    1    3    3    0    0 -0.67789070618E+01  0.18914507749E+02 -0.64383397356E+03  0.64414741922E+03  0.00000000000E+00 0.  1.
         12    1    3    3    0    0 -0.32206237902E+02  0.10398961707E+01 -0.92683228641E+02  0.98124940841E+02  0.00000000000E+00 0. -1.
         13    1    5    5    0    0  0.10735986565E+02  0.14461924160E+02  0.34377995562E+03  0.34425145831E+03  0.00000000000E+00 0. -1.
        -14    1    5    5    0    0 -0.26446628187E+02  0.22417560167E+02  0.52655575469E+02  0.63044276301E+02  0.00000000000E+00 0.  1.
          5    1    4    4  501    0  0.26382581455E+02  0.38620933185E+02 -0.75236810738E+02  0.88688596642E+02  0.41800000000E+01 0. -1.
         -5    1    4    4    0  501  0.28313205131E+02 -0.95454821433E+02 -0.22035552960E+03  0.24184146117E+03  0.41800000000E+01 0. -1.
</event>
<event>
11    1  0.8039394E-009  0.1712885E+03  0.7561462E-02  0.1076916E+00
         22   -1    0    0    0    0  0.00000000000E+00  0.00000000000E+00  0.57030385756E+03  0.57030385756E+03  0.00000000000E+00 0.  1.
         22   -1    0    0    0    0 -0.00000000000E+00 -0.00000000000E+00 -0.11516609252E+03  0.11516609252E+03  0.00000000000E+00 0.  1.
         24    2    1    2    0    0 -0.66440048975E+01  0.70554876757E+02  0.26475073923E+02  0.11152445140E+03  0.81942908692E+02 0.  0.
         25    2    1    2    0    0  0.11723906804E+03 -0.91166432181E+02  0.10235988384E+03  0.21950185894E+03  0.12508877978E+03 0.  0.
        -24    2    1    2    0    0 -0.11059506315E+03  0.20611555425E+02  0.32630280727E+03  0.35444363974E+03  0.80626717084E+02 0.  0.
        -13    1    3    3    0    0 -0.36344918692E+02  0.28314894070E+02 -0.11429172046E+02  0.47469066923E+02  0.00000000000E+00 0.  1.
         14    1    3    3    0    0  0.29700913795E+02  0.42239982686E+02  0.37904245969E+02  0.64055384474E+02  0.00000000000E+00 0. -1.
         13    1    5    5    0    0 -0.89432267849E+02  0.42588020023E+02  0.29293994026E+03  0.30923401912E+03  0.00000000000E+00 0. -1.
        -14    1    5    5    0    0 -0.21162795298E+02 -0.21976464598E+02  0.33362867008E+02  0.45209620613E+02  0.00000000000E+00 0.  1.
          5    1    4    4  501    0  0.63803189181E+02 -0.11785020284E+03  0.65871078458E+02  0.14938536955E+03  0.41800000000E+01 0.  1.
         -5    1    4    4    0  501  0.53435878863E+02  0.26683770656E+02  0.36488805385E+02  0.70116489392E+02  0.41800000000E+01 0.  1.
</event>
<event>
11    1  0.8039394E-009  0.1495273E+03  0.7561462E-02  0.1097363E+00
         22   -1    0    0    0    0  0.00000000000E+00  0.00000000000E+00  0.14969350441E+04  0.14969350441E+04  0.00000000000E+00 0.  1.
         22   -1    0    0    0    0 -0.00000000000E+00 -0.00000000000E+00 -0.69117751336E+02  0.69117751336E+02  0.00000000000E+00 0.  1.
        -24    2    1    2    0    0  0.55813033205E+02 -0.63059072335E+02  0.34861991168E+02  0.12109992945E+03  0.79738906477E+02 0.  0.
         25    2    1    2    0    0 -0.65703952334E+02  0.41524334871E+02  0.19673848620E+03  0.24575616901E+03  0.12509509549E+03 0.  0.
         24    2    1    2    0    0  0.98909191296E+01  0.21534737465E+02  0.11962168154E+04  0.11991966970E+04  0.81095458498E+02 0.  0.
        -11    1    5    5    0    0  0.23329898826E+02  0.11983672841E+02  0.11468427130E+04  0.11471425809E+04  0.00000000000E+00 0.  1.
         12    1    5    5    0    0 -0.13438979696E+02  0.95510646237E+01  0.49374102427E+02  0.52054116083E+02  0.00000000000E+00 0. -1.
         13    1    3    3    0    0  0.13418500942E+02  0.91881400248E-01  0.42583369782E+02  0.44647597827E+02  0.00000000000E+00 0. -1.
        -14    1    3    3    0    0  0.42394532263E+02 -0.63150953736E+02 -0.77213786140E+01  0.76452331627E+02  0.00000000000E+00 0.  1.
          5    1    4    4  501    0  0.26635741847E+01  0.30745704235E+02  0.16772655262E+03  0.17059326426E+03  0.41800000000E+01 0.  1.
         -5    1    4    4    0  501 -0.68367526519E+02  0.10778630635E+02  0.29011933575E+02  0.75162904750E+02  0.41800000000E+01 0.  1.
</event>
<event>
11    1  0.8039394E-009  0.1456762E+03  0.7561462E-02  0.1101381E+00
         22   -1    0    0    0    0  0.00000000000E+00  0.00000000000E+00  0.88870408260E+03  0.88870408260E+03  0.00000000000E+00 0. -1.
         22   -1    0    0    0    0 -0.00000000000E+00 -0.00000000000E+00 -0.29920620376E+04  0.29920620376E+04  0.00000000000E+00 0. -1.
        -24    2    1    2    0    0 -0.42208626878E+02 -0.32740238651E+02 -0.21876789703E+04  0.21897382477E+04  0.78490923169E+02 0.  0.
         25    2    1    2    0    0  0.10204399438E+03  0.77004413219E+02 -0.78986344046E+03  0.80986065283E+03  0.12508943192E+03 0.  0.
         24    2    1    2    0    0 -0.59835367497E+02 -0.44264174569E+02  0.87418445572E+03  0.88116721969E+03  0.81961076559E+02 0.  0.
        -11    1    5    5    0    0 -0.14546588811E+02 -0.60423395751E+02  0.53291326216E+03  0.53652505532E+03  0.00000000000E+00 0.  1.
         12    1    5    5    0    0 -0.45288778686E+02  0.16159221183E+02  0.34127119356E+03  0.34464216437E+03  0.00000000000E+00 0. -1.
         11    1    3    3    0    0 -0.54491556427E+02 -0.19185123424E+02 -0.20541445893E+04  0.20549567860E+04  0.00000000000E+00 0. -1.
        -12    1    3    3    0    0  0.12282929549E+02 -0.13555115227E+02 -0.13353438102E+03  0.13478146171E+03  0.00000000000E+00 0.  1.
          5    1    4    4  501    0  0.95134231076E+02 -0.52017848487E+01 -0.38279077381E+03  0.39449186228E+03  0.41800000000E+01 0. -1.
         -5    1    4    4    0  501  0.69097632998E+01  0.82206198068E+02 -0.40707266665E+03  0.41536879055E+03  0.41800000000E+01 0. -1.
</event>
<event>
11    1  0.8039394E-009  0.1328162E+03  0.7561462E-02  0.1115856E+00
         22   -1    0    0    0    0  0.00000000000E+00  0.00000000000E+00  0.40620600264E+03  0.40620600264E+03  0.00000000000E+00 0. -1.
         22   -1    0    0    0    0 -0.00000000000E+00 -0.00000000000E+00 -0.19460361109E+03  0.19460361109E+03  0.00000000000E+00 0.  1.
        -24    2    1    2    0    0  0.29433741204E+02 -0.42077597162E+01 -0.11859787144E+03  0.14703324516E+03  0.81665596855E+02 0.  0.
         25    2    1    2    0    0 -0.67491711933E+02  0.20113590183E+02  0.39988504913E+02  0.14901584556E+03  0.12508778523E+03 0.  0.
         24    2    1    2    0    0  0.38057970729E+02 -0.15905830466E+02  0.29021175808E+03  0.30476052301E+03  0.83394887604E+02 0.  0.
        -13    1    5    5    0    0 -0.18503817445E+02 -0.49065214124E+01  0.17203240629E+02  0.25737457150E+02  0.00000000000E+00 0.  1.
         14    1    5    5    0    0  0.56561788174E+02 -0.10999309054E+02  0.27300851745E+03  0.27902306586E+03  0.00000000000E+00 0. -1.
         13    1    3    3    0    0  0.15393070060E+02 -0.24533474985E+02 -0.33365056507E+01  0.29154249616E+02  0.00000000000E+00 0. -1.
        -14    1    3    3    0    0  0.14040671144E+02  0.20325715268E+02 -0.11526136579E+03  0.11787899555E+03  0.00000000000E+00 0.  1.
          5    1    4    4  501    0 -0.10951821066E+02 -0.43049797750E+02  0.45801941063E+02  0.63941517624E+02  0.41800000000E+01 0.  1.
         -5    1    4    4    0  501 -0.56539890867E+02  0.63163387932E+02 -0.58134361500E+01  0.85074327939E+02  0.41800000000E+01 0.  1.
</event>
<event>
11    1  0.8039394E-009  0.1382701E+03  0.7561462E-02  0.1109506E+00
         22   -1    0    0    0    0  0.00000000000E+00  0.00000000000E+00  0.21924605550E+03  0.21924605550E+03  0.00000000000E+00 0. -1.
         22   -1    0    0    0    0 -0.00000000000E+00 -0.00000000000E+00 -0.43567162575E+03  0.43567162575E+03  0.00000000000E+00 0.  1.
         24    2    1    2    0    0  0.38230882080E+01 -0.14477473839E+02 -0.31528238358E+03  0.32573175589E+03  0.80461059817E+02 0.  0.
         25    2    1    2    0    0 -0.62139768509E+02  0.92151133125E+01 -0.51286224157E+02  0.14907933187E+03  0.12509237090E+03 0.  0.
        -24    2    1    2    0    0  0.58316680301E+02  0.52623605264E+01  0.15014303749E+03  0.18010659350E+03  0.80417197640E+02 0.  0.
        -13    1    3    3    0    0 -0.39608696411E+01 -0.32237918394E+02 -0.29797511913E+03  0.29974012660E+03  0.00000000000E+00 0.  1.
         14    1    3    3    0    0  0.77839578491E+01  0.17760444555E+02 -0.17307264446E+02  0.25991629290E+02  0.00000000000E+00 0. -1.
         11    1    5    5    0    0  0.30339656774E+02 -0.25398098838E+02  0.12605041896E+03  0.13211459540E+03  0.00000000000E+00 0. -1.
        -12    1    5    5    0    0  0.27977023527E+02  0.30660459365E+02  0.24092618525E+02  0.47991998096E+02  0.00000000000E+00 0.  1.
          5    1    4    4  501    0 -0.83678342549E+02 -0.32259390696E+02 -0.18037056889E+02  0.91572600275E+02  0.41800000000E+01 0. -1.
         -5    1    4    4    0  501  0.21538574040E+02  0.41474504009E+02 -0.33249167268E+02  0.57506731593E+02  0.41800000000E+01 0. -1.
</event>
<event>
11    1  0.8039394E-009  0.2395847E+03  0.7561462E-02  0.1029599E+00
         22   -1    0    0    0    0  0.00000000000E+00  0.00000000000E+00  0.91492200158E+03  0.91492200158E+03  0.00000000000E+00 0.  1.
         22   -1    0    0    0    0 -0.00000000000E+00 -0.00000000000E+00 -0.40900549204E+03  0.40900549204E+03  0.00000000000E+00 0.  1.
         24    2    1    2    0    0  0.79563495955E+02 -0.17191612615E+03 -0.20729230899E+03  0.29242338565E+03  0.81583275195E+02 0.  0.
         25    2    1    2    0    0 -0.43427825537E+02  0.25323796757E+03 -0.21518627450E+02  0.28657695065E+03  0.12509137888E+03 0.  0.
        -24    2    1    2    0    0 -0.36135670418E+02 -0.81321841420E+02  0.73472744597E+03  0.74492715732E+03  0.84693690878E+02 0.  0.
        -11    1    3    3    0    0  0.25825907049E+02 -0.13634962038E+03 -0.11711818438E+03  0.18158982781E+03  0.00000000000E+00 0.  1.
         12    1    3    3    0    0  0.53737588905E+02 -0.35566505765E+02 -0.90174124609E+02  0.11083355784E+03  0.00000000000E+00 0. -1.
         11    1    5    5    0    0 -0.15596463434E+02  0.99665118699E+01  0.41852431404E+02  0.45762506979E+02  0.00000000000E+00 0. -1.
        -12    1    5    5    0    0 -0.20539206983E+02 -0.91288353290E+02  0.69287501457E+03  0.69916465034E+03  0.00000000000E+00 0.  1.
          5    1    4    4  501    0 -0.87835726595E+01  0.13135500659E+03  0.50153587992E+02  0.14094021319E+03  0.41800000000E+01 0. -1.
         -5    1    4    4    0  501 -0.34644252877E+02  0.12188296098E+03 -0.71672215441E+02  0.14563673747E+03  0.41800000000E+01 0. -1.
</event>
<event>
11    1  0.8039394E-009  0.1515923E+03  0.7561462E-02  0.1095263E+00
         22   -1    0    0    0    0  0.00000000000E+00  0.00000000000E+00  0.96135607031E+03  0.96135607031E+03  0.00000000000E+00 0.  1.
         22   -1    0    0    0    0 -0.00000000000E+00 -0.00000000000E+00 -0.25816358554E+03  0.25816358554E+03  0.00000000000E+00 0. -1.
         24    2    1    2    0    0 -0.82494573964E+02  0.25133281581E+02 -0.20800105356E+03  0.23895965088E+03  0.80001499294E+02 0.  0.
         25    2    1    2    0    0  0.65161344077E+02  0.64172656553E+02  0.17458925193E+03  0.23343757235E+03  0.12509021818E+03 0.  0.
        -24    2    1    2    0    0  0.17333229887E+02 -0.89305938134E+02  0.73660428640E+03  0.74712243262E+03  0.85615787917E+02 0.  0.
        -13    1    3    3    0    0 -0.42455351798E+02 -0.26662893575E+02 -0.68759534661E+02  0.85095478122E+02  0.00000000000E+00 0.  1.
         14    1    3    3    0    0 -0.40039222166E+02  0.51796175156E+02 -0.13924151890E+03  0.15386417276E+03  0.00000000000E+00 0. -1.
         11    1    5    5    0    0  0.40770408696E+02 -0.12024320529E+02  0.31481488384E+03  0.31767156246E+03  0.00000000000E+00 0. -1.
        -12    1    5    5    0    0 -0.23437178810E+02 -0.77281617605E+02  0.42178940256E+03  0.42945087016E+03  0.00000000000E+00 0.  1.
          5    1    4    4  501    0 -0.26757901767E+02 -0.17220446675E+02  0.34808709275E+02  0.47346042411E+02  0.41800000000E+01 0.  1.
         -5    1    4    4    0  501  0.91919245844E+02  0.81393103228E+02  0.13978054265E+03  0.18609152994E+03  0.41800000000E+01 0.  1.
</event>
<event>
11    1  0.8039394E-009  0.3436307E+03  0.7561462E-02  0.9832488E-01
         22   -1    0    0    0    0  0.00000000000E+00  0.00000000000E+00  0.19069206040E+04  0.19069206040E+04  0.00000000000E+00 0. -1.
         22   -1    0    0    0    0 -0.00000000000E+00 -0.00000000000E+00 -0.91975790023E+02  0.91975790023E+02  0.00000000000E+00 0. -1.
        -24    2    1    2    0    0 -0.62919858521E+02 -0.34956783257E+03  0.49911907628E+03  0.61785468941E+03  0.80423794731E+02 0.  0.
         25    2    1    2    0    0  0.37765598919E+02  0.26363874589E+03  0.83058512578E+03  0.88116448872E+03  0.12509027225E+03 0.  0.
         24    2    1    2    0    0  0.25154259601E+02  0.85929086686E+02  0.48524061190E+03  0.49987721587E+03  0.80013966276E+02 0.  0.
        -11    1    5    5    0    0  0.46621352803E+02  0.36016296899E+02  0.16830328618E+03  0.17831634900E+03  0.00000000000E+00 0.  1.
         12    1    5    5    0    0 -0.21467093202E+02  0.49912789786E+02  0.31693732572E+03  0.32156086688E+03  0.00000000000E+00 0. -1.
         11    1    3    3    0    0 -0.38911733689E+02 -0.32677091052E+03  0.47006295624E+03  0.57380531003E+03  0.00000000000E+00 0. -1.
        -12    1    3    3    0    0 -0.24008124832E+02 -0.22796922048E+02  0.29056120039E+02  0.44049379389E+02  0.00000000000E+00 0.  1.
          5    1    4    4  501    0  0.10542770356E+02  0.73259095369E+02  0.43520102707E+03  0.44146964949E+03  0.41800000000E+01 0. -1.
         -5    1    4    4    0  501  0.27222828564E+02  0.19037965052E+03  0.39538409871E+03  0.43969483922E+03  0.41800000000E+01 0. -1.
</event>
<event>
11    1  0.8039394E-009  0.1406056E+03  0.7561462E-02  0.1106884E+00
         22   -1    0    0    0    0  0.00000000000E+00  0.00000000000E+00  0.67706461786E+03  0.67706461786E+03  0.00000000000E+00 0.  1.
         22   -1    0    0    0    0 -0.00000000000E+00 -0.00000000000E+00 -0.85974173052E+02  0.85974173052E+02  0.00000000000E+00 0. -1.
         24    2    1    2    0    0  0.10286182692E+01  0.33940431637E+02 -0.15302283721E+02  0.91097774388E+02  0.83136235518E+02 0.  0.
         25    2    1    2    0    0  0.43249864798E+02 -0.74415254456E+02  0.18823361664E+03  0.24184551502E+03  0.12509667382E+03 0.  0.
        -24    2    1    2    0    0 -0.44278483067E+02  0.40474822819E+02  0.41815911189E+03  0.43009550150E+03  0.80785532202E+02 0.  0.
        -13    1    3    3    0    0  0.11649176996E+02  0.58940933778E+02 -0.33040428566E+00  0.60081995359E+02  0.00000000000E+00 0.  1.
         14    1    3    3    0    0 -0.10620558727E+02 -0.25000502141E+02 -0.14971879436E+02  0.31015779029E+02  0.00000000000E+00 0. -1.
         11    1    5    5    0    0 -0.21513934724E+02 -0.23963567300E+02  0.12613979277E+03  0.13018582590E+03  0.00000000000E+00 0. -1.
        -12    1    5    5    0    0 -0.22764548343E+02  0.64438390120E+02  0.29201931911E+03  0.29990967560E+03  0.00000000000E+00 0.  1.
          5    1    4    4  501    0  0.55368663071E+02 -0.96077949010E+02  0.97606237761E+02  0.14778738507E+03  0.41800000000E+01 0.  1.
         -5    1    4    4    0  501 -0.12118798274E+02  0.21662694554E+02  0.90627378882E+02  0.94058129951E+02  0.41800000000E+01 0.  1.
</event>
<event>
11    1  0.8039394E-009  0.1722960E+03  0.7561462E-02  0.1076051E+00
         22   -1    0    0    0    0  0.00000000000E+00  0.00000000000E+00  0.37011915460E+03  0.37011915460E+03  0.00000000000E+00 0. -1.
         22   -1    0    0    0    0 -0.00000000000E+00 -0.00000000000E+00 -0.80877866790E+03  0.80877866790E+03  0.00000000000E+00 0.  1.
        -24    2    1    2    0    0  0.90450216083E+02  0.68427605037E+02 -0.67754339039E+03  0.69379163404E+03  0.97047446493E+02 0.  0.
         25    2    1    2    0    0 -0.18010751397E+03 -0.98250269246E+02  0.29536481337E+02  0.24209993133E+03  0.12509252985E+03 0.  0.
         24    2    1    2    0    0  0.89657297889E+02  0.29822664209E+02  0.20934739575E+03  0.24300625713E+03  0.79359224593E+02 0.  0.
        -11    1    5    5    0    0  0.11420480508E+02  0.43915197914E+01 -0.51490237844E+01  0.13274986518E+02  0.00000000000E+00 0.  1.
         12    1    5    5    0    0  0.78236817380E+02  0.25431144418E+02  0.21449641954E+03  0.22973127061E+03  0.00000000000E+00 0. -1.
         11    1    3    3    0    0  0.45356718801E+02  0.17303221325E+02 -0.89568349579E+02  0.10187797924E+03  0.00000000000E+00 0. -1.
        -12    1    3    3    0    0  0.45093497282E+02  0.51124383711E+02 -0.58797504081E+03  0.59191365479E+03  0.00000000000E+00 0.  1.
          5    1    4    4  501    0  0.16300286525E+02 -0.23956123607E+02 -0.35079473773E+01  0.29485136830E+02  0.41800000000E+01 0. -1.
         -5    1    4    4    0  501 -0.19640780050E+03 -0.74294145639E+02  0.33044428714E+02  0.21261479450E+03  0.41800000000E+01 0. -1.
</event>
<event>
11    1  0.8039394E-009  0.1263630E+03  0.7561462E-02  0.1123820E+00
         22   -1    0    0    0    0  0.00000000000E+00  0.00000000000E+00  0.10008978862E+04  0.10008978862E+04  0.00000000000E+00 0. -1.
         22   -1    0    0    0    0 -0.00000000000E+00 -0.00000000000E+00 -0.14264743578E+03  0.14264743578E+03  0.00000000000E+00 0.  1.
        -24    2    1    2    0    0 -0.86758048482E+01 -0.15770930413E+02 -0.10778657234E+03  0.13552470102E+03  0.80156144942E+02 0.  0.
         25    2    1    2    0    0  0.57427718984E+01  0.15490779453E+02  0.19166318746E+03  0.22946676066E+03  0.12508906085E+03 0.  0.
         24    2    1    2    0    0  0.29330329498E+01  0.28015095930E+00  0.77437383529E+03  0.77855386029E+03  0.80514566479E+02 0.  0.
        -13    1    5    5    0    0 -0.59329550911E+01 -0.35963322722E+02  0.22679960000E+03  0.22970985851E+03  0.00000000000E+00 0.  1.
         14    1    5    5    0    0  0.88659880410E+01  0.36243473681E+02  0.54757423530E+03  0.54884400178E+03  0.00000000000E+00 0. -1.
         13    1    3    3    0    0  0.22937824454E+02  0.12020550525E+01 -0.11332755142E+01  0.22997239843E+02  0.00000000000E+00 0. -1.
        -14    1    3    3    0    0 -0.31613629302E+02 -0.16972985465E+02 -0.10665329683E+03  0.11252746117E+03  0.00000000000E+00 0.  1.
          5    1    4    4  501    0  0.77501967230E+01  0.54018430144E+02  0.18118536015E+03  0.18927140163E+03  0.41800000000E+01 0.  1.
         -5    1    4    4    0  501 -0.20074248246E+01 -0.38527650691E+02  0.10477827310E+02  0.40195359027E+02  0.41800000000E+01 0.  1.
</event>
<event>
11    1  0.8039394E-009  0.1829076E+03  0.7561462E-02  0.1067315E+00
         22   -1    0    0    0    0  0.00000000000E+00  0.00000000000E+00  0.11552197655E+03  0.11552197655E+03  0.00000000000E+00 0. -1.
         22   -1    0    0    0    0 -0.00000000000E+00 -0.00000000000E+00 -0.21727290930E+04  0.21727290930E+04  0.00000000000E+00 0. -1.
        -24    2    1    2    0    0  0.39234287703E+02  0.45765570263E+01 -0.10715684042E+04  0.10753045718E+04  0.80379120184E+02 0.  0.
         25    2    1    2    0    0 -0.90116934133E+02  0.11816945142E+03 -0.10334758830E+04  0.10515725015E+04  0.12508894454E+03 0.  0.
         24    2    1    2    0    0  0.50882646431E+02 -0.12274600845E+03  0.47837170755E+02  0.16137399631E+03  0.78086781731E+02 0.  0.
        -11    1    5    5    0    0  0.60801004419E+02 -0.68847524890E+02  0.53091947962E+01  0.92005061660E+02  0.00000000000E+00 0.  1.
         12    1    5    5    0    0 -0.99183579878E+01 -0.53898483557E+02  0.42527975959E+02  0.69368934647E+02  0.00000000000E+00 0. -1.
         11    1    3    3    0    0  0.41474834814E+02 -0.21927587386E+02 -0.93463718774E+03  0.93581389908E+03  0.00000000000E+00 0. -1.
        -12    1    3    3    0    0 -0.22405471111E+01  0.26504144412E+02 -0.13693121645E+03  0.13949067267E+03  0.00000000000E+00 0.  1.
          5    1    4    4  501    0 -0.43022798388E+02  0.79154172246E+02 -0.90212850750E+03  0.90662542464E+03  0.41800000000E+01 0. -1.
         -5    1    4    4    0  501 -0.47094135745E+02  0.39015279174E+02 -0.13134737549E+03  0.14494707682E+03  0.41800000000E+01 0. -1.
</event>
<event>
11    1  0.8039394E-009  0.1422815E+03  0.7561462E-02  0.1105037E+00
         22   -1    0    0    0    0  0.00000000000E+00  0.00000000000E+00  0.47061690337E+03  0.47061690337E+03  0.00000000000E+00 0.  1.
         22   -1    0    0    0    0 -0.00000000000E+00 -0.00000000000E+00 -0.77749308268E+03  0.77749308268E+03  0.00000000000E+00 0. -1.
        -24    2    1    2    0    0 -0.72800887424E+02 -0.11443464483E+02 -0.63416784089E+03  0.64350637967E+03  0.80626845173E+02 0.  0.
         25    2    1    2    0    0  0.25430983205E+02  0.19885373765E+02 -0.10222633610E+03  0.16473531928E+03  0.12508132806E+03 0.  0.
         24    2    1    2    0    0  0.47369904218E+02 -0.84419092821E+01  0.42951799768E+03  0.43986828710E+03  0.81751000076E+02 0.  0.
        -13    1    5    5    0    0  0.44161687243E+02 -0.41992099093E+02  0.29053454950E+03  0.29685672548E+03  0.00000000000E+00 0.  1.
         14    1    5    5    0    0  0.32082169749E+01  0.33550189811E+02  0.13898344818E+03  0.14301156163E+03  0.00000000000E+00 0. -1.
         11    1    3    3    0    0 -0.47160184781E+02 -0.44361304569E+02 -0.45248310075E+03  0.45709185601E+03  0.00000000000E+00 0. -1.
        -12    1    3    3    0    0 -0.25640702642E+02  0.32917840086E+02 -0.18168474014E+03  0.18641452365E+03  0.00000000000E+00 0.  1.
          5    1    4    4  501    0  0.49928757732E+02  0.12933050550E+02  0.72567099773E+01  0.52252051490E+02  0.41800000000E+01 0. -1.
         -5    1    4    4    0  501 -0.24497774527E+02  0.69523232152E+01 -0.10948304608E+03  0.11248326779E+03  0.41800000000E+01 0. -1.
</event>
<event>
11    1  0.8039394E-009  0.1288620E+03  0.7561462E-02  0.1120675E+00
         22   -1    0    0    0    0  0.00000000000E+00  0.00000000000E+00  0.26714295534E+03  0.26714295534E+03  0.00000000000E+00 0. -1.
         22   -1    0    0    0    0 -0.00000000000E+00 -0.00000000000E+00 -0.57167781944E+03  0.57167781944E+03  0.00000000000E+00 0. -1.
        -24    2    1    2    0    0 -0.19397336477E+02 -0.22990620344E+02 -0.51190896915E+03  0.51889743225E+03  0.79365781148E+02 0.  0.
         25    2    1    2    0    0  0.31325749172E+02  0.44250793630E+02  0.52523621950E+02  0.14611341109E+03  0.12510380785E+03 0.  0.
         24    2    1    2    0    0 -0.11928412695E+02 -0.21260173286E+02  0.15485048310E+03  0.17380993144E+03  0.75079545493E+02 0.  0.
        -13    1    5    5    0    0  0.15147429533E+02 -0.22613631644E+02  0.14449680845E+02  0.30815811430E+02  0.00000000000E+00 0.  1.
         14    1    5    5    0    0 -0.27075842228E+02  0.13534583575E+01  0.14040080226E+03  0.14299412001E+03  0.00000000000E+00 0. -1.
         11    1    3    3    0    0 -0.28285443105E+02 -0.44418403605E+02 -0.44450054750E+03  0.44760897846E+03  0.00000000000E+00 0. -1.
        -12    1    3    3    0    0  0.88881066278E+01  0.21427783261E+02 -0.67408421645E+02  0.71288453789E+02  0.00000000000E+00 0.  1.
          5    1    4    4  501    0  0.25319862033E+02  0.98264538669E+01 -0.39198531993E+02  0.47871201357E+02  0.41800000000E+01 0.  1.
         -5    1    4    4    0  501  0.60058871388E+01  0.34424339763E+02  0.91722153943E+02  0.98242209729E+02  0.41800000000E+01 0.  1.
</event>
<event>
11    1  0.8039394E-009  0.1502353E+03  0.7561462E-02  0.1096639E+00
         22   -1    0    0    0    0  0.00000000000E+00  0.00000000000E+00  0.38941015817E+03  0.38941015817E+03  0.00000000000E+00 0.  1.
         22   -1    0    0    0    0 -0.00000000000E+00 -0.00000000000E+00 -0.16501524351E+04  0.16501524351E+04  0.00000000000E+00 0.  1.
         24    2    1    2    0    0  0.18093584279E+02  0.78935160518E+02 -0.13711856575E+04  0.13760027025E+04  0.81701851007E+02 0.  0.
         25    2    1    2    0    0  0.41001433009E+02 -0.12068874350E+03 -0.23894599182E+03  0.29831339682E+03  0.12509518536E+03 0.  0.
        -24    2    1    2    0    0 -0.59095017289E+02  0.41753582982E+02  0.34938937245E+03  0.36524649394E+03  0.78079990987E+02 0.  0.
        -13    1    3    3    0    0  0.33559154734E+02  0.85421150456E+02 -0.93468133601E+03  0.93917633578E+03  0.00000000000E+00 0.  1.
         14    1    3    3    0    0 -0.15465570455E+02 -0.64859899371E+01 -0.43650432152E+03  0.43682636670E+03  0.00000000000E+00 0. -1.
         13    1    5    5    0    0 -0.26632578184E+02 -0.31771982732E+00  0.24986549563E+02  0.36520170121E+02  0.00000000000E+00 0. -1.
        -14    1    5    5    0    0 -0.32462439104E+02  0.42071302809E+02  0.32440282289E+03  0.32872632382E+03  0.00000000000E+00 0.  1.
          5    1    4    4  501    0 -0.28046137699E+02 -0.93414642414E+02 -0.17433291631E+03  0.19980570404E+03  0.41800000000E+01 0.  1.
         -5    1    4    4    0  501  0.69047570708E+02 -0.27274101087E+02 -0.64613075517E+02  0.98507692789E+02  0.41800000000E+01 0.  1.
</event>
<event>
11    1  0.8039394E-009  0.1385874E+03  0.7561462E-02  0.1109146E+00
         22   -1    0    0    0    0  0.00000000000E+00  0.00000000000E+00  0.85865902259E+03  0.85865902259E+03  0.00000000000E+00 0. -1.
         22   -1    0    0    0    0 -0.00000000000E+00 -0.00000000000E+00 -0.43782353212E+03  0.43782353212E+03  0.00000000000E+00 0. -1.
        -24    2    1    2    0    0  0.49860931606E+02  0.44198182564E+01 -0.26507582647E+03  0.27714613867E+03  0.63554237533E+02 0.  0.
         25    2    1    2    0    0 -0.43409653940E+02  0.55046522757E+02 -0.13247896403E+03  0.19522582219E+03  0.12509167845E+03 0.  0.
         24    2    1    2    0    0 -0.64512776662E+01 -0.59466341014E+02  0.81839028097E+03  0.82411059385E+03  0.76274204163E+02 0.  0.
        -11    1    5    5    0    0 -0.99010547750E+01  0.29037714523E+01  0.14496523668E+02  0.17793593588E+02  0.00000000000E+00 0.  1.
         12    1    5    5    0    0  0.34497771088E+01 -0.62370112466E+02  0.80389375730E+03  0.80631700026E+03  0.00000000000E+00 0. -1.
         11    1    3    3    0    0  0.39736211082E+02 -0.26792487360E+02 -0.14864805811E+03  0.15618274242E+03  0.00000000000E+00 0. -1.
        -12    1    3    3    0    0  0.10124720524E+02  0.31212305617E+02 -0.11642776836E+03  0.12096339625E+03  0.00000000000E+00 0.  1.
          5    1    4    4  501    0 -0.64935768160E+02  0.11221212041E+02 -0.14683688306E+02  0.67643570932E+02  0.41800000000E+01 0.  1.
         -5    1    4    4    0  501  0.21526114220E+02  0.43825310717E+02 -0.11779527573E+03  0.12758225126E+03  0.41800000000E+01 0.  1.
</event>
<event>
11    1  0.8039394E-009  0.1678000E+03  0.7561462E-02  0.1079962E+00
         22   -1    0    0    0    0  0.00000000000E+00  0.00000000000E+00  0.52708173315E+02  0.52708173315E+02  0.00000000000E+00 0.  1.
         22   -1    0    0    0    0 -0.00000000000E+00 -0.00000000000E+00 -0.29590886375E+04  0.29590886375E+04  0.00000000000E+00 0.  1.
        -24    2    1    2    0    0 -0.31911578430E+02  0.29977715485E+02 -0.22808886542E+04  0.22827141420E+04  0.80086135971E+02 0.  0.
         25    2    1    2    0    0 -0.77781920798E+02 -0.65843175393E+02 -0.54392603754E+03  0.56735184179E+03  0.12508887687E+03 0.  0.
         24    2    1    2    0    0  0.10969349923E+03  0.35865459908E+02 -0.81565772533E+02  0.16173082707E+03  0.78644072812E+02 0.  0.
        -13    1    5    5    0    0  0.77992765542E+02  0.25420272993E+02 -0.95208493541E+02  0.12567306393E+03  0.00000000000E+00 0.  1.
         14    1    5    5    0    0  0.31700733687E+02  0.10445186915E+02  0.13642721008E+02  0.36057763137E+02  0.00000000000E+00 0. -1.
         11    1    3    3    0    0  0.10789782216E+02  0.52052280679E+01 -0.55509270615E+02  0.56787260224E+02  0.00000000000E+00 0. -1.
        -12    1    3    3    0    0 -0.42701360646E+02  0.24772487417E+02 -0.22253793835E+04  0.22259268818E+04  0.00000000000E+00 0.  1.
          5    1    4    4  501    0 -0.25684610603E+02  0.36707916718E+02 -0.12298281292E+03  0.13095577515E+03  0.41800000000E+01 0.  1.
         -5    1    4    4    0  501 -0.52097310195E+02 -0.10255109211E+03 -0.42094322462E+03  0.43639606664E+03  0.41800000000E+01 0.  1.
</event>
<event>
11    1  0.8039394E-009  0.2251999E+03  0.7561462E-02  0.1038008E+00
         22   -1    0    0    0    0  0.00000000000E+00  0.00000000000E+00  0.55974427689E+03  0.55974427689E+03  0.00000000000E+00 0.  1.
         22   -1    0    0    0    0 -0.00000000000E+00 -0.00000000000E+00 -0.24623061825E+04  0.24623061825E+04  0.00000000000E+00 0.  1.
         24    2    1    2    0    0  0.58765908513E+02 -0.35087388029E+02 -0.22670187044E+04  0.22695285547E+04  0.81862677016E+02 0.  0.
         25    2    1    2    0    0 -0.22430473193E+03  0.10506958404E+03 -0.60826248283E+02  0.28407419029E+03  0.12508430299E+03 0.  0.
        -24    2    1    2    0    0  0.16553882342E+03 -0.69982196007E+02  0.42528304698E+03  0.46844771444E+03  0.79227402424E+02 0.  0.
        -11    1    3    3    0    0  0.71749736057E+02 -0.48258017739E+02 -0.16863794961E+04  0.16885948791E+04  0.00000000000E+00 0.  1.
         12    1    3    3    0    0 -0.12983827544E+02  0.13170629710E+02 -0.58063920825E+03  0.58093367558E+03  0.00000000000E+00 0. -1.
         13    1    5    5    0    0  0.11248836474E+02  0.90446882895E+00  0.85684358931E+00  0.11317621959E+02  0.00000000000E+00 0. -1.
        -14    1    5    5    0    0  0.15428998695E+03 -0.70886664836E+02  0.42442620339E+03  0.45713009248E+03  0.00000000000E+00 0.  1.
          5    1    4    4  501    0 -0.59407305961E+01 -0.19001636450E+02  0.10589650907E+02  0.22933982954E+02  0.41800000000E+01 0.  1.
         -5    1    4    4    0  501 -0.21836400134E+03  0.12407122049E+03 -0.71415899190E+02  0.26114020734E+03  0.41800000000E+01 0.  1.
</event>
<event>
11    1  0.8039394E-009  0.1746313E+03  0.7561462E-02  0.1074070E+00
         22   -1    0    0    0    0  0.00000000000E+00  0.00000000000E+00  0.27070681477E+03  0.27070681477E+03  0.00000000000E+00 0. -1.
         22   -1    0    0    0    0 -0.00000000000E+00 -0.00000000000E+00 -0.41699302354E+03  0.41699302354E+03  0.00000000000E+00 0.  1.
        -24    2    1    2    0    0 -0.77452873035E+02 -0.88667555306E+02 -0.30753747799E+03  0.33843748679E+03  0.78100891084E+02 0.  0.
         25    2    1    2    0    0  0.81828296543E+02  0.13900410285E+03  0.63728607759E+02  0.21383840933E+03  0.12509004409E+03 0.  0.
         24    2    1    2    0    0 -0.43754235083E+01 -0.50336547544E+02  0.97522661464E+02  0.13542394220E+03  0.79221602313E+02 0.  0.
        -11    1    5    5    0    0  0.13789026008E+02  0.17426619763E+02  0.34957946511E+02  0.41423210147E+02  0.00000000000E+00 0.  1.
         12    1    5    5    0    0 -0.18164449517E+02 -0.67763167307E+02  0.62564714953E+02  0.94000732054E+02  0.00000000000E+00 0. -1.
         13    1    3    3    0    0 -0.40484791481E+01 -0.32038498206E+02 -0.16687477354E+03  0.16997071982E+03  0.00000000000E+00 0. -1.
        -14    1    3    3    0    0 -0.73404393887E+02 -0.56629057100E+02 -0.14066270445E+03  0.16846676697E+03  0.00000000000E+00 0.  1.
          5    1    4    4  501    0  0.10410546211E+02  0.11567044880E+03  0.15495066726E+01  0.11622351555E+03  0.41800000000E+01 0.  1.
         -5    1    4    4    0  501  0.71417750332E+02  0.23333654054E+02  0.62179101086E+02  0.97614893771E+02  0.41800000000E+01 0.  1.
</event>
<event>
11    1  0.8039394E-009  0.1391801E+03  0.7561462E-02  0.1108477E+00
         22   -1    0    0    0    0  0.00000000000E+00  0.00000000000E+00  0.10890241340E+03  0.10890241340E+03  0.00000000000E+00 0.  1.
         22   -1    0    0    0    0 -0.00000000000E+00 -0.00000000000E+00 -0.49910558282E+03  0.49910558282E+03  0.00000000000E+00 0. -1.
        -24    2    1    2    0    0 -0.26352822497E+00 -0.55573206272E+02 -0.23931392829E+03  0.25862954542E+03  0.80806155620E+02 0.  0.
         25    2    1    2    0    0 -0.38473393681E+02  0.71891270108E+02 -0.19763069110E+03  0.24769518946E+03  0.12508581086E+03 0.  0.
         24    2    1    2    0    0  0.38736921906E+02 -0.16318063836E+02  0.46741449971E+02  0.10168326135E+03  0.79924302730E+02 0.  0.
        -11    1    5    5    0    0  0.61499329360E+02 -0.22423002234E+02  0.41607093472E+02  0.77563578876E+02  0.00000000000E+00 0.  1.
         12    1    5    5    0    0 -0.22762407453E+02  0.61049383976E+01  0.51343564997E+01  0.24119682473E+02  0.00000000000E+00 0. -1.
         11    1    3    3    0    0  0.22115519794E+02  0.57671748308E+00 -0.14452288732E+03  0.14620633973E+03  0.00000000000E+00 0. -1.
        -12    1    3    3    0    0 -0.22379048019E+02 -0.56149923755E+02 -0.94791040972E+02  0.11242320568E+03  0.00000000000E+00 0.  1.
          5    1    4    4  501    0 -0.27109913516E+02  0.10767857134E+03 -0.15527659924E+03  0.19093956323E+03  0.41800000000E+01 0. -1.
         -5    1    4    4    0  501 -0.11363480166E+02 -0.35787301233E+02 -0.42354091864E+02  0.56755626229E+02  0.41800000000E+01 0. -1.
</event>
<event>
11    1  0.8039394E-009  0.1319300E+03  0.7561462E-02  0.1116920E+00
         22   -1    0    0    0    0  0.00000000000E+00  0.00000000000E+00  0.49590678564E+03  0.49590678564E+03  0.00000000000E+00 0. -1.
         22   -1    0    0    0    0 -0.00000000000E+00 -0.00000000000E+00 -0.10104771797E+04  0.10104771797E+04  0.00000000000E+00 0. -1.
        -24    2    1    2    0    0 -0.41072547818E+02 -0.76729688937E+01 -0.98344041317E+03  0.98720657041E+03  0.75338819865E+02 0.  0.
         25    2    1    2    0    0  0.58761796557E+02  0.46413542782E+01  0.24799749420E+03  0.28394899751E+03  0.12509910133E+03 0.  0.
         24    2    1    2    0    0 -0.17689248739E+02  0.30316146155E+01  0.22087252493E+03  0.23522839739E+03  0.78902639141E+02 0.  0.
        -13    1    5    5    0    0  0.27881512346E+02  0.85519847546E+01  0.13220023245E+03  0.13537878945E+03  0.00000000000E+00 0.  1.
         14    1    5    5    0    0 -0.45570761085E+02 -0.55203701391E+01  0.88672292481E+02  0.99849607942E+02  0.00000000000E+00 0. -1.
         11    1    3    3    0    0 -0.52466339806E+02  0.19242374269E+02 -0.56937552048E+03  0.57211141319E+03  0.00000000000E+00 0. -1.
        -12    1    3    3    0    0  0.11393791988E+02 -0.26915343163E+02 -0.41406489269E+03  0.41509515723E+03  0.00000000000E+00 0.  1.
          5    1    4    4  501    0  0.77524134903E+02 -0.31861943910E+02  0.21603082623E+03  0.23175842001E+03  0.41800000000E+01 0. -1.
         -5    1    4    4    0  501 -0.18762338346E+02  0.36503298188E+02  0.31966667966E+02  0.52190577499E+02  0.41800000000E+01 0. -1.
</event>
<event>
11    1  0.8039394E-009  0.1378942E+03  0.7561462E-02  0.1109933E+00
         22   -1    0    0    0    0  0.00000000000E+00  0.00000000000E+00  0.73117836284E+03  0.73117836284E+03  0.00000000000E+00 0.  1.
         22   -1    0    0    0    0 -0.00000000000E+00 -0.00000000000E+00 -0.41878677609E+03  0.41878677609E+03  0.00000000000E+00 0. -1.
         24    2    1    2    0    0 -0.65891115457E+01 -0.58034220817E+02 -0.39486834431E+03  0.40682154636E+03  0.78558093590E+02 0.  0.
         25    2    1    2    0    0 -0.27239007157E+01  0.38850010848E+02  0.29686330609E+03  0.32448753895E+03  0.12509035714E+03 0.  0.
        -24    2    1    2    0    0  0.93130122614E+01  0.19184209968E+02  0.41039662497E+03  0.41865605363E+03  0.79954583012E+02 0.  0.
        -13    1    3    3    0    0  0.16047324044E+02  0.74510626624E+01 -0.25662188860E+02  0.31170224267E+02  0.00000000000E+00 0.  1.
         14    1    3    3    0    0 -0.22636435590E+02 -0.65485283479E+02 -0.36920615545E+03  0.37565132209E+03  0.00000000000E+00 0. -1.
         13    1    5    5    0    0  0.29900561505E+02  0.15742882343E+02  0.71138193308E+02  0.78756107508E+02  0.00000000000E+00 0. -1.
        -14    1    5    5    0    0 -0.20587549243E+02  0.34413276258E+01  0.33925843166E+03  0.33989994612E+03  0.00000000000E+00 0.  1.
          5    1    4    4  501    0  0.56745183154E+02  0.50419280086E+01  0.90288697591E+02  0.10684080757E+03  0.41800000000E+01 0.  1.
         -5    1    4    4    0  501 -0.59469083870E+02  0.33808082840E+02  0.20657460850E+03  0.21764673138E+03  0.41800000000E+01 0.  1.
</event>
<event>
11    1  0.8039394E-009  0.1618816E+03  0.7561462E-02  0.1085321E+00
         22   -1    0    0    0    0  0.00000000000E+00  0.00000000000E+00  0.15045432809E+04  0.15045432809E+04  0.00000000000E+00 0.  1.
         22   -1    0    0    0    0 -0.00000000000E+00 -0.00000000000E+00 -0.19933776497E+04  0.19933776497E+04  0.00000000000E+00 0. -1.
        -24    2    1    2    0    0  0.28697494417E+02 -0.21655657705E+02 -0.18434391764E+04  0.18457103509E+04  0.84179501103E+02 0.  0.
         25    2    1    2    0    0 -0.65366365545E+02 -0.74537464853E+02 -0.10223630697E+03  0.18954842985E+03  0.12509096444E+03 0.  0.
         24    2    1    2    0    0  0.36668871128E+02  0.96193122558E+02  0.14568411146E+04  0.14626621499E+04  0.79980050996E+02 0.  0.
        -13    1    5    5    0    0  0.45563568722E+02  0.92150199682E+02  0.14356651635E+04  0.14393408768E+04  0.00000000000E+00 0.  1.
         14    1    5    5    0    0 -0.88946975940E+01  0.40429228764E+01  0.21175951160E+02  0.23321273083E+02  0.00000000000E+00 0. -1.
         11    1    3    3    0    0  0.14499425090E+01 -0.14982504469E+02 -0.16659437895E+04  0.16660117909E+04  0.00000000000E+00 0. -1.
        -12    1    3    3    0    0  0.27247551908E+02 -0.66731532364E+01 -0.17749538695E+03  0.17969855995E+03  0.00000000000E+00 0.  1.
          5    1    4    4  501    0 -0.92982388837E+02 -0.22604874393E+02 -0.39956524742E+02  0.10378198904E+03  0.41800000000E+01 0.  1.
         -5    1    4    4    0  501  0.27616023292E+02 -0.51932590460E+02 -0.62279782226E+02  0.85766440806E+02  0.41800000000E+01 0.  1.
</event>
<event>
11    1  0.8039394E-009  0.1730987E+03  0.7561462E-02  0.1075366E+00
         22   -1    0    0    0    0  0.00000000000E+00  0.00000000000E+00  0.13904777159E+03  0.13904777159E+03  0.00000000000E+00 0. -1.
         22   -1    0    0    0    0 -0.00000000000E+00 -0.00000000000E+00 -0.17510692791E+04  0.17510692791E+04  0.00000000000E+00 0. -1.
         24    2    1    2    0    0  0.10732461638E+03  0.60977381161E+02 -0.15590866242E+04  0.15658502368E+04  0.76805258967E+02 0.  0.
         25    2    1    2    0    0 -0.53027648500E+02 -0.68532210346E+02 -0.13008202779E+03  0.20019332996E+03  0.12508972799E+03 0.  0.
        -24    2    1    2    0    0 -0.54296967876E+02  0.75548291848E+01  0.77147144503E+02  0.12407348398E+03  0.80232857089E+02 0.  0.
        -13    1    3    3    0    0  0.14597469038E+02  0.48176453713E+02 -0.44504559563E+03  0.44788351051E+03  0.00000000000E+00 0.  1.
         14    1    3    3    0    0  0.92727147337E+02  0.12800927448E+02 -0.11140410286E+04  0.11179667263E+04  0.00000000000E+00 0. -1.
         11    1    5    5    0    0 -0.39655898351E+02  0.37361588668E+02  0.72273425325E+02  0.90509262455E+02  0.00000000000E+00 0. -1.
        -12    1    5    5    0    0 -0.14641069525E+02 -0.29806759484E+02  0.48737191776E+01  0.33564221522E+02  0.00000000000E+00 0.  1.
          5    1    4    4  501    0  0.27359171091E+02  0.11452475034E+02 -0.59341735694E+02  0.66472531337E+02  0.41800000000E+01 0.  1.
         -5    1    4    4    0  501 -0.80386819591E+02 -0.79984685380E+02 -0.70740292094E+02  0.13372079862E+03  0.41800000000E+01 0.  1.
</event>
<event>
11    1  0.8039394E-009  0.1333453E+03  0.7561462E-02  0.1115226E+00
         22   -1    0    0    0    0  0.00000000000E+00  0.00000000000E+00  0.56930010478E+03  0.56930010478E+03  0.00000000000E+00 0. -1.
         22   -1    0    0    0    0 -0.00000000000E+00 -0.00000000000E+00 -0.50177365494E+03  0.50177365494E+03  0.00000000000E+00 0. -1.
         24    2    1    2    0    0 -0.76258420524E+01  0.45629084781E+02 -0.38289279988E+03  0.39278429041E+03  0.74380345209E+02 0.  0.
         25    2    1    2    0    0  0.44074788893E+02 -0.72075193520E+02 -0.58182630829E+02  0.16177124648E+03  0.12508915668E+03 0.  0.
        -24    2    1    2    0    0 -0.36448946840E+02  0.26446108739E+02  0.50860188055E+03  0.51651822283E+03  0.78021017867E+02 0.  0.
        -13    1    3    3    0    0 -0.35604869557E+02  0.46491795706E+02 -0.22915946244E+03  0.23652326108E+03  0.00000000000E+00 0.  1.
         14    1    3    3    0    0  0.27979027505E+02 -0.86271092540E+00 -0.15373333743E+03  0.15626102934E+03  0.00000000000E+00 0. -1.
         13    1    5    5    0    0 -0.58572439014E+01 -0.27033025581E+02  0.19140291073E+03  0.19339122528E+03  0.00000000000E+00 0. -1.
        -14    1    5    5    0    0 -0.30591702939E+02  0.53479134320E+02  0.31719896982E+03  0.32312699755E+03  0.00000000000E+00 0.  1.
          5    1    4    4  501    0  0.81639372907E+02 -0.75016362333E+02 -0.54699008962E+02  0.12370083188E+03  0.41800000000E+01 0.  1.
         -5    1    4    4    0  501 -0.37564584014E+02  0.29411688130E+01 -0.34836218675E+01  0.38070414596E+02  0.41800000000E+01 0.  1.
</event>
<event>
11    1  0.8039394E-009  0.1769985E+03  0.7561462E-02  0.1072097E+00
         22   -1    0    0    0    0  0.00000000000E+00  0.00000000000E+00  0.42317754536E+03  0.42317754536E+03  0.00000000000E+00 0. -1.
         22   -1    0    0    0    0 -0.00000000000E+00 -0.00000000000E+00 -0.16439552510E+04  0.16439552510E+04  0.00000000000E+00 0.  1.
         24    2    1    2    0    0 -0.67240590907E+02 -0.10277977142E+03 -0.13294461409E+04  0.13374486301E+04  0.79100052390E+02 0.  0.
         25    2    1    2    0    0  0.11132935490E+03  0.98046864771E+02 -0.27373117597E+03  0.33553789889E+03  0.12509800934E+03 0.  0.
        -24    2    1    2    0    0 -0.44088763996E+02  0.47329066442E+01  0.38239961117E+03  0.39414626736E+03  0.84590767438E+02 0.  0.
        -11    1    3    3    0    0 -0.75668101993E+02 -0.89082148658E+02 -0.88165543078E+03  0.88936920876E+03  0.00000000000E+00 0.  1.
         12    1    3    3    0    0  0.84275110860E+01 -0.13697622757E+02 -0.44779071010E+03  0.44807942138E+03  0.00000000000E+00 0. -1.
         11    1    5    5    0    0 -0.97681073328E+01 -0.21925187702E+02  0.30027011408E+03  0.30122793892E+03  0.00000000000E+00 0. -1.
        -12    1    5    5    0    0 -0.34320656663E+02  0.26658094346E+02  0.82129497090E+02  0.92918328441E+02  0.00000000000E+00 0.  1.
          5    1    4    4  501    0  0.79594420963E+02 -0.16154789149E+01 -0.68308684675E+02  0.10498300064E+03  0.41800000000E+01 0.  1.
         -5    1    4    4    0  501  0.31734933941E+02  0.99662343686E+02 -0.20542249129E+03  0.23055489826E+03  0.41800000000E+01 0.  1.
</event>
<event>
11    1  0.8039394E-009  0.1307517E+03  0.7561462E-02  0.1118349E+00
         22   -1    0    0    0    0  0.00000000000E+00  0.00000000000E+00  0.24984461713E+03  0.24984461713E+03  0.00000000000E+00 0. -1.
         22   -1    0    0    0    0 -0.00000000000E+00 -0.00000000000E+00 -0.19510061700E+04  0.19510061700E+04  0.00000000000E+00 0. -1.
         24    2    1    2    0    0  0.11059279539E+02  0.43430458611E+01 -0.18129400663E+04  0.18147324642E+04  0.79756272276E+02 0.  0.
         25    2    1    2    0    0 -0.72748330150E+01  0.33899406268E+02 -0.94348929369E+02  0.16047389974E+03  0.12509220233E+03 0.  0.
        -24    2    1    2    0    0 -0.37844465244E+01 -0.38242452129E+02  0.20612744285E+03  0.22564442313E+03  0.83367114709E+02 0.  0.
        -13    1    3    3    0    0  0.17630768302E+01  0.29224177032E+02 -0.27337024177E+03  0.27493353752E+03  0.00000000000E+00 0.  1.
         14    1    3    3    0    0  0.92962027092E+01 -0.24881131171E+02 -0.15395698245E+04  0.15397989267E+04  0.00000000000E+00 0. -1.
         11    1    5    5    0    0 -0.37154164057E+02 -0.14769059792E+02  0.15584580090E+03  0.16089273039E+03  0.00000000000E+00 0. -1.
        -12    1    5    5    0    0  0.33369717533E+02 -0.23473392336E+02  0.50281641949E+02  0.64751692743E+02  0.00000000000E+00 0.  1.
          5    1    4    4  501    0 -0.12744993366E+02 -0.18059995016E+02  0.22864292077E+02  0.32075637609E+02  0.41800000000E+01 0.  1.
         -5    1    4    4    0  501  0.54701603510E+01  0.51959401283E+02 -0.11721322145E+03  0.12839826213E+03  0.41800000000E+01 0.  1.
</event>
<event>
11    1  0.8039394E-009  0.2996015E+03  0.7561462E-02  0.1000360E+00
         22   -1    0    0    0    0  0.00000000000E+00  0.00000000000E+00  0.57241481913E+03  0.57241481913E+03  0.00000000000E+00 0.  1.
         22   -1    0    0    0    0 -0.00000000000E+00 -0.00000000000E+00 -0.97607137441E+03  0.97607137441E+03  0.00000000000E+00 0.  1.
        -24    2    1    2    0    0  0.28767011778E+02 -0.43004438219E+02 -0.50659783593E+03  0.51567570156E+03  0.81259701797E+02 0.  0.
         25    2    1    2    0    0 -0.63517300179E+02  0.30905685413E+03 -0.35797438656E+03  0.49329865419E+03  0.12508922530E+03 0.  0.
         24    2    1    2    0    0  0.34750288401E+02 -0.26605241591E+03  0.46091566723E+03  0.53951183778E+03  0.81475764867E+02 0.  0.
        -11    1    5    5    0    0  0.26656012283E+01 -0.18311129153E+03  0.24403473520E+03  0.30510621511E+03  0.00000000000E+00 0.  1.
         12    1    5    5    0    0  0.32084687173E+02 -0.82941124380E+02  0.21688093203E+03  0.23440562268E+03  0.00000000000E+00 0. -1.
         13    1    3    3    0    0 -0.19746239871E+02 -0.43058917298E+02 -0.22544297341E+03  0.23036605350E+03  0.00000000000E+00 0. -1.
        -14    1    3    3    0    0  0.48513251649E+02  0.54479078826E-01 -0.28115486253E+03  0.28530964806E+03  0.00000000000E+00 0.  1.
          5    1    4    4  501    0  0.34708454916E+02  0.41523149349E+02 -0.61767594939E+02  0.82228686959E+02  0.41800000000E+01 0. -1.
         -5    1    4    4    0  501 -0.98225755095E+02  0.26753370478E+03 -0.29620679163E+03  0.41106996723E+03  0.41800000000E+01 0. -1.
</event>
<event>
11    1  0.8039394E-009  0.2007618E+03  0.7561462E-02  0.1053986E+00
         22   -1    0    0    0    0  0.00000000000E+00  0.00000000000E+00  0.46344618316E+03  0.46344618316E+03  0.00000000000E+00 0. -1.
         22   -1    0    0    0    0 -0.00000000000E+00 -0.00000000000E+00 -0.20967176793E+04  0.20967176793E+04  0.00000000000E+00 0.  1.
         24    2    1    2    0    0  0.96453243681E+02 -0.12516678839E+03 -0.13539771553E+04  0.13655781589E+04  0.81114843506E+02 0.  0.
         25    2    1    2    0    0 -0.11205384994E+03  0.10834131484E+03 -0.71944831436E+03  0.74669090998E+03  0.12509009643E+03 0.  0.
        -24    2    1    2    0    0  0.15600606256E+02  0.16825473549E+02  0.44015397353E+03  0.44789479358E+03  0.79672769670E+02 0.  0.
        -13    1    3    3    0    0  0.83074182127E+02 -0.12609108878E+03 -0.99893793952E+03  0.10102857464E+04  0.00000000000E+00 0.  1.
         14    1    3    3    0    0  0.13379061554E+02  0.92430038897E+00 -0.35503921578E+03  0.35529241247E+03  0.00000000000E+00 0. -1.
         11    1    5    5    0    0  0.48392671627E+02  0.98863861052E+01  0.26299095289E+03  0.26758892465E+03  0.00000000000E+00 0. -1.
        -12    1    5    5    0    0 -0.32792065371E+02  0.69390874443E+01  0.17716302064E+03  0.18030586892E+03  0.00000000000E+00 0.  1.
          5    1    4    4  501    0 -0.12522222115E+03  0.46490058052E+02 -0.54309944037E+03  0.55929992374E+03  0.41800000000E+01 0. -1.
         -5    1    4    4    0  501  0.13168371209E+02  0.61851256786E+02 -0.17634887399E+03  0.18739098624E+03  0.41800000000E+01 0. -1.
</event>
<event>
11    1  0.8039394E-009  0.1781009E+03  0.7561462E-02  0.1071189E+00
         22   -1    0    0    0    0  0.00000000000E+00  0.00000000000E+00  0.39056006897E+03  0.39056006897E+03  0.00000000000E+00 0.  1.
         22   -1    0    0    0    0 -0.00000000000E+00 -0.00000000000E+00 -0.19469533221E+04  0.19469533221E+04  0.00000000000E+00 0.  1.
         24    2    1    2    0    0  0.12198760812E+03  0.31131412968E+02 -0.16891902263E+04  0.16957425698E+04  0.79555647492E+02 0.  0.
         25    2    1    2    0    0 -0.14843516640E+03  0.31957846638E+02 -0.20732516573E+03  0.28580675593E+03  0.12508986691E+03 0.  0.
        -24    2    1    2    0    0  0.26447558271E+02 -0.63089259606E+02  0.34012213895E+03  0.35596406528E+03  0.79671942071E+02 0.  0.
        -13    1    3    3    0    0  0.48522247854E+02  0.53354219005E+02 -0.84146018915E+03  0.84454504388E+03  0.00000000000E+00 0.  1.
         14    1    3    3    0    0  0.73465360271E+02 -0.22222806037E+02 -0.84773003716E+03  0.85119752595E+03  0.00000000000E+00 0. -1.
         13    1    5    5    0    0  0.21057125154E+02 -0.80588100978E+02  0.23655950606E+03  0.25079522413E+03  0.00000000000E+00 0. -1.
        -14    1    5    5    0    0  0.53904331172E+01  0.17498841372E+02  0.10356263289E+03  0.10516884116E+03  0.00000000000E+00 0.  1.
          5    1    4    4  501    0 -0.13299447291E+03  0.70949116902E+02 -0.13654264054E+03  0.20342731405E+03  0.41800000000E+01 0.  1.
         -5    1    4    4    0  501 -0.15440693483E+02 -0.38991270264E+02 -0.70782525192E+02  0.82379441880E+02  0.41800000000E+01 0.  1.
</event>
<event>
11    1  0.8039394E-009  0.1390603E+03  0.7561462E-02  0.1108612E+00
         22   -1    0    0    0    0  0.00000000000E+00  0.00000000000E+00  0.97683356337E+02  0.97683356337E+02  0.00000000000E+00 0.  1.
         22   -1    0    0    0    0 -0.00000000000E+00 -0.00000000000E+00 -0.67970504618E+03  0.67970504618E+03  0.00000000000E+00 0. -1.
        -24    2    1    2    0    0  0.29208004180E+02 -0.36653141345E+02 -0.46053541311E+03  0.46929320040E+03  0.77114725787E+02 0.  0.
         25    2    1    2    0    0 -0.61283310193E+02  0.77922957049E+02 -0.13972108003E+03  0.21212475022E+03  0.12508916064E+03 0.  0.
         24    2    1    2    0    0  0.32075306013E+02 -0.41269815704E+02  0.18234803302E+02  0.95970451888E+02  0.78395131481E+02 0.  0.
        -13    1    5    5    0    0  0.26121845485E+02 -0.49033700987E+02  0.42407317997E+02  0.69893027290E+02  0.00000000000E+00 0.  1.
         14    1    5    5    0    0  0.59534605282E+01  0.77638852832E+01 -0.24172514695E+02  0.26077424597E+02  0.00000000000E+00 0. -1.
         11    1    3    3    0    0  0.39869403620E+02 -0.55610223532E+02 -0.34167318214E+03  0.34845750057E+03  0.00000000000E+00 0. -1.
        -12    1    3    3    0    0 -0.10661399440E+02  0.18957082188E+02 -0.11886223097E+03  0.12083569983E+03  0.00000000000E+00 0.  1.
          5    1    4    4  501    0 -0.16751832549E+02  0.63672971049E+02 -0.15017974415E+03  0.16403139666E+03  0.41800000000E+01 0. -1.
         -5    1    4    4    0  501 -0.44531477644E+02  0.14249986000E+02  0.10458664122E+02  0.48093353568E+02  0.41800000000E+01 0. -1.
</event>
<event>
11    1  0.8039394E-009  0.1365936E+03  0.7561462E-02  0.1111423E+00
         22   -1    0    0    0    0  0.00000000000E+00  0.00000000000E+00  0.19996226318E+03  0.19996226318E+03  0.00000000000E+00 0. -1.
         22   -1    0    0    0    0 -0.00000000000E+00 -0.00000000000E+00 -0.79674741458E+03  0.79674741458E+03  0.00000000000E+00 0. -1.
         24    2    1    2    0    0 -0.14037569305E+02  0.40928078512E+02 -0.39370323214E+03  0.40406178540E+03  0.79947047844E+02 0.  0.
         25    2    1    2    0    0 -0.26785172877E+02 -0.76617782814E+02 -0.36851225972E+03  0.39753962779E+03  0.12509492381E+03 0.  0.
        -24    2    1    2    0    0  0.40822742182E+02  0.35689704303E+02  0.16543034046E+03  0.19510826458E+03  0.88089648018E+02 0.  0.
        -11    1    3    3    0    0 -0.14533313049E+02  0.65015836035E+02 -0.27716246409E+03  0.28505667441E+03  0.00000000000E+00 0.  1.
         12    1    3    3    0    0  0.49574374397E+00 -0.24087757523E+02 -0.11654076805E+03  0.11900511099E+03  0.00000000000E+00 0. -1.
         13    1    5    5    0    0  0.42198108473E+02  0.56053299192E+02  0.15886473325E+03  0.17366823595E+03  0.00000000000E+00 0. -1.
        -14    1    5    5    0    0 -0.13753662910E+01 -0.20363594889E+02  0.65656072133E+01  0.21440028623E+02  0.00000000000E+00 0.  1.
          5    1    4    4  501    0 -0.45001363875E+00 -0.10784140757E+03 -0.27437460186E+03  0.29483701641E+03  0.41800000000E+01 0. -1.
         -5    1    4    4    0  501 -0.26335159238E+02  0.31223624760E+02 -0.94137657868E+02  0.10270261138E+03  0.41800000000E+01 0. -1.
</event>
<event>
11    1  0.8039394E-009  0.1407903E+03  0.7561462E-02  0.1106679E+00
         22   -1    0    0    0    0  0.00000000000E+00  0.00000000000E+00  0.15532107617E+04  0.15532107617E+04  0.00000000000E+00 0. -1.
         22   -1    0    0    0    0 -0.00000000000E+00 -0.00000000000E+00 -0.34480217139E+02  0.34480217139E+02  0.00000000000E+00 0. -1.
        -24    2    1    2    0    0  0.61387911392E+02 -0.31641317827E+02  0.94962148440E+02  0.14276701845E+03  0.81209379146E+02 0.  0.
         25    2    1    2    0    0 -0.17213300009E+02  0.54500991732E+02  0.58448909105E+03  0.60045141180E+03  0.12509094523E+03 0.  0.
         24    2    1    2    0    0 -0.44174611384E+02 -0.22859673905E+02  0.83927930510E+03  0.84447254862E+03  0.79184420339E+02 0.  0.
        -11    1    5    5    0    0 -0.46983784751E+02  0.18789302981E+02  0.39275323572E+03  0.39599951781E+03  0.00000000000E+00 0.  1.
         12    1    5    5    0    0  0.28091733674E+01 -0.41648976886E+02  0.44652606938E+03  0.44847303082E+03  0.00000000000E+00 0. -1.
         11    1    3    3    0    0  0.26104305768E+02 -0.41252074325E+02  0.93956139776E+01  0.49713639755E+02  0.00000000000E+00 0. -1.
        -12    1    3    3    0    0  0.35283605624E+02  0.96107564973E+01  0.85566534462E+02  0.93053378693E+02  0.00000000000E+00 0.  1.
          5    1    4    4  501    0  0.42345490796E+02  0.80355635487E+01  0.86347738166E+02  0.96597697481E+02  0.41800000000E+01 0.  1.
         -5    1    4    4    0  501 -0.59558790804E+02  0.46465428184E+02  0.49814135289E+03  0.50385371432E+03  0.41800000000E+01 0.  1.
</event>
<event>
11    1  0.8039394E-009  0.1263173E+03  0.7561462E-02  0.1123878E+00
         22   -1    0    0    0    0  0.00000000000E+00  0.00000000000E+00  0.27097471674E+04  0.27097471674E+04  0.00000000000E+00 0.  1.
         22   -1    0    0    0    0 -0.00000000000E+00 -0.00000000000E+00 -0.17433342258E+03  0.17433342258E+03  0.00000000000E+00 0. -1.
         24    2    1    2    0    0  0.21879982871E+01 -0.17899223607E+02 -0.15288594831E+03  0.17374887818E+03  0.80556749781E+02 0.  0.
         25    2    1    2    0    0  0.12279933221E+02  0.10964457234E+01  0.36882071040E+03  0.38965248287E+03  0.12509333329E+03 0.  0.
        -24    2    1    2    0    0 -0.14467931508E+02  0.16802777883E+02  0.23194789828E+04  0.23206792290E+04  0.71257826753E+02 0.  0.
        -11    1    3    3    0    0 -0.14717838711E+02  0.13868413319E+02 -0.40496090094E+01  0.20623942335E+02  0.00000000000E+00 0.  1.
         12    1    3    3    0    0  0.16905836998E+02 -0.31767636925E+02 -0.14883633930E+03  0.15312493585E+03  0.00000000000E+00 0. -1.
         11    1    5    5    0    0 -0.41738861628E+01 -0.53157485395E+01  0.20794051244E+02  0.21864836505E+02  0.00000000000E+00 0. -1.
        -12    1    5    5    0    0 -0.10294045345E+02  0.22118526423E+02  0.22986849315E+04  0.22988143925E+04  0.00000000000E+00 0.  1.
          5    1    4    4  501    0  0.36178124094E+02 -0.16525342833E+02  0.31253851827E+02  0.50756470255E+02  0.41800000000E+01 0.  1.
         -5    1    4    4    0  501 -0.23898190873E+02  0.17621788556E+02  0.33756685857E+03  0.33889601261E+03  0.41800000000E+01 0.  1.
</event>
<event>
11    1  0.8039394E-009  0.1829227E+03  0.7561462E-02  0.1067303E+00
         22   -1    0    0    0    0  0.00000000000E+00  0.00000000000E+00  0.82442402501E+03  0.82442402501E+03  0.00000000000E+00 0.  1.
         22   -1    0    0    0    0 -0.00000000000E+00 -0.00000000000E+00 -0.24743234566E+03  0.24743234566E+03  0.00000000000E+00 0. -1.
        -24    2    1    2    0    0 -0.35925557040E+02  0.12693927757E+03 -0.15780662067E+03  0.22085533964E+03  0.80435848239E+02 0.  0.
         25    2    1    2    0    0  0.49733186033E+02 -0.13271099222E+03  0.10579534490E+03  0.21662592782E+03  0.12509412598E+03 0.  0.
         24    2    1    2    0    0 -0.13807628993E+02  0.57717146460E+01  0.62900295511E+03  0.63437510320E+03  0.81012904649E+02 0.  0.
        -11    1    5    5    0    0 -0.11061644606E+02 -0.34974290106E+02  0.40680022632E+03  0.40845071316E+03  0.00000000000E+00 0.  1.
         12    1    5    5    0    0 -0.27459843869E+01  0.40746004752E+02  0.22220272879E+03  0.22592439004E+03  0.00000000000E+00 0. -1.
         11    1    3    3    0    0 -0.35921445049E+02  0.83264717427E+02 -0.15172515986E+03  0.17675940574E+03  0.00000000000E+00 0. -1.
        -12    1    3    3    0    0 -0.41119911945E-02  0.43674560146E+02 -0.60814608028E+01  0.44095933898E+02  0.00000000000E+00 0.  1.
          5    1    4    4  501    0  0.71410701993E+02 -0.76645308210E+02  0.11506157949E+03  0.15566191282E+03  0.41800000000E+01 0. -1.
         -5    1    4    4    0  501 -0.21677515960E+02 -0.56065684008E+02 -0.92662345848E+01  0.60964015000E+02  0.41800000000E+01 0. -1.
</event>
<event>
11    1  0.8039394E-009  0.2065589E+03  0.7561462E-02  0.1049980E+00
         22   -1    0    0    0    0  0.00000000000E+00  0.00000000000E+00  0.55912845341E+03  0.55912845341E+03  0.00000000000E+00 0. -1.
         22   -1    0    0    0    0 -0.00000000000E+00 -0.00000000000E+00 -0.37149537982E+03  0.37149537982E+03  0.00000000000E+00 0.  1.
         24    2    1    2    0    0 -0.17137417230E+03 -0.34468037100E+02 -0.23151215501E+03  0.30180858762E+03  0.83266999063E+02 0.  0.
         25    2    1    2    0    0  0.12301284713E+03  0.73993489258E+02 -0.71221458534E+01  0.19054022140E+03  0.12509058318E+03 0.  0.
        -24    2    1    2    0    0  0.48361325170E+02 -0.39525452158E+02  0.42626737444E+03  0.43827502421E+03  0.80498715444E+02 0.  0.
        -13    1    3    3    0    0 -0.11010216889E+03 -0.60747899688E+02 -0.16686893785E+03  0.20894505816E+03  0.00000000000E+00 0.  1.
         14    1    3    3    0    0 -0.61272003406E+02  0.26279862588E+02 -0.64643217162E+02  0.92863529462E+02  0.00000000000E+00 0. -1.
         11    1    5    5    0    0  0.20343250934E+01 -0.50807890356E+01  0.29288125653E+03  0.29293238695E+03  0.00000000000E+00 0. -1.
        -12    1    5    5    0    0  0.46327000077E+02 -0.34444663123E+02  0.13338611792E+03  0.14534263726E+03  0.00000000000E+00 0.  1.
          5    1    4    4  501    0 -0.25304125705E+02  0.55464197245E+01  0.49096338398E+01  0.26695288983E+02  0.41800000000E+01 0.  1.
         -5    1    4    4    0  501  0.14831697283E+03  0.68447069534E+02 -0.12031779693E+02  0.16384493242E+03  0.41800000000E+01 0.  1.
</event>
<event>
11    1  0.8039394E-009  0.1276922E+03  0.7561462E-02  0.1122137E+00
         22   -1    0    0    0    0  0.00000000000E+00  0.00000000000E+00  0.26319585918E+03  0.26319585918E+03  0.00000000000E+00 0. -1.
         22   -1    0    0    0    0 -0.00000000000E+00 -0.00000000000E+00 -0.67263200926E+03  0.67263200926E+03  0.00000000000E+00 0.  1.
         24    2    1    2    0    0 -0.21028434910E+02 -0.65035456790E+01 -0.58878329052E+03  0.59390281210E+03  0.74634414631E+02 0.  0.
         25    2    1    2    0    0  0.10216663135E+02  0.30013168790E+02 -0.15203330574E+02  0.12993235427E+03  0.12508439119E+03 0.  0.
        -24    2    1    2    0    0  0.10811771774E+02 -0.23509623111E+02  0.19455047102E+03  0.21199270206E+03  0.80133782938E+02 0.  0.
        -11    1    3    3    0    0  0.13575621517E+02 -0.30262478476E+02 -0.33882782553E+03  0.34044736811E+03  0.00000000000E+00 0.  1.
         12    1    3    3    0    0 -0.34604056427E+02  0.23758932797E+02 -0.24995546499E+03  0.25345544399E+03  0.00000000000E+00 0. -1.
         13    1    5    5    0    0 -0.15183162296E+02  0.54813192831E+01  0.15723271696E+03  0.15805916791E+03  0.00000000000E+00 0. -1.
        -14    1    5    5    0    0  0.25994934071E+02 -0.28990942394E+02  0.37317754054E+02  0.53933534149E+02  0.00000000000E+00 0.  1.
          5    1    4    4  501    0 -0.55252588978E+01 -0.48422515881E+02 -0.67338261799E+01  0.49376971810E+02  0.41800000000E+01 0. -1.
         -5    1    4    4    0  501  0.15741922033E+02  0.78435684671E+02 -0.84695043941E+01  0.80555382463E+02  0.41800000000E+01 0. -1.
</event>
<event>
11    1  0.8039394E-009  0.1602293E+03  0.7561462E-02  0.1086862E+00
         22   -1    0    0    0    0  0.00000000000E+00  0.00000000000E+00  0.13861422317E+04  0.13861422317E+04  0.00000000000E+00 0. -1.
         22   -1    0    0    0    0 -0.00000000000E+00 -0.00000000000E+00 -0.86621240379E+02  0.86621240379E+02  0.00000000000E+00 0. -1.
        -24    2    1    2    0    0 -0.22650036995E+02 -0.84146016304E+02  0.27751971707E+02  0.12184182655E+03  0.80508897193E+02 0.  0.
         25    2    1    2    0    0 -0.16143581249E+02  0.15299750689E+03  0.23264718246E+03  0.30568038658E+03  0.12508770884E+03 0.  0.
         24    2    1    2    0    0  0.38793618244E+02 -0.68851490584E+02  0.10391218371E+04  0.10452412589E+04  0.80682243336E+02 0.  0.
        -11    1    5    5    0    0 -0.24221065252E+02 -0.22002968917E+02  0.39445993835E+03  0.39581489816E+03  0.00000000000E+00 0.  1.
         12    1    5    5    0    0  0.63014683496E+02 -0.46848521667E+02  0.64466189879E+03  0.64942636078E+03  0.00000000000E+00 0. -1.
         11    1    3    3    0    0 -0.49236455443E+02 -0.29999411524E+02  0.19990088448E+02  0.61022920879E+02  0.00000000000E+00 0. -1.
        -12    1    3    3    0    0  0.26586418449E+02 -0.54146604780E+02  0.77618832590E+01  0.60818905669E+02  0.00000000000E+00 0.  1.
          5    1    4    4  501    0  0.18659437495E+02  0.33890260033E+01  0.10246237307E+03  0.10428648235E+03  0.41800000000E+01 0. -1.
         -5    1    4    4    0  501 -0.34803018744E+02  0.14960848088E+03  0.13018480939E+03  0.20139390423E+03  0.41800000000E+01 0. -1.
</event>
<event>
11    1  0.8039394E-009  0.1933822E+03  0.7561462E-02  0.1059305E+00
         22   -1    0    0    0    0  0.00000000000E+00  0.00000000000E+00  0.16058561308E+04  0.16058561308E+04  0.00000000000E+00 0. -1.
         22   -1    0    0    0    0 -0.00000000000E+00 -0.00000000000E+00 -0.14399206047E+03  0.14399206047E+03  0.00000000000E+00 0.  1.
         24    2    1    2    0    0  0.10272353388E+03  0.98774936301E+02 -0.55950750712E+02  0.17290659304E+03  0.80359137370E+02 0.  0.
         25    2    1    2    0    0 -0.17055443838E+03 -0.95149447786E+02  0.47148883887E+03  0.52544567752E+03  0.12509676647E+03 0.  0.
        -24    2    1    2    0    0  0.67830904500E+02 -0.36254885154E+01  0.10463259822E+04  0.10514959207E+04  0.78939435657E+02 0.  0.
        -13    1    3    3    0    0  0.17385436347E+02  0.66120066002E+02 -0.42626867799E+02  0.80567775093E+02  0.00000000000E+00 0.  1.
         14    1    3    3    0    0  0.85338097533E+02  0.32654870299E+02 -0.13323882914E+02  0.92338817952E+02  0.00000000000E+00 0. -1.
         13    1    5    5    0    0 -0.13809519233E+02 -0.85133857766E+01  0.35130254181E+03  0.35167692054E+03  0.00000000000E+00 0. -1.
        -14    1    5    5    0    0  0.81640423734E+02  0.48878972612E+01  0.69502344036E+03  0.69981900016E+03  0.00000000000E+00 0.  1.
          5    1    4    4  501    0  0.28579389692E+00  0.23479693888E+02  0.51843905890E+02  0.57066984160E+02  0.41800000000E+01 0. -1.
         -5    1    4    4    0  501 -0.17084023228E+03 -0.11862914167E+03  0.41964493298E+03  0.46837869336E+03  0.41800000000E+01 0. -1.
</event>
<event>
11    1  0.8039394E-009  0.1442084E+03  0.7561462E-02  0.1102948E+00
         22   -1    0    0    0    0  0.00000000000E+00  0.00000000000E+00  0.68844121672E+03  0.68844121672E+03  0.00000000000E+00 0. -1.
         22   -1    0    0    0    0 -0.00000000000E+00 -0.00000000000E+00 -0.13593434263E+03  0.13593434263E+03  0.00000000000E+00 0. -1.
         24    2    1    2    0    0  0.57926343775E+02 -0.35274867684E+01 -0.80642404177E+02  0.12718683383E+03  0.79406478837E+02 0.  0.
         25    2    1    2    0    0 -0.11757693770E+03  0.32942134425E+01  0.26567233715E+03  0.31632869578E+03  0.12508742911E+03 0.  0.
        -24    2    1    2    0    0  0.59650593929E+02  0.23327332594E+00  0.36747694111E+03  0.38086002974E+03  0.80354291926E+02 0.  0.
        -13    1    3    3    0    0 -0.17741602838E+02 -0.12288664651E+02 -0.23898976844E+02  0.32201503759E+02  0.00000000000E+00 0.  1.
         14    1    3    3    0    0  0.75667946613E+02  0.87611778824E+01 -0.56743427333E+02  0.94985330067E+02  0.00000000000E+00 0. -1.
         13    1    5    5    0    0  0.45433133786E+02  0.14533710476E+02  0.35257200613E+03  0.35578422941E+03  0.00000000000E+00 0. -1.
        -14    1    5    5    0    0  0.14217460143E+02 -0.14300437150E+02  0.14904934981E+02  0.25075800335E+02  0.00000000000E+00 0.  1.
          5    1    4    4  501    0  0.22512385853E+02 -0.16078501693E+02  0.65279361367E+02  0.71022483440E+02  0.41800000000E+01 0. -1.
         -5    1    4    4    0  501 -0.14008932356E+03  0.19372715135E+02  0.20039297579E+03  0.24530621234E+03  0.41800000000E+01 0. -1.
</event>
<event>
11    1  0.8039394E-009  0.1339047E+03  0.7561462E-02  0.1114562E+00
         22   -1    0    0    0    0  0.00000000000E+00  0.00000000000E+00  0.28983153416E+03  0.28983153416E+03  0.00000000000E+00 0.  1.
         22   -1    0    0    0    0 -0.00000000000E+00 -0.00000000000E+00 -0.25431868821E+04  0.25431868821E+04  0.00000000000E+00 0. -1.
         24    2    1    2    0    0  0.11880382790E+02  0.46824576738E+02 -0.24399409274E+04  0.24417609055E+04  0.80937668236E+02 0.  0.
         25    2    1    2    0    0  0.15072755345E+02 -0.29595387611E+02 -0.50351457494E+02  0.13885294039E+03  0.12506716141E+03 0.  0.
        -24    2    1    2    0    0 -0.26953138135E+02 -0.17229189127E+02  0.23693703694E+03  0.25240457033E+03  0.80904827025E+02 0.  0.
        -13    1    3    3    0    0 -0.50369616189E+01  0.11380703741E+02 -0.50979534704E+02  0.52476703009E+02  0.00000000000E+00 0.  1.
         14    1    3    3    0    0  0.16917344409E+02  0.35443872997E+02 -0.23889613927E+04  0.23892842025E+04  0.00000000000E+00 0. -1.
         13    1    5    5    0    0  0.10498182631E+02  0.95902313882E+01  0.37417470264E+01  0.14703232551E+02  0.00000000000E+00 0. -1.
        -14    1    5    5    0    0 -0.37451320766E+02 -0.26819420515E+02  0.23319528992E+03  0.23770133778E+03  0.00000000000E+00 0.  1.
          5    1    4    4  501    0 -0.15512559373E+02 -0.34310730775E+02 -0.84484476123E+02  0.92590306460E+02  0.41800000000E+01 0.  1.
         -5    1    4    4    0  501  0.30585314718E+02  0.47153431643E+01  0.34133018629E+02  0.46262633932E+02  0.41800000000E+01 0.  1.
</event>
<event>
11    1  0.8039394E-009  0.1318259E+03  0.7561462E-02  0.1117046E+00
         22   -1    0    0    0    0  0.00000000000E+00  0.00000000000E+00  0.34608740619E+03  0.34608740619E+03  0.00000000000E+00 0. -1.
         22   -1    0    0    0    0 -0.00000000000E+00 -0.00000000000E+00 -0.39211492106E+03  0.39211492106E+03  0.00000000000E+00 0.  1.
        -24    2    1    2    0    0  0.16131154721E+02 -0.41717486311E+01 -0.30387291152E+03  0.31427435220E+03  0.78434714589E+02 0.  0.
         25    2    1    2    0    0  0.16955913992E+02 -0.23370963185E+02 -0.20200394579E+02  0.12995511932E+03  0.12508625886E+03 0.  0.
         24    2    1    2    0    0 -0.33087068713E+02  0.27542711816E+02  0.27804579123E+03  0.29397285574E+03  0.85189335020E+02 0.  0.
        -11    1    5    5    0    0 -0.50393575611E+02  0.46522770822E+00  0.23449470389E+03  0.23984890046E+03  0.00000000000E+00 0.  1.
         12    1    5    5    0    0  0.17306506898E+02  0.27077484108E+02  0.43551087340E+02  0.54123955279E+02  0.00000000000E+00 0. -1.
         11    1    3    3    0    0  0.27359570923E+02 -0.34399608941E+02 -0.22141885789E+03  0.22573920760E+03  0.00000000000E+00 0. -1.
        -12    1    3    3    0    0 -0.11228416202E+02  0.30227860310E+02 -0.82454053629E+02  0.88535144599E+02  0.00000000000E+00 0.  1.
          5    1    4    4  501    0  0.27763486976E+02  0.20655675933E+02 -0.60062546777E+02  0.69443862815E+02  0.41800000000E+01 0. -1.
         -5    1    4    4    0  501 -0.10807572983E+02 -0.44026639118E+02  0.39862152198E+02  0.60511256504E+02  0.41800000000E+01 0. -1.
</event>
<event>
11    1  0.8039394E-009  0.1650911E+03  0.7561462E-02  0.1082384E+00
         22   -1    0    0    0    0  0.00000000000E+00  0.00000000000E+00  0.56947082088E+03  0.56947082088E+03  0.00000000000E+00 0.  1.
         22   -1    0    0    0    0 -0.00000000000E+00 -0.00000000000E+00 -0.36147505482E+03  0.36147505482E+03  0.00000000000E+00 0. -1.
        -24    2    1    2    0    0 -0.10331563634E+03 -0.31375281959E+02 -0.27798937003E+03  0.30879932774E+03  0.80127435602E+02 0.  0.
         25    2    1    2    0    0  0.10523513766E+03  0.18387019169E+02  0.40861141035E+02  0.16949732475E+03  0.12508874282E+03 0.  0.
         24    2    1    2    0    0 -0.19195013271E+01  0.12988262790E+02  0.44512399506E+03  0.45264922320E+03  0.81139194153E+02 0.  0.
        -11    1    5    5    0    0  0.14489648399E+02  0.18351736987E+02  0.42692469664E+03  0.42756453637E+03  0.00000000000E+00 0.  1.
         12    1    5    5    0    0 -0.16409149726E+02 -0.53634741969E+01  0.18199298418E+02  0.25084686825E+02  0.00000000000E+00 0. -1.
         11    1    3    3    0    0 -0.10718838198E+03 -0.23564166968E+02 -0.27920166305E+03  0.29999697973E+03  0.00000000000E+00 0. -1.
        -12    1    3    3    0    0  0.38727456433E+01 -0.78111149909E+01  0.12122930206E+01  0.88023480155E+01  0.00000000000E+00 0.  1.
          5    1    4    4  501    0  0.58854719842E+01  0.46593770762E+02  0.46182917960E+02  0.65999640648E+02  0.41800000000E+01 0.  1.
         -5    1    4    4    0  501  0.99349665679E+02 -0.28206751593E+02 -0.53217769253E+01  0.10349768411E+03  0.41800000000E+01 0.  1.
</event>
<event>
11    1  0.8039394E-009  0.1490518E+03  0.7561462E-02  0.1097852E+00
         22   -1    0    0    0    0  0.00000000000E+00  0.00000000000E+00  0.51404325518E+03  0.51404325518E+03  0.00000000000E+00 0.  1.
         22   -1    0    0    0    0 -0.00000000000E+00 -0.00000000000E+00 -0.72855233926E+03  0.72855233926E+03  0.00000000000E+00 0. -1.
         24    2    1    2    0    0  0.72258923543E+02  0.53040699299E+02 -0.53958951783E+03  0.55265108004E+03  0.78941121742E+02 0.  0.
         25    2    1    2    0    0 -0.60554781640E+02  0.10803770264E+02 -0.14848820658E+03  0.20366607697E+03  0.12509004911E+03 0.  0.
        -24    2    1    2    0    0 -0.11704141903E+02 -0.63844469563E+02  0.47356864033E+03  0.48627843744E+03  0.89366427598E+02 0.  0.
        -13    1    3    3    0    0  0.78965128289E+02  0.20462278868E+02 -0.30520120029E+03  0.31591449635E+03  0.00000000000E+00 0.  1.
         14    1    3    3    0    0 -0.67062047454E+01  0.32578420432E+02 -0.23438831754E+03  0.23673658369E+03  0.00000000000E+00 0. -1.
         11    1    5    5    0    0 -0.11709456531E+02 -0.62509835566E+02  0.15279437511E+03  0.16550139571E+03  0.00000000000E+00 0. -1.
        -12    1    5    5    0    0  0.53146283650E-02 -0.13346339966E+01  0.32077426522E+03  0.32077704173E+03  0.00000000000E+00 0.  1.
          5    1    4    4  501    0 -0.71337386417E+02 -0.32289667276E+02 -0.13657306833E+03  0.15748435067E+03  0.41800000000E+01 0. -1.
         -5    1    4    4    0  501  0.10782604777E+02  0.43093437539E+02 -0.11915138251E+02  0.46181726302E+02  0.41800000000E+01 0. -1.
</event>
<event>
11    1  0.8039394E-009  0.1409240E+03  0.7561462E-02  0.1106531E+00
         22   -1    0    0    0    0  0.00000000000E+00  0.00000000000E+00  0.43554860874E+02  0.43554860874E+02  0.00000000000E+00 0.  1.
         22   -1    0    0    0    0 -0.00000000000E+00 -0.00000000000E+00 -0.65637759926E+03  0.65637759926E+03  0.00000000000E+00 0. -1.
         24    2    1    2    0    0  0.11645754870E+02 -0.29775337469E+02 -0.13400972590E+03  0.15777153483E+03  0.76883393773E+02 0.  0.
         25    2    1    2    0    0  0.15731339474E+02 -0.48929097460E+02 -0.32780851228E+03  0.35460867436E+03  0.12508940639E+03 0.  0.
        -24    2    1    2    0    0 -0.27377094344E+02  0.78704434929E+02 -0.15100450020E+03  0.18755225094E+03  0.73685781385E+02 0.  0.
        -13    1    3    3    0    0  0.29942512296E+02  0.14398458698E+02 -0.37731567872E+02  0.50274654345E+02  0.00000000000E+00 0.  1.
         14    1    3    3    0    0 -0.18296757426E+02 -0.44173796167E+02 -0.96278158032E+02  0.10749688049E+03  0.00000000000E+00 0. -1.
         11    1    5    5    0    0 -0.10743673496E+02  0.42703034574E+01 -0.87627725894E+02  0.88387105152E+02  0.00000000000E+00 0. -1.
        -12    1    5    5    0    0 -0.16633420848E+02  0.74434131472E+02 -0.63376774309E+02  0.99165145786E+02  0.00000000000E+00 0.  1.
          5    1    4    4  501    0 -0.36071184047E+02 -0.55898669226E+02 -0.26262337025E+03  0.27095073084E+03  0.41800000000E+01 0.  1.
         -5    1    4    4    0  501  0.51802523522E+02  0.69695717659E+01 -0.65185142027E+02  0.83657943525E+02  0.41800000000E+01 0.  1.
</event>
<event>
11    1  0.8039394E-009  0.1413741E+03  0.7561462E-02  0.1106034E+00
         22   -1    0    0    0    0  0.00000000000E+00  0.00000000000E+00  0.18197795145E+04  0.18197795145E+04  0.00000000000E+00 0.  1.
         22   -1    0    0    0    0 -0.00000000000E+00 -0.00000000000E+00 -0.16852139429E+03  0.16852139429E+03  0.00000000000E+00 0. -1.
         24    2    1    2    0    0 -0.13358490792E+02  0.22544774847E+02 -0.12044797373E+03  0.14871907252E+03  0.83204158587E+02 0.  0.
         25    2    1    2    0    0 -0.19096154409E+02  0.36176668537E+02  0.10142800288E+03  0.16615569739E+03  0.12508661617E+03 0.  0.
        -24    2    1    2    0    0  0.32454645201E+02 -0.58721443384E+02  0.16702780911E+04  0.16734261389E+04  0.77618483154E+02 0.  0.
        -13    1    3    3    0    0 -0.55281877859E+01  0.53559866809E+02 -0.62222527334E+02  0.82285254454E+02  0.00000000000E+00 0.  1.
         14    1    3    3    0    0 -0.78303030061E+01 -0.31015091962E+02 -0.58225446400E+02  0.66433818067E+02  0.00000000000E+00 0. -1.
         11    1    5    5    0    0 -0.24763619206E+02 -0.25861844353E+02  0.49124046276E+03  0.49254366719E+03  0.00000000000E+00 0. -1.
        -12    1    5    5    0    0  0.57218264408E+02 -0.32859599031E+02  0.11790376283E+04  0.11808824717E+04  0.00000000000E+00 0.  1.
          5    1    4    4  501    0  0.34227197109E+01  0.63936375699E+02  0.11162326677E+03  0.12875092711E+03  0.41800000000E+01 0.  1.
         -5    1    4    4    0  501 -0.22518874120E+02 -0.27759707162E+02 -0.10195263891E+02  0.37404770273E+02  0.41800000000E+01 0.  1.
</event>
<event>
11    1  0.8039394E-009  0.2223223E+03  0.7561462E-02  0.1039772E+00
         22   -1    0    0    0    0  0.00000000000E+00  0.00000000000E+00  0.56275043600E+03  0.56275043600E+03  0.00000000000E+00 0.  1.
         22   -1    0    0    0    0 -0.00000000000E+00 -0.00000000000E+00 -0.21827195430E+04  0.21827195430E+04  0.00000000000E+00 0.  1.
        -24    2    1    2    0    0 -0.18244411465E+03  0.15079018543E+02 -0.20410923139E+04  0.20508307089E+04  0.79596049069E+02 0.  0.
         25    2    1    2    0    0  0.20415141608E+03  0.39518268053E+02 -0.18574239479E+02  0.24337622377E+03  0.12508992657E+03 0.  0.
         24    2    1    2    0    0 -0.21707301428E+02 -0.54597286597E+02  0.43969744631E+03  0.45126304637E+03  0.82779357871E+02 0.  0.
        -13    1    5    5    0    0 -0.46602646575E+02 -0.83823634040E+01  0.24955984982E+03  0.25401218342E+03  0.00000000000E+00 0.  1.
         14    1    5    5    0    0  0.24895345147E+02 -0.46214923193E+02  0.19013759649E+03  0.19725086295E+03  0.00000000000E+00 0. -1.
         11    1    3    3    0    0 -0.36339674642E+02  0.26535103424E+02 -0.27384023112E+03  0.27751244268E+03  0.00000000000E+00 0. -1.
        -12    1    3    3    0    0 -0.14610444001E+03 -0.11456084881E+02 -0.17672520828E+04  0.17733182662E+04  0.00000000000E+00 0.  1.
          5    1    4    4  501    0  0.18499271131E+03  0.49900017333E+02 -0.56178219275E+02  0.19971424509E+03  0.41800000000E+01 0. -1.
         -5    1    4    4    0  501  0.19158704764E+02 -0.10381749279E+02  0.37603979796E+02  0.43661978686E+02  0.41800000000E+01 0. -1.
</event>
<event>
11    1  0.8039394E-009  0.1764218E+03  0.7561462E-02  0.1072575E+00
         22   -1    0    0    0    0  0.00000000000E+00  0.00000000000E+00  0.56876337308E+03  0.56876337308E+03  0.00000000000E+00 0.  1.
         22   -1    0    0    0    0 -0.00000000000E+00 -0.00000000000E+00 -0.28632592845E+03  0.28632592845E+03  0.00000000000E+00 0. -1.
         24    2    1    2    0    0 -0.86229362268E+02  0.93293910925E+02 -0.21349873315E+03  0.26106896892E+03  0.80224938407E+02 0.  0.
         25    2    1    2    0    0  0.77519923224E+02 -0.74946273261E+02  0.10616065296E+03  0.19632490436E+03  0.12508837461E+03 0.  0.
        -24    2    1    2    0    0  0.87094390437E+01 -0.18347637663E+02  0.38977552483E+03  0.39769542824E+03  0.76316471065E+02 0.  0.
        -11    1    3    3    0    0 -0.94556850050E+01  0.44304984188E+02 -0.25048918742E+02  0.51766687483E+02  0.00000000000E+00 0.  1.
         12    1    3    3    0    0 -0.76773677263E+02  0.48988926736E+02 -0.18844981441E+03  0.20930228144E+03  0.00000000000E+00 0. -1.
         11    1    5    5    0    0  0.31265932808E+02 -0.33356327897E+02  0.16244164160E+03  0.16875274840E+03  0.00000000000E+00 0. -1.
        -12    1    5    5    0    0 -0.22556493764E+02  0.15008690234E+02  0.22733388323E+03  0.22894267985E+03  0.00000000000E+00 0.  1.
          5    1    4    4  501    0  0.76319364385E+02  0.12081081019E+02  0.41419991325E+02  0.87770644182E+02  0.41800000000E+01 0. -1.
         -5    1    4    4    0  501  0.12005588395E+01 -0.87027354280E+02  0.64740661635E+02  0.10855426018E+03  0.41800000000E+01 0. -1.
</event>
<event>
11    1  0.8039394E-009  0.1374498E+03  0.7561462E-02  0.1110440E+00
         22   -1    0    0    0    0  0.00000000000E+00  0.00000000000E+00  0.25023615698E+03  0.25023615698E+03  0.00000000000E+00 0.  1.
         22   -1    0    0    0    0 -0.00000000000E+00 -0.00000000000E+00 -0.33182983605E+03  0.33182983605E+03  0.00000000000E+00 0.  1.
         24    2    1    2    0    0 -0.73661153796E+01 -0.58390351469E+02 -0.24117768470E+03  0.25937372861E+03  0.75128973724E+02 0.  0.
         25    2    1    2    0    0  0.12122538701E+02  0.43302687528E+02 -0.13789200840E+02  0.13363998686E+03  0.12508966918E+03 0.  0.
        -24    2    1    2    0    0 -0.47564233217E+01  0.15087663941E+02  0.17337320647E+03  0.18905227757E+03  0.73703688965E+02 0.  0.
        -11    1    3    3    0    0 -0.16860757045E+02 -0.62430055066E+02 -0.10860086497E+03  0.12639598401E+03  0.00000000000E+00 0.  1.
         12    1    3    3    0    0  0.94946416658E+01  0.40397035967E+01 -0.13257681974E+03  0.13297774459E+03  0.00000000000E+00 0. -1.
         11    1    5    5    0    0 -0.36532754122E+01  0.42483821340E+02  0.68782740655E+02  0.80927664670E+02  0.00000000000E+00 0. -1.
        -12    1    5    5    0    0 -0.11031479095E+01 -0.27396157399E+02  0.10459046582E+03  0.10812461290E+03  0.00000000000E+00 0.  1.
          5    1    4    4  501    0  0.47403406442E+02  0.72588114731E+02 -0.66849409316E+01  0.87053306530E+02  0.41800000000E+01 0. -1.
         -5    1    4    4    0  501 -0.35280867740E+02 -0.29285427202E+02 -0.71042599084E+01  0.46586680326E+02  0.41800000000E+01 0. -1.
</event>
<event>
11    1  0.8039394E-009  0.1287185E+03  0.7561462E-02  0.1120854E+00
         22   -1    0    0    0    0  0.00000000000E+00  0.00000000000E+00  0.73642850138E+03  0.73642850138E+03  0.00000000000E+00 0.  1.
         22   -1    0    0    0    0 -0.00000000000E+00 -0.00000000000E+00 -0.82938578271E+03  0.82938578271E+03  0.00000000000E+00 0.  1.
        -24    2    1    2    0    0  0.22813924933E+02  0.20075110981E+02 -0.79517678706E+03  0.79976441660E+03  0.79959453100E+02 0.  0.
         25    2    1    2    0    0 -0.35832737865E+01  0.70633755184E+01  0.10782685943E+03  0.16533949568E+03  0.12509111116E+03 0.  0.
         24    2    1    2    0    0 -0.19230651147E+02 -0.27138486499E+02  0.59439264630E+03  0.60071037181E+03  0.80274637526E+02 0.  0.
        -11    1    5    5    0    0 -0.27680559041E+02 -0.52731375364E+02  0.38200748620E+03  0.38662194817E+03  0.00000000000E+00 0.  1.
         12    1    5    5    0    0  0.84499078941E+01  0.25592888865E+02  0.21238516010E+03  0.21408842364E+03  0.00000000000E+00 0. -1.
         11    1    3    3    0    0 -0.17336682272E+02 -0.11544596557E+02 -0.76872259087E+02  0.79644098834E+02  0.00000000000E+00 0. -1.
        -12    1    3    3    0    0  0.40150607205E+02  0.31619707538E+02 -0.71830452797E+03  0.72012031777E+03  0.00000000000E+00 0.  1.
          5    1    4    4  501    0 -0.27524791300E+02 -0.11864092511E+02 -0.18393735132E+02  0.35414301056E+02  0.41800000000E+01 0.  1.
         -5    1    4    4    0  501  0.23941517513E+02  0.18927468029E+02  0.12622059456E+03  0.12992519462E+03  0.41800000000E+01 0.  1.
</event>
<event>
11    1  0.8039394E-009  0.1625208E+03  0.7561462E-02  0.1084730E+00
         22   -1    0    0    0    0  0.00000000000E+00  0.00000000000E+00  0.34916790955E+03  0.34916790955E+03  0.00000000000E+00 0.  1.
         22   -1    0    0    0    0 -0.00000000000E+00 -0.00000000000E+00 -0.63579493371E+03  0.63579493371E+03  0.00000000000E+00 0. -1.
         24    2    1    2    0    0  0.35246856972E+02 -0.26236753027E+02 -0.55287635178E+03  0.56032769639E+03  0.79775678316E+02 0.  0.
         25    2    1    2    0    0 -0.11807517834E+03  0.69755770732E+02  0.81479874504E+02  0.20271605158E+03  0.12508881777E+03 0.  0.
        -24    2    1    2    0    0  0.82828321368E+02 -0.43519017705E+02  0.18476945312E+03  0.22191909529E+03  0.79711343764E+02 0.  0.
        -13    1    3    3    0    0 -0.23613696211E+02  0.22210446374E+01 -0.10107826453E+03  0.10382367384E+03  0.00000000000E+00 0.  1.
         14    1    3    3    0    0  0.58860553183E+02 -0.28457797665E+02 -0.45179808725E+03  0.45650402256E+03  0.00000000000E+00 0. -1.
         11    1    5    5    0    0  0.41669262577E+02 -0.53807953796E+02  0.62137706762E+02  0.92155943580E+02  0.00000000000E+00 0. -1.
        -12    1    5    5    0    0  0.41159058791E+02  0.10288936092E+02  0.12263174636E+03  0.12976315171E+03  0.00000000000E+00 0.  1.
          5    1    4    4  501    0 -0.18186122101E+02  0.20557955034E+02  0.86831057944E+02  0.91161776946E+02  0.41800000000E+01 0. -1.
         -5    1    4    4    0  501 -0.99889056239E+02  0.49197815698E+02 -0.53511834402E+01  0.11155427464E+03  0.41800000000E+01 0. -1.
</event>
<event>
11    1  0.8039394E-009  0.2109351E+03  0.7561462E-02  0.1047049E+00
         22   -1    0    0    0    0  0.00000000000E+00  0.00000000000E+00  0.87247118785E+03  0.87247118785E+03  0.00000000000E+00 0.  1.
         22   -1    0    0    0    0 -0.00000000000E+00 -0.00000000000E+00 -0.34593139332E+03  0.34593139332E+03  0.00000000000E+00 0. -1.
        -24    2    1    2    0    0  0.64724460779E+02  0.12458984322E+02 -0.22804779116E+03  0.25037176850E+03  0.79597395023E+02 0.  0.
         25    2    1    2    0    0 -0.18451790145E+03  0.10154406614E+03  0.64065750987E+02  0.25319945448E+03  0.12508992756E+03 0.  0.
         24    2    1    2    0    0  0.11979344067E+03 -0.11400305046E+03  0.69052183471E+03  0.71483135819E+03  0.82560901764E+02 0.  0.
        -13    1    5    5    0    0  0.10712648455E+03 -0.11852289955E+03  0.67760451306E+03  0.69618362343E+03  0.00000000000E+00 0.  1.
         14    1    5    5    0    0  0.12666956119E+02  0.45198490921E+01  0.12917321646E+02  0.18647734759E+02  0.00000000000E+00 0. -1.
         11    1    3    3    0    0  0.81856173141E+02  0.10774461050E+02 -0.20890004990E+03  0.22462358055E+03  0.00000000000E+00 0. -1.
        -12    1    3    3    0    0 -0.17131712363E+02  0.16845232726E+01 -0.19147741264E+02  0.25748187948E+02  0.00000000000E+00 0.  1.
          5    1    4    4  501    0 -0.19888222519E+03  0.11040204986E+03  0.61009113225E+02  0.23554688791E+03  0.41800000000E+01 0. -1.
         -5    1    4    4    0  501  0.14364323737E+02 -0.88579837236E+01  0.30566377619E+01  0.17652566569E+02  0.41800000000E+01 0. -1.
</event>
<event>
11    1  0.8039394E-009  0.1314165E+03  0.7561462E-02  0.1117541E+00
         22   -1    0    0    0    0  0.00000000000E+00  0.00000000000E+00  0.20115098824E+03  0.20115098824E+03  0.00000000000E+00 0.  1.
         22   -1    0    0    0    0 -0.00000000000E+00 -0.00000000000E+00 -0.40999961188E+03  0.40999961188E+03  0.00000000000E+00 0.  1.
        -24    2    1    2    0    0  0.11716923934E+01 -0.40498017830E+02 -0.33838749634E+03  0.35001341551E+03  0.79761087315E+02 0.  0.
         25    2    1    2    0    0 -0.23968677595E+02  0.35688823041E+02  0.38186132926E+02  0.13767337479E+03  0.12509031850E+03 0.  0.
         24    2    1    2    0    0  0.22796985202E+02  0.48091947891E+01  0.91352739771E+02  0.12346380982E+03  0.79719247258E+02 0.  0.
        -13    1    5    5    0    0  0.27249315933E+02 -0.29256251053E+02  0.20975674687E+02  0.45149001905E+02  0.00000000000E+00 0.  1.
         14    1    5    5    0    0 -0.44523307306E+01  0.34065445842E+02  0.70377065083E+02  0.78314807917E+02  0.00000000000E+00 0. -1.
         11    1    3    3    0    0 -0.30305145278E+02 -0.22743250838E+01 -0.60010431468E+02  0.67266828898E+02  0.00000000000E+00 0. -1.
        -12    1    3    3    0    0  0.31476837672E+02 -0.38223692746E+02 -0.27837706487E+03  0.28274658662E+03  0.00000000000E+00 0.  1.
          5    1    4    4  501    0 -0.31650519443E+02  0.40539728612E+02 -0.35934747085E+02  0.62880866923E+02  0.41800000000E+01 0. -1.
         -5    1    4    4    0  501  0.76818418477E+01 -0.48509055711E+01  0.74120880011E+02  0.74792507864E+02  0.41800000000E+01 0. -1.
</event>
<event>
11    1  0.8039394E-009  0.1768505E+03  0.7561462E-02  0.1072219E+00
         22   -1    0    0    0    0  0.00000000000E+00  0.00000000000E+00  0.25084911290E+03  0.25084911290E+03  0.00000000000E+00 0. -1.
         22   -1    0    0    0    0 -0.00000000000E+00 -0.00000000000E+00 -0.71581971860E+03  0.71581971860E+03  0.00000000000E+00 0.  1.
         24    2    1    2    0    0 -0.76321509178E+02 -0.36341134785E+02 -0.55187920597E+03  0.56420548444E+03  0.81311252890E+02 0.  0.
         25    2    1    2    0    0  0.15232073307E+03 -0.55998633660E+02 -0.40956132340E+02  0.20895476270E+03  0.12508890992E+03 0.  0.
        -24    2    1    2    0    0 -0.75999223890E+02  0.92339768445E+02  0.12786473261E+03  0.19350858436E+03  0.82423707181E+02 0.  0.
        -13    1    3    3    0    0 -0.15110519121E+02 -0.92992832930E+01 -0.36968825401E+03  0.37011377928E+03  0.00000000000E+00 0.  1.
         14    1    3    3    0    0 -0.61210990057E+02 -0.27041851492E+02 -0.18219095196E+03  0.19409170516E+03  0.00000000000E+00 0. -1.
         11    1    5    5    0    0 -0.46388326434E+02 -0.11119184979E+01  0.50888505329E+02  0.68867649639E+02  0.00000000000E+00 0. -1.
        -12    1    5    5    0    0 -0.29610897455E+02  0.93451686943E+02  0.76976227283E+02  0.12464093472E+03  0.00000000000E+00 0.  1.
          5    1    4    4  501    0  0.11890040934E+03 -0.94480059831E+02 -0.42614843586E+02  0.15778873959E+03  0.41800000000E+01 0.  1.
         -5    1    4    4    0  501  0.33420323727E+02  0.38481426171E+02  0.16587112455E+01  0.51166023113E+02  0.41800000000E+01 0.  1.
</event>
<event>
11    1  0.8039394E-009  0.2829874E+03  0.7561462E-02  0.1007660E+00
         22   -1    0    0    0    0  0.00000000000E+00  0.00000000000E+00  0.40183383906E+03  0.40183383906E+03  0.00000000000E+00 0. -1.
         22   -1    0    0    0    0 -0.00000000000E+00 -0.00000000000E+00 -0.31071539450E+03  0.31071539450E+03  0.00000000000E+00 0.  1.
        -24    2    1    2    0    0  0.32900769802E+02  0.84535953215E+01 -0.25457033256E+02  0.95289854555E+02  0.85312202594E+02 0.  0.
         25    2    1    2    0    0 -0.27659127401E+03 -0.28299917992E+02 -0.51774447079E+02  0.30924207641E+03  0.12508577150E+03 0.  0.
         24    2    1    2    0    0  0.24369050421E+03  0.19846322671E+02  0.16834992490E+03  0.30801730260E+03  0.82182863942E+02 0.  0.
        -11    1    5    5    0    0  0.13495929288E+02  0.24036008778E+02  0.14919657306E+02  0.31344313670E+02  0.00000000000E+00 0.  1.
         12    1    5    5    0    0  0.23019457492E+03 -0.41896861075E+01  0.15343026759E+03  0.27667298893E+03  0.00000000000E+00 0. -1.
         13    1    3    3    0    0 -0.70995481281E+01 -0.33232108230E+02 -0.76188348392E+01  0.34825611916E+02  0.00000000000E+00 0. -1.
        -14    1    3    3    0    0  0.40000317930E+02  0.41685703552E+02 -0.17838198417E+02  0.60464242639E+02  0.00000000000E+00 0.  1.
          5    1    4    4  501    0 -0.11543442345E+03 -0.41617700996E+02 -0.77870220656E+02  0.14539044954E+03  0.41800000000E+01 0.  1.
         -5    1    4    4    0  501 -0.16115685056E+03  0.13317783004E+02  0.26095773576E+02  0.16385162687E+03  0.41800000000E+01 0.  1.
</event>
<event>
11    1  0.8039394E-009  0.1451148E+03  0.7561462E-02  0.1101978E+00
         22   -1    0    0    0    0  0.00000000000E+00  0.00000000000E+00  0.16703023444E+04  0.16703023444E+04  0.00000000000E+00 0.  1.
         22   -1    0    0    0    0 -0.00000000000E+00 -0.00000000000E+00 -0.59745416929E+03  0.59745416929E+03  0.00000000000E+00 0.  1.
         24    2    1    2    0    0 -0.41480761202E+02 -0.66713841875E+02 -0.52311795287E+03  0.53498314978E+03  0.79894853901E+02 0.  0.
         25    2    1    2    0    0 -0.27333531754E+02  0.36488011666E+02  0.41091460438E-01  0.13313359455E+03  0.12508419307E+03 0.  0.
        -24    2    1    2    0    0  0.68814292956E+02  0.30225830209E+02  0.15959250365E+04  0.15996397693E+04  0.78877511475E+02 0.  0.
        -11    1    3    3    0    0 -0.61524178813E+02 -0.62555400846E+02 -0.46871334579E+03  0.47685490799E+03  0.00000000000E+00 0.  1.
         12    1    3    3    0    0  0.20043417611E+02 -0.41584410295E+01 -0.54404607087E+02  0.58128241790E+02  0.00000000000E+00 0. -1.
         11    1    5    5    0    0  0.16762980994E+02 -0.58512451224E+01  0.64309177486E+02  0.66715102565E+02  0.00000000000E+00 0. -1.
        -12    1    5    5    0    0  0.52051311962E+02  0.36077075331E+02  0.15316158590E+04  0.15329246668E+04  0.00000000000E+00 0.  1.
          5    1    4    4  501    0 -0.13686474101E+02  0.42527052154E+02 -0.57845538082E+02  0.73208253730E+02  0.41800000000E+01 0. -1.
         -5    1    4    4    0  501 -0.13647057653E+02 -0.60390404871E+01  0.57886629543E+02  0.59925340820E+02  0.41800000000E+01 0. -1.
</event>
<event>
11    1  0.8039394E-009  0.3241675E+03  0.7561462E-02  0.9904518E-01
         22   -1    0    0    0    0  0.00000000000E+00  0.00000000000E+00  0.49828198082E+03  0.49828198082E+03  0.00000000000E+00 0. -1.
         22   -1    0    0    0    0 -0.00000000000E+00 -0.00000000000E+00 -0.12685843555E+04  0.12685843555E+04  0.00000000000E+00 0. -1.
        -24    2    1    2    0    0  0.31277251726E+02  0.64239520616E+02 -0.53751907762E+03  0.54822902800E+03  0.80767108709E+02 0.  0.
         25    2    1    2    0    0 -0.26276260676E+03  0.12697505934E+03 -0.63522715676E+03  0.71015921949E+03  0.12508286512E+03 0.  0.
         24    2    1    2    0    0  0.23148535503E+03 -0.19121457995E+03  0.40244385970E+03  0.50847808882E+03  0.80252236232E+02 0.  0.
        -13    1    5    5    0    0  0.98821293148E+02 -0.36838548565E+02  0.11233015189E+03  0.15408046490E+03  0.00000000000E+00 0.  1.
         14    1    5    5    0    0  0.13266406188E+03 -0.15437603139E+03  0.29011370781E+03  0.35439762392E+03  0.00000000000E+00 0. -1.
         11    1    3    3    0    0  0.23776136488E+02 -0.66237944958E+01 -0.27834484654E+03  0.27943699275E+03  0.00000000000E+00 0. -1.
        -12    1    3    3    0    0  0.75011152375E+01  0.70863315112E+02 -0.25917423108E+03  0.26879203525E+03  0.00000000000E+00 0.  1.
          5    1    4    4  501    0 -0.90961028338E+02 -0.92132921600E+01 -0.12602144854E+03  0.15574874420E+03  0.41800000000E+01 0. -1.
         -5    1    4    4    0  501 -0.17180157842E+03  0.13618835150E+03 -0.50920570822E+03  0.55441047529E+03  0.41800000000E+01 0. -1.
</event>
<event>
11    1  0.8039394E-009  0.2558496E+03  0.7561462E-02  0.1020828E+00
         22   -1    0    0    0    0  0.00000000000E+00  0.00000000000E+00  0.49756839395E+03  0.49756839395E+03  0.00000000000E+00 0.  1.
         22   -1    0    0    0    0 -0.00000000000E+00 -0.00000000000E+00 -0.40943917357E+03  0.40943917357E+03  0.00000000000E+00 0. -1.
         24    2    1    2    0    0 -0.25224191829E+03  0.27948601049E+02 -0.19408747898E+03  0.32894161019E+03  0.78265725440E+02 0.  0.
         25    2    1    2    0    0  0.18404052177E+03  0.16743519381E+02 -0.48623432350E+02  0.22839428927E+03  0.12509378124E+03 0.  0.
        -24    2    1    2    0    0  0.68201396520E+02 -0.44692120430E+02  0.33084013171E+03  0.34967166806E+03  0.78525579115E+02 0.  0.
        -11    1    3    3    0    0 -0.14736800607E+02 -0.34664781397E+01 -0.43286872522E+02  0.45857857511E+02  0.00000000000E+00 0.  1.
         12    1    3    3    0    0 -0.23750511768E+03  0.31415079189E+02 -0.15080060646E+03  0.28308375268E+03  0.00000000000E+00 0. -1.
         11    1    5    5    0    0 -0.10359821447E+02  0.12327172476E+02  0.44370224161E+02  0.47201714733E+02  0.00000000000E+00 0. -1.
        -12    1    5    5    0    0  0.78561217967E+02 -0.57019292906E+02  0.28646990755E+03  0.30246995332E+03  0.00000000000E+00 0.  1.
          5    1    4    4  501    0  0.94114470288E+02  0.60088106016E+02 -0.61676602439E+02  0.12763067692E+03  0.41800000000E+01 0. -1.
         -5    1    4    4    0  501  0.89926051479E+02 -0.43344586635E+02  0.13053170090E+02  0.10076361235E+03  0.41800000000E+01 0. -1.
</event>
<event>
11    1  0.8039394E-009  0.1610246E+03  0.7561462E-02  0.1086118E+00
         22   -1    0    0    0    0  0.00000000000E+00  0.00000000000E+00  0.35408398682E+03  0.35408398682E+03  0.00000000000E+00 0. -1.
         22   -1    0    0    0    0 -0.00000000000E+00 -0.00000000000E+00 -0.12372677920E+04  0.12372677920E+04  0.00000000000E+00 0.  1.
         24    2    1    2    0    0  0.85562007143E+02  0.52579666715E+02 -0.10940678235E+04  0.11003964386E+04  0.61663938430E+02 0.  0.
         25    2    1    2    0    0 -0.13687089420E+03 -0.82510223077E+01 -0.63411766060E+02  0.19613581131E+03  0.12508590391E+03 0.  0.
        -24    2    1    2    0    0  0.51308887055E+02 -0.44328644407E+02  0.27429578431E+03  0.29481952896E+03  0.84159056332E+02 0.  0.
        -11    1    3    3    0    0  0.75529744924E+02  0.38187377781E+02 -0.10424234712E+04  0.10458535803E+04  0.00000000000E+00 0.  1.
         12    1    3    3    0    0  0.10032262220E+02  0.14392288934E+02 -0.51644352294E+02  0.54542858285E+02  0.00000000000E+00 0. -1.
         11    1    5    5    0    0  0.53259583398E+02 -0.37309989378E+02  0.27878106327E+03  0.28626473720E+03  0.00000000000E+00 0. -1.
        -12    1    5    5    0    0 -0.19506963439E+01 -0.70186550297E+01 -0.44852789595E+01  0.85547917565E+01  0.00000000000E+00 0.  1.
          5    1    4    4  501    0 -0.22446043846E+02 -0.56387579024E+02 -0.28064457298E+02  0.66996045525E+02  0.41800000000E+01 0. -1.
         -5    1    4    4    0  501 -0.11442485035E+03  0.48136556716E+02 -0.35347308762E+02  0.12913976579E+03  0.41800000000E+01 0. -1.
</event>
<event>
11    1  0.8039394E-009  0.1718011E+03  0.7561462E-02  0.1076475E+00
         22   -1    0    0    0    0  0.00000000000E+00  0.00000000000E+00  0.19851743984E+04  0.19851743984E+04  0.00000000000E+00 0. -1.
         22   -1    0    0    0    0 -0.00000000000E+00 -0.00000000000E+00 -0.74102161668E+03  0.74102161668E+03  0.00000000000E+00 0.  1.
        -24    2    1    2    0    0 -0.40173330123E+02  0.27627518721E+01 -0.65493022247E+03  0.66074495419E+03  0.77645147553E+02 0.  0.
         25    2    1    2    0    0  0.62509322402E+01 -0.11582737441E+03  0.98767033540E+01  0.17087995243E+03  0.12508938427E+03 0.  0.
         24    2    1    2    0    0  0.33922397883E+02  0.11306462254E+03  0.18892063008E+04  0.18945711085E+04  0.79780322856E+02 0.  0.
        -11    1    5    5    0    0 -0.16049223402E+02  0.42155392519E+01  0.10062152578E+03  0.10198058537E+03  0.00000000000E+00 0.  1.
         12    1    5    5    0    0  0.49971621284E+02  0.10884908329E+03  0.17885847751E+04  0.17925905231E+04  0.00000000000E+00 0. -1.
         13    1    3    3    0    0 -0.58639772824E+02 -0.11240703312E+02 -0.36117884929E+03  0.36608078008E+03  0.00000000000E+00 0. -1.
        -14    1    3    3    0    0  0.18466442701E+02  0.14003455185E+02 -0.29375137317E+03  0.29466417411E+03  0.00000000000E+00 0.  1.
          5    1    4    4  501    0  0.10415477109E+02 -0.21629368281E+02  0.59464553371E+02  0.64263654139E+02  0.41800000000E+01 0. -1.
         -5    1    4    4    0  501 -0.41645448685E+01 -0.94198006131E+02 -0.49587850017E+02  0.10661629830E+03  0.41800000000E+01 0. -1.
</event>
<event>
11    1  0.8039394E-009  0.1316142E+03  0.7561462E-02  0.1117301E+00
         22   -1    0    0    0    0  0.00000000000E+00  0.00000000000E+00  0.39993962232E+03  0.39993962232E+03  0.00000000000E+00 0. -1.
         22   -1    0    0    0    0 -0.00000000000E+00 -0.00000000000E+00 -0.32235719889E+03  0.32235719889E+03  0.00000000000E+00 0.  1.
        -24    2    1    2    0    0 -0.29133926358E+02 -0.34842019012E+02 -0.14150491484E+03  0.16883086893E+03  0.80109109512E+02 0.  0.
         25    2    1    2    0    0  0.10366611901E+02  0.32676625374E+02 -0.13673031003E+03  0.18846070611E+03  0.12508809527E+03 0.  0.
         24    2    1    2    0    0  0.18767314457E+02  0.21653936380E+01  0.35581764829E+03  0.36500524617E+03  0.79156363466E+02 0.  0.
        -13    1    5    5    0    0  0.49139628188E+02 -0.39093456827E+01  0.18813538681E+03  0.19448627152E+03  0.00000000000E+00 0.  1.
         14    1    5    5    0    0 -0.30372313731E+02  0.60747393207E+01  0.16768226149E+03  0.17051897465E+03  0.00000000000E+00 0. -1.
         13    1    3    3    0    0  0.85539654864E+01  0.22156016895E+02 -0.37412101836E+02  0.44313934310E+02  0.00000000000E+00 0. -1.
        -14    1    3    3    0    0 -0.37687891844E+02 -0.56998035907E+02 -0.10409281300E+03  0.12451693462E+03  0.00000000000E+00 0.  1.
          5    1    4    4  501    0 -0.40452186416E+02 -0.32101435330E+01 -0.11566101173E+03  0.12264430864E+03  0.41800000000E+01 0.  1.
         -5    1    4    4    0  501  0.50818798317E+02  0.35886768907E+02 -0.21069298301E+02  0.65816397469E+02  0.41800000000E+01 0.  1.
</event>
<event>
11    1  0.8039394E-009  0.1311786E+03  0.7561462E-02  0.1117829E+00
         22   -1    0    0    0    0  0.00000000000E+00  0.00000000000E+00  0.10150688355E+04  0.10150688355E+04  0.00000000000E+00 0. -1.
         22   -1    0    0    0    0 -0.00000000000E+00 -0.00000000000E+00 -0.94377023604E+02  0.94377023604E+02  0.00000000000E+00 0.  1.
        -24    2    1    2    0    0  0.16126814778E+02 -0.41043309934E+02 -0.48801395695E+02  0.10473275737E+03  0.81503047790E+02 0.  0.
         25    2    1    2    0    0 -0.21161123088E+02 -0.16420405981E+02  0.26550203160E+03  0.29471676636E+03  0.12509684540E+03 0.  0.
         24    2    1    2    0    0  0.50343083101E+01  0.57463715915E+02  0.70399117599E+03  0.70999633537E+03  0.71859567667E+02 0.  0.
        -11    1    5    5    0    0  0.22325345841E+02 -0.53061859383E+01  0.29112822124E+03  0.29203119333E+03  0.00000000000E+00 0.  1.
         12    1    5    5    0    0 -0.17291037531E+02  0.62769901854E+02  0.41286295475E+03  0.41796514204E+03  0.00000000000E+00 0. -1.
         11    1    3    3    0    0  0.31550659318E+02  0.38370974685E+01  0.58877305467E+01  0.32323873396E+02  0.00000000000E+00 0. -1.
        -12    1    3    3    0    0 -0.15423844540E+02 -0.44880407402E+02 -0.54689126241E+02  0.72408883972E+02  0.00000000000E+00 0.  1.
          5    1    4    4  501    0  0.10238127913E+02  0.24052114284E+02  0.23317994370E+01  0.26575047570E+02  0.41800000000E+01 0.  1.
         -5    1    4    4    0  501 -0.31399251001E+02 -0.40472520266E+02  0.26317023216E+03  0.26814171879E+03  0.41800000000E+01 0.  1.
</event>
<event>
11    1  0.8039394E-009  0.2176770E+03  0.7561462E-02  0.1042682E+00
         22   -1    0    0    0    0  0.00000000000E+00  0.00000000000E+00  0.63732790472E+03  0.63732790472E+03  0.00000000000E+00 0.  1.
         22   -1    0    0    0    0 -0.00000000000E+00 -0.00000000000E+00 -0.18806356652E+03  0.18806356652E+03  0.00000000000E+00 0.  1.
        -24    2    1    2    0    0 -0.28256929471E+02 -0.30551606633E+02 -0.91182396051E+02  0.12789998446E+03  0.79450122365E+02 0.  0.
         25    2    1    2    0    0 -0.47189858705E+02 -0.14415727023E+03  0.12453932490E+03  0.23273463421E+03  0.12508862934E+03 0.  0.
         24    2    1    2    0    0  0.75446788176E+02  0.17470887686E+03  0.41590740936E+03  0.46475685257E+03  0.82489692391E+02 0.  0.
        -13    1    5    5    0    0  0.40693635831E+01  0.10994009954E+03  0.19865550045E+03  0.22708455048E+03  0.00000000000E+00 0.  1.
         14    1    5    5    0    0  0.71377424593E+02  0.64768777324E+02  0.21725190891E+03  0.23767230209E+03  0.00000000000E+00 0. -1.
         11    1    3    3    0    0  0.26846731050E+02 -0.70043766982E+00 -0.23879123609E+02  0.35936751736E+02  0.00000000000E+00 0. -1.
        -12    1    3    3    0    0 -0.55103660521E+02 -0.29851168963E+02 -0.67303272442E+02  0.91963232722E+02  0.00000000000E+00 0.  1.
          5    1    4    4  501    0  0.33079917311E+02 -0.93940471008E+02  0.46643319414E+02  0.11005528006E+03  0.41800000000E+01 0.  1.
         -5    1    4    4    0  501 -0.80269776016E+02 -0.50216799223E+02  0.77896005483E+02  0.12267935416E+03  0.41800000000E+01 0.  1.
</event>
<event>
11    1  0.8039394E-009  0.1976329E+03  0.7561462E-02  0.1056210E+00
         22   -1    0    0    0    0  0.00000000000E+00  0.00000000000E+00  0.40011211872E+03  0.40011211872E+03  0.00000000000E+00 0. -1.
         22   -1    0    0    0    0 -0.00000000000E+00 -0.00000000000E+00 -0.23501973106E+04  0.23501973106E+04  0.00000000000E+00 0. -1.
         24    2    1    2    0    0 -0.83952876323E+02 -0.12699587412E+03 -0.21649143561E+04  0.21717327007E+04  0.79954464739E+02 0.  0.
         25    2    1    2    0    0  0.18254649849E+00  0.20477172958E+03 -0.79676014190E+02  0.25284031731E+03  0.12509382183E+03 0.  0.
        -24    2    1    2    0    0  0.83770329825E+02 -0.77775855464E+02  0.29450517844E+03  0.32573641130E+03  0.79399985297E+02 0.  0.
        -11    1    3    3    0    0 -0.65210111915E+01 -0.33693249747E+01 -0.13398076273E+02  0.15276923301E+02  0.00000000000E+00 0.  1.
         12    1    3    3    0    0 -0.77431865132E+02 -0.12362654914E+03 -0.21515162799E+04  0.21564557774E+04  0.00000000000E+00 0. -1.
         11    1    5    5    0    0  0.79981222143E+02 -0.83790484527E+02  0.29652433709E+03  0.31834654652E+03  0.00000000000E+00 0. -1.
        -12    1    5    5    0    0  0.37891076814E+01  0.60146290634E+01 -0.20191586516E+01  0.73898647790E+01  0.00000000000E+00 0.  1.
          5    1    4    4  501    0  0.57689984480E+02  0.93189805900E+02 -0.12460296660E+02  0.11038661887E+03  0.41800000000E+01 0.  1.
         -5    1    4    4    0  501 -0.57507437982E+02  0.11158192368E+03 -0.67215717530E+02  0.14245369844E+03  0.41800000000E+01 0.  1.
</event>
<event>
11    1  0.8039394E-009  0.1468672E+03  0.7561462E-02  0.1100123E+00
         22   -1    0    0    0    0  0.00000000000E+00  0.00000000000E+00  0.32462547136E+03  0.32462547136E+03  0.00000000000E+00 0.  1.
         22   -1    0    0    0    0 -0.00000000000E+00 -0.00000000000E+00 -0.96793409761E+03  0.96793409761E+03  0.00000000000E+00 0.  1.
         24    2    1    2    0    0  0.23957977293E+02 -0.71996588402E+02 -0.83723821758E+03  0.84385580294E+03  0.73261789215E+02 0.  0.
         25    2    1    2    0    0 -0.44801524376E+02  0.83628277903E+02 -0.69837287773E+02  0.17183011627E+03  0.12508987426E+03 0.  0.
        -24    2    1    2    0    0  0.20843547083E+02 -0.11631689501E+02  0.26376687910E+03  0.27687364975E+03  0.80723613405E+02 0.  0.
        -13    1    3    3    0    0 -0.23519839944E+01 -0.75223484739E+02 -0.70363457853E+03  0.70764802310E+03  0.00000000000E+00 0.  1.
         14    1    3    3    0    0  0.26309961287E+02  0.32268963371E+01 -0.13360363905E+03  0.13620777984E+03  0.00000000000E+00 0. -1.
         11    1    5    5    0    0  0.53728843348E+01 -0.28569828314E+01 -0.47801903094E+01  0.77382463368E+01  0.00000000000E+00 0. -1.
        -12    1    5    5    0    0  0.15470662748E+02 -0.87747066699E+01  0.26854706941E+03  0.26913540342E+03  0.00000000000E+00 0.  1.
          5    1    4    4  501    0  0.33128625794E+02  0.68063877631E+02 -0.21838002174E+02  0.78895931607E+02  0.41800000000E+01 0.  1.
         -5    1    4    4    0  501 -0.77930150170E+02  0.15564400272E+02 -0.47999285599E+02  0.92934184665E+02  0.41800000000E+01 0.  1.
</event>
<event>
11    1  0.8039394E-009  0.1988233E+03  0.7561462E-02  0.1055359E+00
         22   -1    0    0    0    0  0.00000000000E+00  0.00000000000E+00  0.29497164971E+02  0.29497164971E+02  0.00000000000E+00 0. -1.
         22   -1    0    0    0    0 -0.00000000000E+00 -0.00000000000E+00 -0.26205357980E+04  0.26205357980E+04  0.00000000000E+00 0. -1.
        -24    2    1    2    0    0 -0.86704341488E+01  0.26229212796E+02 -0.12960906417E+04  0.12987952724E+04  0.79088938662E+02 0.  0.
         25    2    1    2    0    0 -0.43179901083E+02  0.12936356613E+03 -0.85789916231E+03  0.87763972896E+03  0.12514425702E+03 0.  0.
         24    2    1    2    0    0  0.51850335232E+02 -0.15559277892E+03 -0.43704882904E+03  0.47359796157E+03  0.79911076345E+02 0.  0.
        -13    1    5    5    0    0 -0.95175829414E+01 -0.38904139748E+02 -0.18349519216E+03  0.18781534022E+03  0.00000000000E+00 0.  1.
         14    1    5    5    0    0  0.61367918173E+02 -0.11668863918E+03 -0.25355363688E+03  0.28578262135E+03  0.00000000000E+00 0. -1.
         13    1    3    3    0    0  0.21856508933E+02 -0.71021592397E+01 -0.87202116101E+03  0.87232393805E+03  0.00000000000E+00 0. -1.
        -14    1    3    3    0    0 -0.30526943082E+02  0.33331372035E+02 -0.42406948067E+03  0.42647133439E+03  0.00000000000E+00 0.  1.
          5    1    4    4  501    0 -0.84835420791E+02  0.10339055948E+03 -0.68027512622E+03  0.69330972600E+03  0.41800000000E+01 0. -1.
         -5    1    4    4    0  501  0.41655519709E+02  0.25973006647E+02 -0.17762403609E+03  0.18433000296E+03  0.41800000000E+01 0. -1.
</event>
<event>
11    1  0.8039394E-009  0.1480623E+03  0.7561462E-02  0.1098875E+00
         22   -1    0    0    0    0  0.00000000000E+00  0.00000000000E+00  0.67374513225E+03  0.67374513225E+03  0.00000000000E+00 0.  1.
         22   -1    0    0    0    0 -0.00000000000E+00 -0.00000000000E+00 -0.95537917009E+03  0.95537917009E+03  0.00000000000E+00 0.  1.
        -24    2    1    2    0    0 -0.75945204630E+02 -0.11031814228E+02 -0.74353164412E+03  0.75189288332E+03  0.81327898930E+02 0.  0.
         25    2    1    2    0    0  0.89452221396E+02  0.61693132760E+02 -0.17040737605E+03  0.23768795739E+03  0.12509655764E+03 0.  0.
         24    2    1    2    0    0 -0.13507016766E+02 -0.50661318533E+02  0.63230498232E+03  0.63954346164E+03  0.80356953355E+02 0.  0.
        -11    1    5    5    0    0 -0.32555171826E+02 -0.51866101460E+02  0.58954942533E+03  0.59272123009E+03  0.00000000000E+00 0.  1.
         12    1    5    5    0    0  0.19048155060E+02  0.12047829268E+01  0.42755557000E+02  0.46822231551E+02  0.00000000000E+00 0. -1.
         13    1    3    3    0    0 -0.71089501515E+02  0.61355786527E+01 -0.31459865167E+03  0.32258901745E+03  0.00000000000E+00 0. -1.
        -14    1    3    3    0    0 -0.48557031156E+01 -0.17167392880E+02 -0.42893299245E+03  0.42930386586E+03  0.00000000000E+00 0.  1.
          5    1    4    4  501    0  0.10026194676E+03  0.88667353915E+02 -0.15391583247E+03  0.20401449337E+03  0.41800000000E+01 0. -1.
         -5    1    4    4    0  501 -0.10809725366E+02 -0.26974221155E+02 -0.16491543575E+02  0.33673464016E+02  0.41800000000E+01 0. -1.
</event>
<event>
11    1  0.8039394E-009  0.1713409E+03  0.7561462E-02  0.1076871E+00
         22   -1    0    0    0    0  0.00000000000E+00  0.00000000000E+00  0.62099389245E+03  0.62099389245E+03  0.00000000000E+00 0.  1.
         22   -1    0    0    0    0 -0.00000000000E+00 -0.00000000000E+00 -0.15479324333E+04  0.15479324333E+04  0.00000000000E+00 0. -1.
        -24    2    1    2    0    0 -0.16423395657E+01  0.11714281761E+03 -0.14445686429E+04  0.14515571924E+04  0.80712959127E+02 0.  0.
         25    2    1    2    0    0 -0.10680242799E+02 -0.11585285954E+03 -0.21415420135E+02  0.17216861056E+03  0.12508979812E+03 0.  0.
         24    2    1    2    0    0  0.12322582364E+02 -0.12899580703E+01  0.53904552225E+03  0.54520052272E+03  0.80746671074E+02 0.  0.
        -13    1    5    5    0    0  0.12571474724E+02 -0.56830500929E+01  0.54041586379E+03  0.54059193933E+03  0.00000000000E+00 0.  1.
         14    1    5    5    0    0 -0.24889235982E+00  0.43930920226E+01 -0.13703415391E+01  0.46085833897E+01  0.00000000000E+00 0. -1.
         13    1    3    3    0    0  0.26166861631E+02  0.46278691310E+02 -0.91521534438E+03  0.91675817341E+03  0.00000000000E+00 0. -1.
        -14    1    3    3    0    0 -0.27809201197E+02  0.70864126296E+02 -0.52935329854E+03  0.53479901902E+03  0.00000000000E+00 0.  1.
          5    1    4    4  501    0  0.18945217724E+02 -0.11150699786E+02 -0.54043024402E+02  0.58492565910E+02  0.41800000000E+01 0. -1.
         -5    1    4    4    0  501 -0.29625460523E+02 -0.10470215975E+03  0.32627604267E+02  0.11367604465E+03  0.41800000000E+01 0. -1.
</event>
<event>
11    1  0.8039394E-009  0.1404079E+03  0.7561462E-02  0.1107104E+00
         22   -1    0    0    0    0  0.00000000000E+00  0.00000000000E+00  0.11604982477E+04  0.11604982477E+04  0.00000000000E+00 0.  1.
         22   -1    0    0    0    0 -0.00000000000E+00 -0.00000000000E+00 -0.19278140895E+04  0.19278140895E+04  0.00000000000E+00 0. -1.
         24    2    1    2    0    0  0.62270798055E+02  0.16507531035E+02 -0.18237489746E+04  0.18268337606E+04  0.84327429130E+02 0.  0.
         25    2    1    2    0    0 -0.54061569040E+02  0.41108738713E+02 -0.49671236867E+02  0.15075700749E+03  0.12509141414E+03 0.  0.
        -24    2    1    2    0    0 -0.82092290152E+01 -0.57616269748E+02  0.11061043698E+04  0.11107215691E+04  0.82755672570E+02 0.  0.
        -11    1    3    3    0    0 -0.15571213578E+02  0.36034610857E+01 -0.99083672199E+02  0.10036444450E+03  0.00000000000E+00 0.  1.
         12    1    3    3    0    0  0.77842011633E+02  0.12904069949E+02 -0.17246653024E+04  0.17264693160E+04  0.00000000000E+00 0. -1.
         13    1    5    5    0    0 -0.78402830479E+01 -0.55056882274E+02  0.33292160485E+03  0.33753448017E+03  0.00000000000E+00 0. -1.
        -14    1    5    5    0    0 -0.36894596730E+00 -0.25593874737E+01  0.77318276493E+03  0.77318708898E+03  0.00000000000E+00 0.  1.
          5    1    4    4  501    0 -0.49444554339E+02 -0.32932459363E+02 -0.47909153753E+02  0.76433436707E+02  0.41800000000E+01 0. -1.
         -5    1    4    4    0  501 -0.46170147013E+01  0.74041198076E+02 -0.17620831135E+01  0.74323570785E+02  0.41800000000E+01 0. -1.
</event>
<event>
11    1  0.8039394E-009  0.1855407E+03  0.7561462E-02  0.1065247E+00
         22   -1    0    0    0    0  0.00000000000E+00  0.00000000000E+00  0.13299442306E+04  0.13299442306E+04  0.00000000000E+00 0. -1.
         22   -1    0    0    0    0 -0.00000000000E+00 -0.00000000000E+00 -0.63484809593E+03  0.63484809593E+03  0.00000000000E+00 0.  1.
        -24    2    1    2    0    0 -0.53166252652E+01  0.41339296528E+01 -0.59369221726E+03  0.59980504132E+03  0.85148592983E+02 0.  0.
         25    2    1    2    0    0 -0.13187378808E+03 -0.17124975047E+02  0.22803046090E+03  0.29211457591E+03  0.12509625737E+03 0.  0.
         24    2    1    2    0    0  0.13719041334E+03  0.12991045394E+02  0.10607578910E+04  0.10728727093E+04  0.82816485168E+02 0.  0.
        -13    1    5    5    0    0  0.76197664641E+02  0.25719260821E+02  0.82879209520E+03  0.83268475520E+03  0.00000000000E+00 0.  1.
         14    1    5    5    0    0  0.60992748703E+02 -0.12728215427E+02  0.23196579577E+03  0.24018795405E+03  0.00000000000E+00 0. -1.
         13    1    3    3    0    0 -0.21251369631E+02  0.39162999319E+02 -0.24733248743E+03  0.25131398800E+03  0.00000000000E+00 0. -1.
        -14    1    3    3    0    0  0.15934744366E+02 -0.35029069666E+02 -0.34635972983E+03  0.34849105332E+03  0.00000000000E+00 0.  1.
          5    1    4    4  501    0 -0.50674185057E+02  0.29715262015E+02  0.17211643607E+02  0.61356196944E+02  0.41800000000E+01 0.  1.
         -5    1    4    4    0  501 -0.81199603022E+02 -0.46840237062E+02  0.21081881729E+03  0.23075837896E+03  0.41800000000E+01 0.  1.
</event>
<event>
11    1  0.8039394E-009  0.1499339E+03  0.7561462E-02  0.1096946E+00
         22   -1    0    0    0    0  0.00000000000E+00  0.00000000000E+00  0.37562207735E+03  0.37562207735E+03  0.00000000000E+00 0.  1.
         22   -1    0    0    0    0 -0.00000000000E+00 -0.00000000000E+00 -0.52641878333E+03  0.52641878333E+03  0.00000000000E+00 0. -1.
        -24    2    1    2    0    0  0.33735549998E+02 -0.57751938892E+02 -0.46908471450E+03  0.48071985619E+03  0.81103248865E+02 0.  0.
         25    2    1    2    0    0 -0.92677828632E+02 -0.52323182792E+01  0.15132331776E+03  0.21716788431E+03  0.12508631580E+03 0.  0.
         24    2    1    2    0    0  0.58942278633E+02  0.62984257171E+02  0.16696469076E+03  0.20415312019E+03  0.79750107590E+02 0.  0.
        -11    1    5    5    0    0  0.71205107335E+02  0.51594467139E+02  0.16542832240E+03  0.18734643365E+03  0.00000000000E+00 0.  1.
         12    1    5    5    0    0 -0.12262828701E+02  0.11389790033E+02  0.15363683639E+01  0.16806686541E+02  0.00000000000E+00 0. -1.
         13    1    3    3    0    0  0.34745359606E+02 -0.66418894716E+02 -0.46514508877E+03  0.47114611661E+03  0.00000000000E+00 0. -1.
        -14    1    3    3    0    0 -0.10098096080E+01  0.86669558239E+01 -0.39396257367E+01  0.95737395850E+01  0.00000000000E+00 0.  1.
          5    1    4    4  501    0 -0.50308683953E+00  0.31182123843E+02 -0.51678271953E+01  0.31886623868E+02  0.41800000000E+01 0.  1.
         -5    1    4    4    0  501 -0.92174741792E+02 -0.36414442123E+02  0.15649114496E+03  0.18528126044E+03  0.41800000000E+01 0.  1.
</event>
<event>
11    1  0.8039394E-009  0.1380417E+03  0.7561462E-02  0.1109765E+00
         22   -1    0    0    0    0  0.00000000000E+00  0.00000000000E+00  0.70217446076E+03  0.70217446076E+03  0.00000000000E+00 0.  1.
         22   -1    0    0    0    0 -0.00000000000E+00 -0.00000000000E+00 -0.45787394902E+03  0.45787394902E+03  0.00000000000E+00 0.  1.
         24    2    1    2    0    0 -0.55244255531E+02 -0.19751135167E+02 -0.41937565155E+03  0.43093683513E+03  0.79928616002E+02 0.  0.
         25    2    1    2    0    0  0.40824009727E+02  0.35237769809E+02  0.12823223551E+03  0.18708134449E+03  0.12509045943E+03 0.  0.
        -24    2    1    2    0    0  0.14420245803E+02 -0.15486634642E+02  0.53544392778E+03  0.54203023015E+03  0.81540120558E+02 0.  0.
        -13    1    3    3    0    0 -0.75002332191E+02 -0.22801014351E+02 -0.31064043847E+03  0.32037902257E+03  0.00000000000E+00 0.  1.
         14    1    3    3    0    0  0.19758076661E+02  0.30498791841E+01 -0.10873521308E+03  0.11055781256E+03  0.00000000000E+00 0. -1.
         11    1    5    5    0    0  0.38632845934E+02  0.13883234570E+02  0.36967536956E+03  0.37194773806E+03  0.00000000000E+00 0. -1.
        -12    1    5    5    0    0 -0.24212600130E+02 -0.29369869212E+02  0.16576855822E+03  0.17008249209E+03  0.00000000000E+00 0.  1.
          5    1    4    4  501    0  0.54874202167E+02  0.74525623101E+02  0.10114226225E+03  0.13715858039E+03  0.41800000000E+01 0.  1.
         -5    1    4    4    0  501 -0.14050192440E+02 -0.39287853292E+02  0.27089973264E+02  0.49922764099E+02  0.41800000000E+01 0.  1.
</event>
<event>
11    1  0.8039394E-009  0.1456503E+03  0.7561462E-02  0.1101408E+00
         22   -1    0    0    0    0  0.00000000000E+00  0.00000000000E+00  0.11677379636E+03  0.11677379636E+03  0.00000000000E+00 0. -1.
         22   -1    0    0    0    0 -0.00000000000E+00 -0.00000000000E+00 -0.87483945827E+03  0.87483945827E+03  0.00000000000E+00 0. -1.
         24    2    1    2    0    0  0.35233307912E+02 -0.21642359885E+02 -0.64333133160E+03  0.64969190248E+03  0.80712998913E+02 0.  0.
         25    2    1    2    0    0 -0.95259871893E+02 -0.17336620442E+02 -0.15976246798E+03  0.22482579616E+03  0.12509033073E+03 0.  0.
        -24    2    1    2    0    0  0.60026563981E+02  0.38978980327E+02  0.45028137679E+02  0.11709555599E+03  0.81001770102E+02 0.  0.
        -13    1    3    3    0    0  0.20642442654E+02 -0.47778417669E+02 -0.25786452427E+03  0.26306463181E+03  0.00000000000E+00 0.  1.
         14    1    3    3    0    0  0.14590865257E+02  0.26136057784E+02 -0.38546680733E+03  0.38662727066E+03  0.00000000000E+00 0. -1.
         11    1    5    5    0    0  0.30501067772E+02  0.62313909883E+02  0.21167823386E+02  0.72535613646E+02  0.00000000000E+00 0. -1.
        -12    1    5    5    0    0  0.29525496209E+02 -0.23334929556E+02  0.23860314293E+02  0.44559942347E+02  0.00000000000E+00 0.  1.
          5    1    4    4  501    0  0.24449112685E+02  0.20579619527E+02 -0.27074622428E+02  0.42092605415E+02  0.41800000000E+01 0.  1.
         -5    1    4    4    0  501 -0.11970898458E+03 -0.37916239969E+02 -0.13268784555E+03  0.18273319074E+03  0.41800000000E+01 0.  1.
</event>
<event>
11    1  0.8039394E-009  0.1477063E+03  0.7561462E-02  0.1099246E+00
         22   -1    0    0    0    0  0.00000000000E+00  0.00000000000E+00  0.31929818624E+03  0.31929818624E+03  0.00000000000E+00 0.  1.
         22   -1    0    0    0    0 -0.00000000000E+00 -0.00000000000E+00 -0.91794274313E+03  0.91794274313E+03  0.00000000000E+00 0.  1.
        -24    2    1    2    0    0 -0.34465166294E+02 -0.73677182392E+02 -0.83622583124E+03  0.84410962265E+03  0.81432421765E+02 0.  0.
         25    2    1    2    0    0  0.42437368925E+02  0.15596860384E+02 -0.25589867587E+01  0.13302972935E+03  0.12508464391E+03 0.  0.
         24    2    1    2    0    0 -0.79722026314E+01  0.58080322008E+02  0.24014026111E+03  0.26010157738E+03  0.80923455989E+02 0.  0.
        -11    1    5    5    0    0  0.18160714740E+02  0.66613859973E+02  0.19885745242E+03  0.21050297928E+03  0.00000000000E+00 0.  1.
         12    1    5    5    0    0 -0.26132917371E+02 -0.85335379648E+01  0.41282808690E+02  0.49598598103E+02  0.00000000000E+00 0. -1.
         11    1    3    3    0    0 -0.40664630320E+02 -0.54548334032E+02 -0.30471082879E+03  0.31221438481E+03  0.00000000000E+00 0. -1.
        -12    1    3    3    0    0  0.61994640258E+01 -0.19128848360E+02 -0.53151500246E+03  0.53189523783E+03  0.00000000000E+00 0.  1.
          5    1    4    4  501    0  0.60008932830E+02 -0.29148377425E+02  0.31572252044E+02  0.73925499153E+02  0.41800000000E+01 0.  1.
         -5    1    4    4    0  501 -0.17571563905E+02  0.44745237810E+02 -0.34131238803E+02  0.59104230195E+02  0.41800000000E+01 0.  1.
</event>
<event>
11    1  0.8039394E-009  0.1326474E+03  0.7561462E-02  0.1116058E+00
         22   -1    0    0    0    0  0.00000000000E+00  0.00000000000E+00  0.27308313554E+03  0.27308313554E+03  0.00000000000E+00 0.  1.
         22   -1    0    0    0    0 -0.00000000000E+00 -0.00000000000E+00 -0.15571546658E+03  0.15571546658E+03  0.00000000000E+00 0. -1.
         24    2    1    2    0    0  0.16312377385E+02 -0.44326811112E+02 -0.88027594135E+02  0.12786679443E+03  0.79812905907E+02 0.  0.
         25    2    1    2    0    0 -0.98005452309E+01  0.21684332021E+02  0.99908467012E+02  0.16185141046E+03  0.12509163179E+03 0.  0.
        -24    2    1    2    0    0 -0.65118321538E+01  0.22642479091E+02  0.10548679609E+03  0.13908039723E+03  0.87526035711E+02 0.  0.
        -11    1    3    3    0    0  0.35508354696E+02  0.66102503180E+01 -0.21988769423E+02  0.42285276908E+02  0.00000000000E+00 0.  1.
         12    1    3    3    0    0 -0.19195977311E+02 -0.50937061430E+02 -0.66038824712E+02  0.85581517522E+02  0.00000000000E+00 0. -1.
         11    1    5    5    0    0 -0.11829591788E+02  0.21967182762E+02 -0.74329111198E+01  0.26033527001E+02  0.00000000000E+00 0. -1.
        -12    1    5    5    0    0  0.53177596340E+01  0.67529632901E+00  0.11291970721E+03  0.11304687023E+03  0.00000000000E+00 0.  1.
          5    1    4    4  501    0  0.40737278944E+02 -0.29804173798E+02  0.62593900207E+02  0.80518838881E+02  0.41800000000E+01 0. -1.
         -5    1    4    4    0  501 -0.50537824175E+02  0.51488505819E+02  0.37314566805E+02  0.81332571579E+02  0.41800000000E+01 0. -1.
</event>
<event>
11    1  0.8039394E-009  0.2429382E+03  0.7561462E-02  0.1027730E+00
         22   -1    0    0    0    0  0.00000000000E+00  0.00000000000E+00  0.22188947621E+03  0.22188947621E+03  0.00000000000E+00 0.  1.
         22   -1    0    0    0    0 -0.00000000000E+00 -0.00000000000E+00 -0.85787498825E+03  0.85787498825E+03  0.00000000000E+00 0.  1.
         24    2    1    2    0    0 -0.17353327370E+03 -0.51639296902E+02 -0.41662975385E+03  0.46107273343E+03  0.78913241289E+02 0.  0.
         25    2    1    2    0    0  0.28382605598E+03  0.49400094042E+02 -0.32009873900E+03  0.44845116569E+03  0.12509055102E+03 0.  0.
        -24    2    1    2    0    0 -0.11029278227E+03  0.22392028600E+01  0.10074298082E+03  0.17024056534E+03  0.81628365486E+02 0.  0.
        -11    1    3    3    0    0 -0.16181849536E+03 -0.29168283577E+02 -0.30390621155E+03  0.34553581526E+03  0.00000000000E+00 0.  1.
         12    1    3    3    0    0 -0.11714778344E+02 -0.22471013325E+02 -0.11272354230E+03  0.11553691817E+03  0.00000000000E+00 0. -1.
         13    1    5    5    0    0 -0.24392219434E+02  0.21998137354E+02 -0.42870529611E+01  0.33125175306E+02  0.00000000000E+00 0. -1.
        -14    1    5    5    0    0 -0.85900562841E+02 -0.19758934494E+02  0.10503003378E+03  0.13711539003E+03  0.00000000000E+00 0.  1.
          5    1    4    4  501    0  0.20369422413E+03  0.25598149589E+01 -0.28228757620E+03  0.34814025575E+03  0.41800000000E+01 0.  1.
         -5    1    4    4    0  501  0.80131831852E+02  0.46840279083E+02 -0.37811162793E+02  0.10031090994E+03  0.41800000000E+01 0.  1.
</event>
<event>
11    1  0.8039394E-009  0.2268439E+03  0.7561462E-02  0.1037013E+00
         22   -1    0    0    0    0  0.00000000000E+00  0.00000000000E+00  0.38350181290E+03  0.38350181290E+03  0.00000000000E+00 0. -1.
         22   -1    0    0    0    0 -0.00000000000E+00 -0.00000000000E+00 -0.34371388077E+03  0.34371388077E+03  0.00000000000E+00 0. -1.
        -24    2    1    2    0    0  0.86317831865E+02 -0.74110778979E+02 -0.16827628799E+03  0.22501757635E+03  0.96813350872E+02 0.  0.
         25    2    1    2    0    0  0.10138033989E+03 -0.61085214136E+02 -0.12211126516E+02  0.17264259670E+03  0.12508788064E+03 0.  0.
         24    2    1    2    0    0 -0.18769817176E+03  0.13519599312E+03  0.22027534663E+03  0.32955552061E+03  0.81099029570E+02 0.  0.
        -13    1    5    5    0    0  0.28729955882E+01  0.11030654876E+02  0.33041966177E+02  0.34952839363E+02  0.00000000000E+00 0.  1.
         14    1    5    5    0    0 -0.19057116734E+03  0.12416533824E+03  0.18723338046E+03  0.29460268125E+03  0.00000000000E+00 0. -1.
         13    1    3    3    0    0  0.10610400711E+03 -0.52149232885E+02 -0.14675362192E+03  0.18845219118E+03  0.00000000000E+00 0. -1.
        -14    1    3    3    0    0 -0.19786175241E+02 -0.21961546095E+02 -0.21522666065E+02  0.36565385163E+02  0.00000000000E+00 0.  1.
          5    1    4    4  501    0  0.65204175604E+02  0.16380446329E+02  0.33905187763E+02  0.75411787510E+02  0.41800000000E+01 0.  1.
         -5    1    4    4    0  501  0.36176164287E+02 -0.77465660465E+02 -0.46116314280E+02  0.97230809194E+02  0.41800000000E+01 0.  1.
</event>
<event>
11    1  0.8039394E-009  0.1180484E+04  0.7561462E-02  0.8524064E-01
         22   -1    0    0    0    0  0.00000000000E+00  0.00000000000E+00  0.31857708826E+04  0.31857708826E+04  0.00000000000E+00 0. -1.
         22   -1    0    0    0    0 -0.00000000000E+00 -0.00000000000E+00 -0.60722320814E+03  0.60722320814E+03  0.00000000000E+00 0. -1.
         24    2    1    2    0    0  0.10197031122E+04  0.59278521208E+03  0.37188908825E+03  0.12392881139E+04  0.79654194675E+02 0.  0.
         25    2    1    2    0    0 -0.10428299952E+04 -0.50961952175E+03  0.20339151866E+04  0.23451364687E+04  0.12509042526E+03 0.  0.
        -24    2    1    2    0    0  0.23126883025E+02 -0.83165690334E+02  0.17274339958E+03  0.20856950811E+03  0.78800842942E+02 0.  0.
        -13    1    3    3    0    0  0.56874164785E+03  0.35680623748E+03  0.17758233177E+03  0.69448775199E+03  0.00000000000E+00 0.  1.
         14    1    3    3    0    0  0.45096146434E+03  0.23597897460E+03  0.19430675648E+03  0.54480036195E+03  0.00000000000E+00 0. -1.
         13    1    5    5    0    0  0.43398466187E+02 -0.36063350043E+02  0.13033722632E+03  0.14202740809E+03  0.00000000000E+00 0. -1.
        -14    1    5    5    0    0 -0.20271583162E+02 -0.47102340291E+02  0.42406173257E+02  0.66542100021E+02  0.00000000000E+00 0.  1.
          5    1    4    4  501    0 -0.94319676065E+03 -0.49794715638E+03  0.18403655281E+04  0.21270952610E+04  0.41800000000E+01 0.  1.
         -5    1    4    4    0  501 -0.99633234563E+02 -0.11672365367E+02  0.19354965848E+03  0.21804120766E+03  0.41800000000E+01 0.  1.
</event>
<event>
11    1  0.9975846E-009  0.1595429E+03  0.7561462E-02  0.1087508E+00
         22   -1    0    0    0    0  0.00000000000E+00  0.00000000000E+00  0.12184283937E+04  0.12184283937E+04  0.00000000000E+00 0.  1.
         22   -1    0    0    0    0 -0.00000000000E+00 -0.00000000000E+00 -0.12847575059E+04  0.12847575059E+04  0.00000000000E+00 0. -1.
         24    2    1    2    0    0  0.60861906207E+02  0.76885844466E+02 -0.40999896783E+03  0.42922863164E+03  0.80761747708E+02 0.  0.
         25    2    1    2    0    0 -0.13489682161E+03 -0.14207614022E+03 -0.84605198170E+03  0.87740207816E+03  0.12509064278E+03 0.  0.
        -24    2    1    2    0    0  0.74034915407E+02  0.65190295753E+02  0.11897218374E+04  0.11965551899E+04  0.81088401166E+02 0.  0.
        -13    1    3    3    0    0 -0.16538049918E+01  0.84575505340E+01 -0.19390275954E+03  0.19409416630E+03  0.00000000000E+00 0.  1.
         14    1    3    3    0    0  0.62515711199E+02  0.68428293932E+02 -0.21609620829E+03  0.23513446535E+03  0.00000000000E+00 0. -1.
         11    1    5    5    0    0 -0.15145983828E+02  0.94579177660E+01  0.85974442433E+02  0.87809212422E+02  0.00000000000E+00 0. -1.
        -12    1    5    5    0    0  0.89180899234E+02  0.55732377987E+02  0.11037473949E+04  0.11087459775E+04  0.00000000000E+00 0.  1.
          5    1    4    4  501    0  0.49467764245E+01  0.15889748549E+02 -0.30518005021E+02  0.35011080195E+02  0.41800000000E+01 0.  1.
         -5    1    4    4    0  501 -0.13984359804E+03 -0.15796588877E+03 -0.81553397668E+03  0.84239099796E+03  0.41800000000E+01 0.  1.
</event>
<event>
11    1  0.8039394E-009  0.1294363E+03  0.7561462E-02  0.1119964E+00
         22   -1    0    0    0    0  0.00000000000E+00  0.00000000000E+00  0.61214529405E+03  0.61214529405E+03  0.00000000000E+00 0.  1.
         22   -1    0    0    0    0 -0.00000000000E+00 -0.00000000000E+00 -0.13894917308E+04  0.13894917308E+04  0.00000000000E+00 0.  1.
        -24    2    1    2    0    0 -0.14703773320E+02  0.24938448343E+02 -0.13500884168E+04  0.13527691343E+04  0.80046676141E+02 0.  0.
         25    2    1    2    0    0 -0.16112938304E+02 -0.67096693986E+01  0.82506637438E+02  0.15086516255E+03  0.12509318768E+03 0.  0.
         24    2    1    2    0    0  0.30816711624E+02 -0.18228778945E+02  0.49023534265E+03  0.49800272797E+03  0.79962915062E+02 0.  0.
        -11    1    5    5    0    0  0.28637458105E+02 -0.10577092513E+02  0.48899929598E+03  0.48995131428E+03  0.00000000000E+00 0.  1.
         12    1    5    5    0    0  0.21792535188E+01 -0.76516864323E+01  0.12360466754E+01  0.80514136983E+01  0.00000000000E+00 0. -1.
         11    1    3    3    0    0 -0.20724525174E+02  0.11504553411E+02 -0.10702209678E+03  0.10961564620E+03  0.00000000000E+00 0. -1.
        -12    1    3    3    0    0  0.60207518539E+01  0.13433894933E+02 -0.12430663200E+04  0.12431534881E+04  0.00000000000E+00 0.  1.
          5    1    4    4  501    0 -0.69167180302E+02 -0.21532063958E+01  0.63957365108E+02  0.94322595810E+02  0.41800000000E+01 0. -1.
         -5    1    4    4    0  501  0.53054241998E+02 -0.45564630028E+01  0.18549272330E+02  0.56542566736E+02  0.41800000000E+01 0. -1.
</event>
<event>
11    1  0.8039394E-009  0.1361207E+03  0.7561462E-02  0.1111969E+00
         22   -1    0    0    0    0  0.00000000000E+00  0.00000000000E+00  0.10079714962E+04  0.10079714962E+04  0.00000000000E+00 0.  1.
         22   -1    0    0    0    0 -0.00000000000E+00 -0.00000000000E+00 -0.72859151012E+02  0.72859151012E+02  0.00000000000E+00 0.  1.
         24    2    1    2    0    0  0.25715053030E+02  0.53401235018E+02  0.20264444381E+02  0.99996209751E+02  0.77946381601E+02 0.  0.
         25    2    1    2    0    0  0.20456890027E+02 -0.49057008155E+02  0.12268718777E+03  0.18309286471E+03  0.12508307906E+03 0.  0.
        -24    2    1    2    0    0 -0.46171943057E+02 -0.43442268630E+01  0.79216071308E+03  0.79774157279E+03  0.81989639456E+02 0.  0.
        -11    1    3    3    0    0 -0.17547467497E+02  0.43734112041E+02 -0.74615445055E+01  0.47710175204E+02  0.00000000000E+00 0.  1.
         12    1    3    3    0    0  0.43262520527E+02  0.96671229769E+01  0.27725988886E+02  0.52286034548E+02  0.00000000000E+00 0. -1.
         11    1    5    5    0    0 -0.50536876125E+02 -0.13840870472E+01  0.22722368237E+03  0.23277992477E+03  0.00000000000E+00 0. -1.
        -12    1    5    5    0    0  0.43649330674E+01 -0.29601398158E+01  0.56493703071E+03  0.56496164803E+03  0.00000000000E+00 0.  1.
          5    1    4    4  501    0 -0.26890744537E+02 -0.26845808271E+01 -0.14299925566E+02  0.30859024404E+02  0.41800000000E+01 0. -1.
         -5    1    4    4    0  501  0.47347634564E+02 -0.46372427328E+02  0.13698711334E+03  0.15223384031E+03  0.41800000000E+01 0. -1.
</event>
<event>
11    1  0.8039394E-009  0.1746153E+03  0.7561462E-02  0.1074084E+00
         22   -1    0    0    0    0  0.00000000000E+00  0.00000000000E+00  0.74054807683E+02  0.74054807683E+02  0.00000000000E+00 0. -1.
         22   -1    0    0    0    0 -0.00000000000E+00 -0.00000000000E+00 -0.20611241228E+04  0.20611241228E+04  0.00000000000E+00 0.  1.
        -24    2    1    2    0    0 -0.15734097296E+02  0.21690708231E+02 -0.11884891268E+04  0.11913540936E+04  0.78103285157E+02 0.  0.
         25    2    1    2    0    0  0.12517800059E+03  0.30698100511E+02 -0.77708370020E+03  0.79757100420E+03  0.12509406229E+03 0.  0.
         24    2    1    2    0    0 -0.10944390329E+03 -0.52388808742E+02 -0.21496488107E+02  0.14625383268E+03  0.78775182159E+02 0.  0.
        -11    1    5    5    0    0 -0.19478731305E+02  0.19565957619E+02 -0.13616032876E+02  0.30783827281E+02  0.00000000000E+00 0.  1.
         12    1    5    5    0    0 -0.89965171984E+02 -0.71954766361E+02 -0.78804552312E+01  0.11547000540E+03  0.00000000000E+00 0. -1.
         13    1    3    3    0    0  0.27961000035E+02  0.20279113372E+02 -0.34281401062E+03  0.34454971461E+03  0.00000000000E+00 0. -1.
        -14    1    3    3    0    0 -0.43695097331E+02  0.14115948589E+01 -0.84567511620E+03  0.84680437900E+03  0.00000000000E+00 0.  1.
          5    1    4    4  501    0 -0.14730900089E+02  0.92097607678E+01 -0.17898231816E+02  0.25291069826E+02  0.41800000000E+01 0.  1.
         -5    1    4    4    0  501  0.13990890067E+03  0.21488339744E+02 -0.75918546838E+03  0.77227993437E+03  0.41800000000E+01 0.  1.
</event>
<event>
11    1  0.8039394E-009  0.1845278E+03  0.7561462E-02  0.1066038E+00
         22   -1    0    0    0    0  0.00000000000E+00  0.00000000000E+00  0.62615004445E+03  0.62615004445E+03  0.00000000000E+00 0. -1.
         22   -1    0    0    0    0 -0.00000000000E+00 -0.00000000000E+00 -0.27696662696E+03  0.27696662696E+03  0.00000000000E+00 0.  1.
         24    2    1    2    0    0 -0.11450642063E+03  0.71613941687E+02 -0.19933386669E+03  0.25993459446E+03  0.97937357424E+02 0.  0.
         25    2    1    2    0    0  0.16400230120E+03 -0.50572908185E+00  0.27518879156E+03  0.34390969963E+03  0.12509196590E+03 0.  0.
        -24    2    1    2    0    0 -0.49495880566E+02 -0.71108212605E+02  0.27332849261E+03  0.29927237733E+03  0.85727888488E+02 0.  0.
        -11    1    3    3    0    0 -0.13102528019E+03  0.68717811255E+02 -0.16432740902E+03  0.22111820139E+03  0.00000000000E+00 0.  1.
         12    1    3    3    0    0  0.16518859555E+02  0.28961304326E+01 -0.35006457670E+02  0.38816393072E+02  0.00000000000E+00 0. -1.
         13    1    5    5    0    0 -0.59251776219E+02 -0.31895815585E+02  0.23163330300E+03  0.24120966626E+03  0.00000000000E+00 0. -1.
        -14    1    5    5    0    0  0.97558956521E+01 -0.39212397020E+02  0.41695189611E+02  0.58062711069E+02  0.00000000000E+00 0.  1.
          5    1    4    4  501    0  0.18224482270E+03 -0.14348575560E+02  0.24012023729E+03  0.30181825289E+03  0.41800000000E+01 0.  1.
         -5    1    4    4    0  501 -0.18242521502E+02  0.13842846479E+02  0.35068554272E+02  0.42091446734E+02  0.41800000000E+01 0.  1.
</event>
<event>
11    1  0.8039394E-009  0.1563901E+03  0.7561462E-02  0.1090522E+00
         22   -1    0    0    0    0  0.00000000000E+00  0.00000000000E+00  0.91537444417E+03  0.91537444417E+03  0.00000000000E+00 0.  1.
         22   -1    0    0    0    0 -0.00000000000E+00 -0.00000000000E+00 -0.12131799023E+04  0.12131799023E+04  0.00000000000E+00 0. -1.
        -24    2    1    2    0    0 -0.72672394400E+02 -0.61027150231E+02 -0.11667493638E+04  0.11734857163E+04  0.82213492972E+02 0.  0.
         25    2    1    2    0    0  0.58694196835E+02  0.18750596949E+02  0.79395004235E+02  0.16046004793E+03  0.12508903491E+03 0.  0.
         24    2    1    2    0    0  0.13978197565E+02  0.42276553282E+02  0.78954890146E+03  0.79460858223E+03  0.77670034078E+02 0.  0.
        -13    1    5    5    0    0  0.33737896761E+02  0.34509491939E+02  0.72609093615E+03  0.72769306598E+03  0.00000000000E+00 0.  1.
         14    1    5    5    0    0 -0.19759699196E+02  0.77670613433E+01  0.63457965305E+02  0.66915516249E+02  0.00000000000E+00 0. -1.
         11    1    3    3    0    0 -0.79527875460E+02 -0.72224153712E+02 -0.11123000351E+04  0.11174758966E+04  0.00000000000E+00 0. -1.
        -12    1    3    3    0    0  0.68554810601E+01  0.11197003481E+02 -0.54449328671E+02  0.56009819677E+02  0.00000000000E+00 0.  1.
          5    1    4    4  501    0  0.16384147776E+02 -0.58616453727E+00  0.10557117913E+03  0.10691833402E+03  0.41800000000E+01 0. -1.
         -5    1    4    4    0  501  0.42310049059E+02  0.19336761487E+02 -0.26176174893E+02  0.53541713908E+02  0.41800000000E+01 0. -1.
</event>
<event>
11    1  0.8039394E-009  0.1644037E+03  0.7561462E-02  0.1083007E+00
         22   -1    0    0    0    0  0.00000000000E+00  0.00000000000E+00  0.19893525688E+04  0.19893525688E+04  0.00000000000E+00 0.  1.
         22   -1    0    0    0    0 -0.00000000000E+00 -0.00000000000E+00 -0.80565321054E+03  0.80565321054E+03  0.00000000000E+00 0. -1.
        -24    2    1    2    0    0  0.17724548172E+02  0.52199471752E+02 -0.78746227744E+03  0.79340725406E+03  0.79745143784E+02 0.  0.
         25    2    1    2    0    0  0.73256254790E+02 -0.10249689085E+03  0.64714295132E+03  0.67105384561E+03  0.12508865964E+03 0.  0.
         24    2    1    2    0    0 -0.90980802962E+02  0.50297419101E+02  0.13240186844E+04  0.13305446797E+04  0.80723795212E+02 0.  0.
        -13    1    5    5    0    0 -0.32947703147E+02  0.62957322756E+02  0.80806688312E+03  0.81118509800E+03  0.00000000000E+00 0.  1.
         14    1    5    5    0    0 -0.58033099815E+02 -0.12659903655E+02  0.51595180128E+03  0.51935958167E+03  0.00000000000E+00 0. -1.
         11    1    3    3    0    0  0.33163278541E+02  0.22569027210E+02 -0.67231253262E+03  0.67350820748E+03  0.00000000000E+00 0. -1.
        -12    1    3    3    0    0 -0.15438730369E+02  0.29630444541E+02 -0.11514974482E+03  0.11989904658E+03  0.00000000000E+00 0.  1.
          5    1    4    4  501    0  0.35218886047E+02 -0.12560002207E+03  0.52530643596E+03  0.54127632457E+03  0.41800000000E+01 0.  1.
         -5    1    4    4    0  501  0.38037368743E+02  0.23103131221E+02  0.12183651535E+03  0.12977752104E+03  0.41800000000E+01 0.  1.
</event>
<event>
11    1  0.8039394E-009  0.3549449E+03  0.7561462E-02  0.9792928E-01
         22   -1    0    0    0    0  0.00000000000E+00  0.00000000000E+00  0.13218644903E+04  0.13218644903E+04  0.00000000000E+00 0.  1.
         22   -1    0    0    0    0 -0.00000000000E+00 -0.00000000000E+00 -0.97523262371E+03  0.97523262371E+03  0.00000000000E+00 0. -1.
         24    2    1    2    0    0  0.23259765082E+02  0.72454693386E+02 -0.79957003752E+03  0.80660586059E+03  0.74229846902E+02 0.  0.
         25    2    1    2    0    0  0.15943262162E+03 -0.34097920217E+03  0.12499228232E+03  0.41587981456E+03  0.12508945748E+03 0.  0.
        -24    2    1    2    0    0 -0.18269238670E+03  0.26852450878E+03  0.10212096218E+04  0.10746114389E+04  0.80241715564E+02 0.  0.
        -13    1    3    3    0    0  0.38270774819E+02  0.70008283318E+01 -0.26735743583E+03  0.27017339302E+03  0.00000000000E+00 0.  1.
         14    1    3    3    0    0 -0.15011009737E+02  0.65453865055E+02 -0.53221260170E+03  0.53643246758E+03  0.00000000000E+00 0. -1.
         11    1    5    5    0    0  0.27130702166E+01  0.33179409618E+02  0.13841766838E+03  0.14236461953E+03  0.00000000000E+00 0. -1.
        -12    1    5    5    0    0 -0.18540545692E+03  0.23534509916E+03  0.88279195343E+03  0.93224681936E+03  0.00000000000E+00 0.  1.
          5    1    4    4  501    0  0.40065701712E+02 -0.91558469449E+01 -0.11704478374E+01  0.41327137998E+02  0.41800000000E+01 0.  1.
         -5    1    4    4    0  501  0.11936691991E+03 -0.33182335522E+03  0.12616273016E+03  0.37455267656E+03  0.41800000000E+01 0.  1.
</event>
<event>
11    1  0.8039394E-009  0.1628574E+03  0.7561462E-02  0.1084420E+00
         22   -1    0    0    0    0  0.00000000000E+00  0.00000000000E+00  0.52439267984E+03  0.52439267984E+03  0.00000000000E+00 0. -1.
         22   -1    0    0    0    0 -0.00000000000E+00 -0.00000000000E+00 -0.73889643214E+03  0.73889643214E+03  0.00000000000E+00 0. -1.
        -24    2    1    2    0    0 -0.99984239632E+01 -0.97862643217E+02 -0.49990002635E+03  0.51609347569E+03  0.82312659383E+02 0.  0.
         25    2    1    2    0    0 -0.47023288832E+01  0.13172355844E+03 -0.19053440108E+03  0.26329434821E+03  0.12508936030E+03 0.  0.
         24    2    1    2    0    0  0.14700752846E+02 -0.33860915221E+02  0.47593067513E+03  0.48390128808E+03  0.79295493991E+02 0.  0.
        -13    1    5    5    0    0  0.47442213755E+02 -0.24576077145E+02  0.28834121723E+03  0.29324973106E+03  0.00000000000E+00 0.  1.
         14    1    5    5    0    0 -0.32741460909E+02 -0.92848380764E+01  0.18758945790E+03  0.19065155702E+03  0.00000000000E+00 0. -1.
         13    1    3    3    0    0 -0.20095062237E+02 -0.10813365260E+03 -0.38857330868E+03  0.40383897109E+03  0.00000000000E+00 0. -1.
        -14    1    3    3    0    0  0.10096638274E+02  0.10271009383E+02 -0.11132671766E+03  0.11225450460E+03  0.00000000000E+00 0.  1.
          5    1    4    4  501    0  0.83744572223E+01  0.10153793731E+03 -0.20355651712E+03  0.22766820663E+03  0.41800000000E+01 0.  1.
         -5    1    4    4    0  501 -0.13076786106E+02  0.30185621125E+02  0.13022116042E+02  0.35626141578E+02  0.41800000000E+01 0.  1.
</event>
<event>
11    1  0.8039394E-009  0.2470148E+03  0.7561462E-02  0.1025502E+00
         22   -1    0    0    0    0  0.00000000000E+00  0.00000000000E+00  0.20547834144E+04  0.20547834144E+04  0.00000000000E+00 0.  1.
         22   -1    0    0    0    0 -0.00000000000E+00 -0.00000000000E+00 -0.21383194105E+03  0.21383194105E+03  0.00000000000E+00 0.  1.
         24    2    1    2    0    0  0.12038627185E+03 -0.54803727659E+02 -0.11140422250E+03  0.19024006635E+03  0.79272183277E+02 0.  0.
         25    2    1    2    0    0 -0.75800192970E+02  0.25896153192E+03  0.34497835834E+03  0.45548491733E+03  0.12509875268E+03 0.  0.
        -24    2    1    2    0    0 -0.44586078876E+02 -0.20415780426E+03  0.16073773375E+04  0.16228903718E+04  0.80267840237E+02 0.  0.
        -13    1    3    3    0    0 -0.49934224868E+01 -0.19867272939E+02 -0.31304555080E+02  0.37411468441E+02  0.00000000000E+00 0.  1.
         14    1    3    3    0    0  0.12537969433E+03 -0.34936454720E+02 -0.80099667419E+02  0.15282859791E+03  0.00000000000E+00 0. -1.
         11    1    5    5    0    0  0.23006762080E+02 -0.59253188820E+02  0.50212988714E+03  0.50613701213E+03  0.00000000000E+00 0. -1.
        -12    1    5    5    0    0 -0.67592840956E+02 -0.14490461544E+03  0.11052474504E+04  0.11167533597E+04  0.00000000000E+00 0.  1.
          5    1    4    4  501    0 -0.10737373271E+03  0.22785108800E+03  0.30558949936E+03  0.39603996174E+03  0.41800000000E+01 0.  1.
         -5    1    4    4    0  501  0.31573539743E+02  0.31110443924E+02  0.39388858981E+02  0.59444955588E+02  0.41800000000E+01 0.  1.
</event>
<event>
11    1  0.8039394E-009  0.2513586E+03  0.7561462E-02  0.1023178E+00
         22   -1    0    0    0    0  0.00000000000E+00  0.00000000000E+00  0.64867825270E+03  0.64867825270E+03  0.00000000000E+00 0.  1.
         22   -1    0    0    0    0 -0.00000000000E+00 -0.00000000000E+00 -0.19301879825E+03  0.19301879825E+03  0.00000000000E+00 0. -1.
         24    2    1    2    0    0  0.21137776276E+03 -0.51260272602E+02 -0.31409426169E+02  0.23531614881E+03  0.84136577647E+02 0.  0.
         25    2    1    2    0    0 -0.21123113863E+03  0.60333179101E+02  0.24841514406E+03  0.35442495987E+03  0.12509309314E+03 0.  0.
        -24    2    1    2    0    0 -0.14662413751E+00 -0.90729064985E+01  0.23865373655E+03  0.25195594228E+03  0.80273605563E+02 0.  0.
        -11    1    3    3    0    0  0.61203592112E+02 -0.37438165249E+02 -0.43700276772E+02  0.84007202635E+02  0.00000000000E+00 0.  1.
         12    1    3    3    0    0  0.15017417065E+03 -0.13822107353E+02  0.12290850603E+02  0.15130894617E+03  0.00000000000E+00 0. -1.
         11    1    5    5    0    0  0.66441131994E-02  0.21331265702E+02  0.14601405842E+02  0.25850028881E+02  0.00000000000E+00 0. -1.
        -12    1    5    5    0    0 -0.15326825071E+00 -0.30404172200E+02  0.22405233071E+03  0.22610591340E+03  0.00000000000E+00 0.  1.
          5    1    4    4  501    0 -0.21867725671E+03  0.40862582709E+02  0.24796828335E+03  0.33315947415E+03  0.41800000000E+01 0.  1.
         -5    1    4    4    0  501  0.74461180792E+01  0.19470596392E+02  0.44686071069E+00  0.21265485718E+02  0.41800000000E+01 0.  1.
</event>
<event>
11    1  0.8039394E-009  0.1670018E+03  0.7561462E-02  0.1080671E+00
         22   -1    0    0    0    0  0.00000000000E+00  0.00000000000E+00  0.19447510324E+04  0.19447510324E+04  0.00000000000E+00 0.  1.
         22   -1    0    0    0    0 -0.00000000000E+00 -0.00000000000E+00 -0.98957628865E+02  0.98957628865E+02  0.00000000000E+00 0.  1.
         24    2    1    2    0    0  0.22147069294E+02 -0.10349101706E+03 -0.20140244244E+02  0.13438544417E+03  0.80330161679E+02 0.  0.
         25    2    1    2    0    0 -0.39612755899E+02  0.14557594461E+03  0.45530614284E+03  0.49569432185E+03  0.12509057090E+03 0.  0.
        -24    2    1    2    0    0  0.17465686605E+02 -0.42084927551E+02  0.14106275049E+04  0.14136288952E+04  0.80003152777E+02 0.  0.
        -11    1    3    3    0    0 -0.29863892799E+02 -0.27808583566E+02 -0.98582813363E+01  0.41980413575E+02  0.00000000000E+00 0.  1.
         12    1    3    3    0    0  0.52010962093E+02 -0.75682433495E+02 -0.10281962907E+02  0.92405030592E+02  0.00000000000E+00 0. -1.
         13    1    5    5    0    0 -0.27569434350E+02 -0.33340957899E+02  0.50911620451E+03  0.51095107679E+03  0.00000000000E+00 0. -1.
        -14    1    5    5    0    0  0.45035120956E+02 -0.87439696521E+01  0.90151130042E+03  0.90267781845E+03  0.00000000000E+00 0.  1.
          5    1    4    4  501    0 -0.49849533610E+02  0.16558505414E+03  0.40802712425E+03  0.44317828543E+03  0.41800000000E+01 0.  1.
         -5    1    4    4    0  501  0.10236777710E+02 -0.20009109529E+02  0.47279018585E+02  0.52516036412E+02  0.41800000000E+01 0.  1.
</event>
<event>
11    1  0.8039394E-009  0.1323067E+03  0.7561462E-02  0.1116467E+00
         22   -1    0    0    0    0  0.00000000000E+00  0.00000000000E+00  0.24701277867E+04  0.24701277867E+04  0.00000000000E+00 0.  1.
         22   -1    0    0    0    0 -0.00000000000E+00 -0.00000000000E+00 -0.24457893298E+03  0.24457893298E+03  0.00000000000E+00 0. -1.
        -24    2    1    2    0    0  0.93318155540E+01 -0.17663394677E+02 -0.22422938346E+03  0.23809914926E+03  0.77545536152E+02 0.  0.
         25    2    1    2    0    0  0.18755121185E+02  0.49594910214E+02  0.35952544108E+03  0.38434227614E+03  0.12509609409E+03 0.  0.
         24    2    1    2    0    0 -0.28086936739E+02 -0.31931515537E+02  0.20902527961E+04  0.20922652943E+04  0.81294602449E+02 0.  0.
        -13    1    5    5    0    0  0.77402195267E+01  0.21726754569E+02  0.87220274943E+03  0.87250764981E+03  0.00000000000E+00 0.  1.
         14    1    5    5    0    0 -0.35827156266E+02 -0.53658270105E+02  0.12180500466E+04  0.12197576445E+04  0.00000000000E+00 0. -1.
         13    1    3    3    0    0 -0.13056199196E+02 -0.31023843635E+02 -0.19897423861E+03  0.20180111705E+03  0.00000000000E+00 0. -1.
        -14    1    3    3    0    0  0.22388014750E+02  0.13360448959E+02 -0.25255144849E+02  0.36298032208E+02  0.00000000000E+00 0.  1.
          5    1    4    4  501    0 -0.47308656459E+02  0.26975914236E+02  0.84935234238E+02  0.10098155941E+03  0.41800000000E+01 0.  1.
         -5    1    4    4    0  501  0.66063777644E+02  0.22618995977E+02  0.27459020684E+03  0.28336071674E+03  0.41800000000E+01 0.  1.
</event>
<event>
11    1  0.8039394E-009  0.1597317E+03  0.7561462E-02  0.1087330E+00
         22   -1    0    0    0    0  0.00000000000E+00  0.00000000000E+00  0.16778347664E+04  0.16778347664E+04  0.00000000000E+00 0. -1.
         22   -1    0    0    0    0 -0.00000000000E+00 -0.00000000000E+00 -0.13762935475E+03  0.13762935475E+03  0.00000000000E+00 0.  1.
         24    2    1    2    0    0  0.62181023153E+02  0.75286822637E+02 -0.86902828628E+02  0.15753696762E+03  0.87927295188E+02 0.  0.
         25    2    1    2    0    0 -0.14155944984E+03 -0.66492012483E+02  0.88928852743E+03  0.91156035863E+03  0.12509171371E+03 0.  0.
        -24    2    1    2    0    0  0.79378426685E+02 -0.87948101541E+01  0.73781971285E+03  0.74636679491E+03  0.79417759735E+02 0.  0.
        -13    1    3    3    0    0  0.63584738746E+02  0.87220704066E+01 -0.34900408089E+02  0.73055677386E+02  0.00000000000E+00 0.  1.
         14    1    3    3    0    0 -0.14037155936E+01  0.66564752231E+02 -0.52002420539E+02  0.84481290230E+02  0.00000000000E+00 0. -1.
         11    1    5    5    0    0  0.82019438404E+02 -0.32903667178E+02  0.58130353005E+03  0.58798268141E+03  0.00000000000E+00 0. -1.
        -12    1    5    5    0    0 -0.26410117185E+01  0.24108857024E+02  0.15651618280E+03  0.15838411350E+03  0.00000000000E+00 0.  1.
          5    1    4    4  501    0 -0.15404230340E+03 -0.77117165175E+02  0.67654159185E+03  0.69814188121E+03  0.41800000000E+01 0.  1.
         -5    1    4    4    0  501  0.12482853564E+02  0.10625152692E+02  0.21274693558E+03  0.21341847742E+03  0.41800000000E+01 0.  1.
</event>
<event>
11    1  0.8039394E-009  0.1818482E+03  0.7561462E-02  0.1068158E+00
         22   -1    0    0    0    0  0.00000000000E+00  0.00000000000E+00  0.68548376978E+03  0.68548376978E+03  0.00000000000E+00 0.  1.
         22   -1    0    0    0    0 -0.00000000000E+00 -0.00000000000E+00 -0.10686872665E+04  0.10686872665E+04  0.00000000000E+00 0.  1.
         24    2    1    2    0    0  0.11861473259E+03  0.55100569071E+02 -0.10052981448E+04  0.10165870141E+04  0.75625853417E+02 0.  0.
         25    2    1    2    0    0 -0.17171457520E+03 -0.60340146517E+02  0.17832961337E+03  0.28385876290E+03  0.12509003820E+03 0.  0.
        -24    2    1    2    0    0  0.53099842606E+02  0.52395774459E+01  0.44376503474E+03  0.45372525929E+03  0.78052279990E+02 0.  0.
        -13    1    3    3    0    0  0.11306820153E+03  0.65046294822E+02 -0.98230752621E+03  0.99093063063E+03  0.00000000000E+00 0.  1.
         14    1    3    3    0    0  0.55465310624E+01 -0.99457257505E+01 -0.22990618624E+02  0.25656383460E+02  0.00000000000E+00 0. -1.
         11    1    5    5    0    0  0.13154298293E+02  0.12735681489E+02  0.16859023999E+02  0.24888950093E+02  0.00000000000E+00 0. -1.
        -12    1    5    5    0    0  0.39945544314E+02 -0.74961040427E+01  0.42690601074E+03  0.42883630920E+03  0.00000000000E+00 0.  1.
          5    1    4    4  501    0 -0.30104909835E+02 -0.18286216046E+02 -0.16665694473E+02  0.39190675749E+02  0.41800000000E+01 0.  1.
         -5    1    4    4    0  501 -0.14160966536E+03 -0.42053930472E+02  0.19499530784E+03  0.24466808715E+03  0.41800000000E+01 0.  1.
</event>
<event>
11    1  0.8039394E-009  0.1557600E+03  0.7561462E-02  0.1091134E+00
         22   -1    0    0    0    0  0.00000000000E+00  0.00000000000E+00  0.73729122956E+03  0.73729122956E+03  0.00000000000E+00 0. -1.
         22   -1    0    0    0    0 -0.00000000000E+00 -0.00000000000E+00 -0.74347100677E+03  0.74347100677E+03  0.00000000000E+00 0.  1.
        -24    2    1    2    0    0 -0.88970397160E+02 -0.24620689067E+02 -0.66651431056E+03  0.67716144498E+03  0.76055154199E+02 0.  0.
         25    2    1    2    0    0  0.77410201800E+02  0.10713349282E+03  0.59377394035E+02  0.19142011843E+03  0.12508422040E+03 0.  0.
         24    2    1    2    0    0  0.11560195360E+02 -0.82512803752E+02  0.60095713931E+03  0.61218067292E+03  0.81692668617E+02 0.  0.
        -13    1    5    5    0    0  0.24616019297E+02 -0.72684605791E+02  0.26661181640E+03  0.27743622865E+03  0.00000000000E+00 0.  1.
         14    1    5    5    0    0 -0.13055823937E+02 -0.98281979608E+01  0.33434532291E+03  0.33474444427E+03  0.00000000000E+00 0. -1.
         11    1    3    3    0    0 -0.15181683694E+02 -0.40464614734E+02 -0.28443827320E+03  0.28770297153E+03  0.00000000000E+00 0. -1.
        -12    1    3    3    0    0 -0.73788713466E+02  0.15843925667E+02 -0.38207603736E+03  0.38945847345E+03  0.00000000000E+00 0.  1.
          5    1    4    4  501    0 -0.31142444643E+02  0.49445310849E+02  0.25082115867E+02  0.63728137896E+02  0.41800000000E+01 0. -1.
         -5    1    4    4    0  501  0.10855264644E+03  0.57688181970E+02  0.34295278168E+02  0.12769198054E+03  0.41800000000E+01 0. -1.
</event>
<event>
11    1  0.8039394E-009  0.1353808E+03  0.7561462E-02  0.1112829E+00
         22   -1    0    0    0    0  0.00000000000E+00  0.00000000000E+00  0.17885202600E+03  0.17885202600E+03  0.00000000000E+00 0.  1.
         22   -1    0    0    0    0 -0.00000000000E+00 -0.00000000000E+00 -0.55566970225E+03  0.55566970225E+03  0.00000000000E+00 0. -1.
        -24    2    1    2    0    0 -0.43770182247E+02  0.30218762317E+02 -0.43671635116E+03  0.44695501168E+03  0.78858155258E+02 0.  0.
         25    2    1    2    0    0  0.10692763170E+02 -0.51028932224E+02 -0.53335647647E+02  0.14563741726E+03  0.12508908380E+03 0.  0.
         24    2    1    2    0    0  0.33077419077E+02  0.20810169907E+02  0.11323432256E+03  0.14192929932E+03  0.76123159256E+02 0.  0.
        -13    1    5    5    0    0  0.29735758855E+02 -0.17284934249E+02  0.91931090353E+02  0.98154519407E+02  0.00000000000E+00 0.  1.
         14    1    5    5    0    0  0.33416602222E+01  0.38095104156E+02  0.21303232203E+02  0.43774779908E+02  0.00000000000E+00 0. -1.
         13    1    3    3    0    0 -0.10621609820E+02  0.10474940993E+02 -0.36676779028E+03  0.36707104895E+03  0.00000000000E+00 0. -1.
        -14    1    3    3    0    0 -0.33148572427E+02  0.19743821325E+02 -0.69948560871E+02  0.79883962736E+02  0.00000000000E+00 0.  1.
          5    1    4    4  501    0  0.42760348105E+01 -0.87392578901E+02 -0.94096401487E+01  0.88100857251E+02  0.41800000000E+01 0.  1.
         -5    1    4    4    0  501  0.64167283598E+01  0.36363646677E+02 -0.43926007498E+02  0.57536560005E+02  0.41800000000E+01 0.  1.
</event>
<event>
11    1  0.8039394E-009  0.1742902E+03  0.7561462E-02  0.1074357E+00
         22   -1    0    0    0    0  0.00000000000E+00  0.00000000000E+00  0.20508361292E+04  0.20508361292E+04  0.00000000000E+00 0.  1.
         22   -1    0    0    0    0 -0.00000000000E+00 -0.00000000000E+00 -0.32832998073E+03  0.32832998073E+03  0.00000000000E+00 0. -1.
        -24    2    1    2    0    0  0.12115384474E+03  0.45099622636E+01 -0.30402046613E+03  0.33481308025E+03  0.70517806450E+02 0.  0.
         25    2    1    2    0    0 -0.13106876969E+03  0.40494995631E+01  0.11628056948E+04  0.11768435487E+04  0.12509289896E+03 0.  0.
         24    2    1    2    0    0  0.99149249483E+01 -0.85594618267E+01  0.86372091980E+03  0.86750948100E+03  0.79920599346E+02 0.  0.
        -13    1    5    5    0    0  0.76879713413E+01 -0.44074436338E+02  0.53528191174E+03  0.53714838348E+03  0.00000000000E+00 0.  1.
         14    1    5    5    0    0  0.22269536071E+01  0.35514974512E+02  0.32843900807E+03  0.33036109752E+03  0.00000000000E+00 0. -1.
         13    1    3    3    0    0  0.12188340621E+03  0.20326349503E+02 -0.27987766414E+03  0.30594155010E+03  0.00000000000E+00 0. -1.
        -14    1    3    3    0    0 -0.72956147252E+00 -0.15816387240E+02 -0.24142801991E+02  0.28871530150E+02  0.00000000000E+00 0.  1.
          5    1    4    4  501    0 -0.14521968147E+03  0.11027267538E+02  0.11370831544E+04  0.11463794873E+04  0.41800000000E+01 0. -1.
         -5    1    4    4    0  501  0.14150911779E+02 -0.69777679751E+01  0.25722540393E+02  0.30464061357E+02  0.41800000000E+01 0. -1.
</event>
<event>
11    1  0.8039394E-009  0.1471932E+03  0.7561462E-02  0.1099782E+00
         22   -1    0    0    0    0  0.00000000000E+00  0.00000000000E+00  0.69670664988E+03  0.69670664988E+03  0.00000000000E+00 0. -1.
         22   -1    0    0    0    0 -0.00000000000E+00 -0.00000000000E+00 -0.11575635300E+03  0.11575635300E+03  0.00000000000E+00 0. -1.
         24    2    1    2    0    0  0.52732156578E+02 -0.53215152881E+02 -0.80101986220E+01  0.11036010341E+03  0.80639049524E+02 0.  0.
         25    2    1    2    0    0  0.26062291506E+02  0.73340903433E+02  0.56950452236E+02  0.15795784601E+03  0.12509674636E+03 0.  0.
        -24    2    1    2    0    0 -0.78794448085E+02 -0.20125750552E+02  0.53201004327E+03  0.54414505347E+03  0.80284134066E+02 0.  0.
        -13    1    3    3    0    0  0.32997040873E+02 -0.20876064232E+02  0.35426904037E+02  0.52722673432E+02  0.00000000000E+00 0.  1.
         14    1    3    3    0    0  0.19735115705E+02 -0.32339088649E+02 -0.43437102659E+02  0.57637429973E+02  0.00000000000E+00 0. -1.
         11    1    5    5    0    0 -0.92542303058E+02 -0.67734976397E+01  0.47563581823E+03  0.48460230056E+03  0.00000000000E+00 0. -1.
        -12    1    5    5    0    0  0.13747854974E+02 -0.13352252913E+02  0.56374225049E+02  0.59542752910E+02  0.00000000000E+00 0.  1.
          5    1    4    4  501    0  0.35101095873E+02  0.80596036990E+02 -0.11186927806E+02  0.88715431937E+02  0.41800000000E+01 0.  1.
         -5    1    4    4    0  501 -0.90388043672E+01 -0.72551335567E+01  0.68137380042E+02  0.69242414070E+02  0.41800000000E+01 0.  1.
</event>
<event>
11    1  0.8039394E-009  0.3163066E+03  0.7561462E-02  0.9935167E-01
         22   -1    0    0    0    0  0.00000000000E+00  0.00000000000E+00  0.71172787294E+03  0.71172787294E+03  0.00000000000E+00 0. -1.
         22   -1    0    0    0    0 -0.00000000000E+00 -0.00000000000E+00 -0.24259818911E+03  0.24259818911E+03  0.00000000000E+00 0.  1.
        -24    2    1    2    0    0  0.21272754735E+03 -0.16606923711E+03  0.14148613684E+02  0.28026935394E+03  0.74288132126E+02 0.  0.
         25    2    1    2    0    0 -0.25532366628E+03  0.22072941746E+03  0.23582830856E+03  0.43031862420E+03  0.12508987536E+03 0.  0.
         24    2    1    2    0    0  0.42596118934E+02 -0.54660180356E+02  0.21915276159E+03  0.24373808391E+03  0.81105831925E+02 0.  0.
        -11    1    5    5    0    0  0.23761460919E+02  0.19023140580E+02  0.56270157313E+02  0.63975131939E+02  0.00000000000E+00 0.  1.
         12    1    5    5    0    0  0.18834658015E+02 -0.73683320935E+02  0.16288260427E+03  0.17976295197E+03  0.00000000000E+00 0. -1.
         11    1    3    3    0    0  0.14819233735E+03 -0.85775859072E+02  0.35984731212E+02  0.17496676179E+03  0.00000000000E+00 0. -1.
        -12    1    3    3    0    0  0.64535209991E+02 -0.80293378037E+02 -0.21836117527E+02  0.10530259215E+03  0.00000000000E+00 0.  1.
          5    1    4    4  501    0 -0.10579116648E+03  0.91778391134E+02  0.26635404710E+02  0.14262524730E+03  0.41800000000E+01 0.  1.
         -5    1    4    4    0  501 -0.14953249980E+03  0.12895102633E+03  0.20919290386E+03  0.28769337690E+03  0.41800000000E+01 0.  1.
</event>
<event>
11    1  0.8039394E-009  0.1361664E+03  0.7561462E-02  0.1111916E+00
         22   -1    0    0    0    0  0.00000000000E+00  0.00000000000E+00  0.90065363625E+03  0.90065363625E+03  0.00000000000E+00 0. -1.
         22   -1    0    0    0    0 -0.00000000000E+00 -0.00000000000E+00 -0.91427989968E+02  0.91427989968E+02  0.00000000000E+00 0.  1.
         24    2    1    2    0    0 -0.53848272941E+02 -0.66989729784E+01 -0.43910188226E+02  0.10597295064E+03  0.79734866280E+02 0.  0.
         25    2    1    2    0    0  0.50979870191E+02 -0.22298569132E+02  0.35255560866E+03  0.37820338877E+03  0.12508466224E+03 0.  0.
        -24    2    1    2    0    0  0.28684027500E+01  0.28997542110E+02  0.50058022585E+03  0.50790528681E+03  0.80858720433E+02 0.  0.
        -13    1    3    3    0    0 -0.64412797372E+02  0.18247345917E+01 -0.57791636139E+02  0.86557560786E+02  0.00000000000E+00 0.  1.
         14    1    3    3    0    0  0.10564524432E+02 -0.85237075701E+01  0.13881447913E+02  0.19415389859E+02  0.00000000000E+00 0. -1.
         11    1    5    5    0    0  0.26378892171E+02  0.44914668734E+02  0.40059095895E+03  0.40396322829E+03  0.00000000000E+00 0. -1.
        -12    1    5    5    0    0 -0.23510489421E+02 -0.15917126624E+02  0.99989266902E+02  0.10394205852E+03  0.00000000000E+00 0.  1.
          5    1    4    4  501    0 -0.18400654190E+02  0.20182156568E+02  0.15995534476E+02  0.31925429387E+02  0.41800000000E+01 0. -1.
         -5    1    4    4    0  501  0.69380524381E+02 -0.42480725700E+02  0.33656007418E+03  0.34627795938E+03  0.41800000000E+01 0. -1.
</event>
<event>
11    1  0.8039394E-009  0.1256481E+03  0.7561462E-02  0.1124735E+00
         22   -1    0    0    0    0  0.00000000000E+00  0.00000000000E+00  0.62876789576E+03  0.62876789576E+03  0.00000000000E+00 0. -1.
         22   -1    0    0    0    0 -0.00000000000E+00 -0.00000000000E+00 -0.62563872612E+03  0.62563872612E+03  0.00000000000E+00 0.  1.
        -24    2    1    2    0    0  0.91107216554E+00  0.27237915790E+02 -0.58092916503E+03  0.58702625307E+03  0.79864841500E+02 0.  0.
         25    2    1    2    0    0  0.94398421203E+01 -0.30658084983E+02  0.72079000260E+02  0.14789146063E+03  0.12508985991E+03 0.  0.
         24    2    1    2    0    0 -0.10350914286E+02  0.34201691928E+01  0.51197933441E+03  0.51948890819E+03  0.87332971341E+02 0.  0.
        -11    1    5    5    0    0  0.62484063699E+01  0.28784150563E+02  0.63637181228E+02  0.70123182617E+02  0.00000000000E+00 0.  1.
         12    1    5    5    0    0 -0.16599320656E+02 -0.25363981370E+02  0.44834215318E+03  0.44936572557E+03  0.00000000000E+00 0. -1.
         13    1    3    3    0    0 -0.11720928645E+02 -0.15749445438E+01 -0.10756576433E+02  0.15986386558E+02  0.00000000000E+00 0. -1.
        -14    1    3    3    0    0  0.12632000810E+02  0.28812860334E+02 -0.57017258859E+03  0.57103986651E+03  0.00000000000E+00 0.  1.
          5    1    4    4  501    0 -0.35634622911E+02  0.10492059136E+02  0.77934356214E+02  0.86435790812E+02  0.41800000000E+01 0.  1.
         -5    1    4    4    0  501  0.45074465031E+02 -0.41150144119E+02 -0.58553559542E+01  0.61455669813E+02  0.41800000000E+01 0.  1.
</event>
<event>
11    1  0.1030767E-008  0.2749318E+03  0.7561462E-02  0.1011397E+00
         22   -1    0    0    0    0  0.00000000000E+00  0.00000000000E+00  0.93238425937E+03  0.93238425937E+03  0.00000000000E+00 0. -1.
         22   -1    0    0    0    0 -0.00000000000E+00 -0.00000000000E+00 -0.33863852831E+04  0.33863852831E+04  0.00000000000E+00 0. -1.
         24    2    1    2    0    0 -0.63538112760E+01  0.40325654532E+01 -0.15034294775E+04  0.15057031200E+04  0.82371471647E+02 0.  0.
         25    2    1    2    0    0 -0.14817814262E+03 -0.19393706179E+03 -0.18537620708E+04  0.18739396795E+04  0.12509101163E+03 0.  0.
        -24    2    1    2    0    0  0.15453195389E+03  0.18990449634E+03  0.90319052458E+03  0.93912674298E+03  0.79133262269E+02 0.  0.
        -11    1    3    3    0    0 -0.31386215120E+02 -0.17692930239E+02 -0.36113192879E+03  0.36292479148E+03  0.00000000000E+00 0.  1.
         12    1    3    3    0    0  0.25032403844E+02  0.21725495692E+02 -0.11422975487E+04  0.11427783286E+04  0.00000000000E+00 0. -1.
         13    1    5    5    0    0  0.14873778141E+03  0.18613959352E+03  0.77615906221E+03  0.81190748595E+03  0.00000000000E+00 0. -1.
        -14    1    5    5    0    0  0.57941724799E+01  0.37649028116E+01  0.12703146237E+03  0.12721925703E+03  0.00000000000E+00 0.  1.
          5    1    4    4  501    0 -0.11541535583E+02 -0.21100555868E+02 -0.63151413215E+03  0.63198576884E+03  0.41800000000E+01 0.  1.
         -5    1    4    4    0  501 -0.13663660703E+03 -0.17283650592E+03 -0.12222479387E+04  0.12419539106E+04  0.41800000000E+01 0.  1.
</event>
<event>
11    1  0.8039394E-009  0.1578243E+03  0.7561462E-02  0.1089142E+00
         22   -1    0    0    0    0  0.00000000000E+00  0.00000000000E+00  0.13238872302E+04  0.13238872302E+04  0.00000000000E+00 0. -1.
         22   -1    0    0    0    0 -0.00000000000E+00 -0.00000000000E+00 -0.38468080826E+03  0.38468080826E+03  0.00000000000E+00 0.  1.
         24    2    1    2    0    0  0.77497704518E+01 -0.17353838551E+02 -0.32003890402E+03  0.33075369613E+03  0.81313545960E+02 0.  0.
         25    2    1    2    0    0 -0.43941785580E+02 -0.72605124988E+02  0.45611141315E+02  0.15787336100E+03  0.12506493196E+03 0.  0.
        -24    2    1    2    0    0  0.36192015128E+02  0.89958963539E+02  0.12136341846E+04  0.12199409813E+04  0.77107630634E+02 0.  0.
        -11    1    3    3    0    0  0.61701250138E+01 -0.48744290484E+02 -0.23526802878E+03  0.24034375728E+03  0.00000000000E+00 0.  1.
         12    1    3    3    0    0  0.15796454380E+01  0.31390451933E+02 -0.84770875248E+02  0.90409938848E+02  0.00000000000E+00 0. -1.
         13    1    5    5    0    0  0.56005895778E+02  0.81167469407E+02  0.10870832973E+04  0.10915470277E+04  0.00000000000E+00 0. -1.
        -14    1    5    5    0    0 -0.19813880650E+02  0.87914941325E+01  0.12655088735E+03  0.12839395361E+03  0.00000000000E+00 0.  1.
          5    1    4    4  501    0  0.18521347882E+02 -0.84210269234E+02  0.16599730695E+02  0.87905820234E+02  0.41800000000E+01 0.  1.
         -5    1    4    4    0  501 -0.62463133462E+02  0.11605144246E+02  0.29011410620E+02  0.69967540767E+02  0.41800000000E+01 0.  1.
</event>
<event>
11    1  0.8039394E-009  0.1297120E+03  0.7561462E-02  0.1119623E+00
         22   -1    0    0    0    0  0.00000000000E+00  0.00000000000E+00  0.10061536764E+03  0.10061536764E+03  0.00000000000E+00 0.  1.
         22   -1    0    0    0    0 -0.00000000000E+00 -0.00000000000E+00 -0.92610473802E+03  0.92610473802E+03  0.00000000000E+00 0. -1.
        -24    2    1    2    0    0 -0.20841347910E+02  0.22809494726E+02 -0.71983188084E+03  0.72697466619E+03  0.96848302857E+02 0.  0.
         25    2    1    2    0    0  0.67120625668E+02 -0.22497321348E+02 -0.13781671424E+03  0.19912863473E+03  0.12508980210E+03 0.  0.
         24    2    1    2    0    0 -0.46279277759E+02 -0.31217337764E+00  0.32159224702E+02  0.10061680475E+03  0.83352604411E+02 0.  0.
        -11    1    5    5    0    0  0.22206228115E+02 -0.18427659794E+01 -0.47797908052E+01  0.22789443909E+02  0.00000000000E+00 0.  1.
         12    1    5    5    0    0 -0.68485505874E+02  0.15305926017E+01  0.36939015507E+02  0.77827360839E+02  0.00000000000E+00 0. -1.
         11    1    3    3    0    0  0.12835836517E+02  0.53525394335E+02 -0.34159962234E+03  0.34600582151E+03  0.00000000000E+00 0. -1.
        -12    1    3    3    0    0 -0.33677184426E+02 -0.30715899609E+02 -0.37823225850E+03  0.38096884467E+03  0.00000000000E+00 0.  1.
          5    1    4    4  501    0  0.11501828372E+02 -0.64685821026E+02 -0.99720021753E+02  0.11949101488E+03  0.41800000000E+01 0.  1.
         -5    1    4    4    0  501  0.55618797297E+02  0.42188499678E+02 -0.38096692485E+02  0.79637619855E+02  0.41800000000E+01 0.  1.
</event>
<event>
11    1  0.8039394E-009  0.1324787E+03  0.7561462E-02  0.1116260E+00
         22   -1    0    0    0    0  0.00000000000E+00  0.00000000000E+00  0.45738886978E+03  0.45738886978E+03  0.00000000000E+00 0.  1.
         22   -1    0    0    0    0 -0.00000000000E+00 -0.00000000000E+00 -0.18574332873E+03  0.18574332873E+03  0.00000000000E+00 0. -1.
         24    2    1    2    0    0  0.12199744861E+02  0.19421093126E+02 -0.11557324550E+03  0.14238967120E+03  0.79947675126E+02 0.  0.
         25    2    1    2    0    0 -0.24460270383E+02  0.23906346099E+02  0.30191784750E+02  0.13314883244E+03  0.12508896635E+03 0.  0.
        -24    2    1    2    0    0  0.12260525521E+02 -0.43327439225E+02  0.35702700180E+03  0.36759369487E+03  0.75028374792E+02 0.  0.
        -11    1    3    3    0    0 -0.33596161891E+02  0.15073815221E+02 -0.44972126053E+02  0.58124126839E+02  0.00000000000E+00 0.  1.
         12    1    3    3    0    0  0.45795906752E+02  0.43472779053E+01 -0.70601119442E+02  0.84265544364E+02  0.00000000000E+00 0. -1.
         13    1    5    5    0    0 -0.20709042229E+02 -0.41982758512E+02  0.12980383846E+03  0.13798714767E+03  0.00000000000E+00 0. -1.
        -14    1    5    5    0    0  0.32969567751E+02 -0.13446807128E+01  0.22722316334E+03  0.22960654721E+03  0.00000000000E+00 0.  1.
          5    1    4    4  501    0 -0.69289180634E+02  0.20286772461E+02 -0.95991364438E+01  0.72953132286E+02  0.41800000000E+01 0.  1.
         -5    1    4    4    0  501  0.44828910252E+02  0.36195736386E+01  0.39790921194E+02  0.60195700155E+02  0.41800000000E+01 0.  1.
</event>
<event>
11    1  0.8039394E-009  0.2174941E+03  0.7561462E-02  0.1042799E+00
         22   -1    0    0    0    0  0.00000000000E+00  0.00000000000E+00  0.26621752855E+04  0.26621752855E+04  0.00000000000E+00 0. -1.
         22   -1    0    0    0    0 -0.00000000000E+00 -0.00000000000E+00 -0.15400726687E+04  0.15400726687E+04  0.00000000000E+00 0. -1.
        -24    2    1    2    0    0 -0.16741594855E+02  0.50835991200E+01 -0.14958986693E+04  0.14983092708E+04  0.83136742972E+02 0.  0.
         25    2    1    2    0    0 -0.12269136482E+03  0.10787179658E+03  0.23295865229E+03  0.31081613055E+03  0.12508971914E+03 0.  0.
         24    2    1    2    0    0  0.13943295967E+03 -0.11295539570E+03  0.23850426338E+04  0.23931225530E+04  0.80041968281E+02 0.  0.
        -11    1    5    5    0    0  0.54517746518E+01 -0.46623031321E+02  0.59181949269E+03  0.59367814582E+03  0.00000000000E+00 0.  1.
         12    1    5    5    0    0  0.13398118502E+03 -0.66332364378E+02  0.17932231411E+04  0.17994444072E+04  0.00000000000E+00 0. -1.
         13    1    3    3    0    0 -0.10679120957E+01 -0.37705137904E+02 -0.82732011440E+03  0.82817956359E+03  0.00000000000E+00 0. -1.
        -14    1    3    3    0    0 -0.15673682759E+02  0.42788737024E+02 -0.66857855492E+03  0.67012970718E+03  0.00000000000E+00 0.  1.
          5    1    4    4  501    0  0.30500529962E+00  0.65439249513E+02  0.12714522614E+03  0.14305862203E+03  0.41800000000E+01 0.  1.
         -5    1    4    4    0  501 -0.12299637012E+03  0.42432547066E+02  0.10581342615E+03  0.16775750852E+03  0.41800000000E+01 0.  1.
</event>
<event>
11    1  0.8039394E-009  0.1424365E+03  0.7561462E-02  0.1104868E+00
         22   -1    0    0    0    0  0.00000000000E+00  0.00000000000E+00  0.10246988477E+04  0.10246988477E+04  0.00000000000E+00 0.  1.
         22   -1    0    0    0    0 -0.00000000000E+00 -0.00000000000E+00 -0.26633747797E+03  0.26633747797E+03  0.00000000000E+00 0.  1.
        -24    2    1    2    0    0  0.19959669978E+01  0.65842796360E+02 -0.21466668314E+03  0.23872363078E+03  0.81042762331E+02 0.  0.
         25    2    1    2    0    0 -0.18710983640E+02 -0.10035429908E+03  0.13765736388E+03  0.21217150292E+03  0.12508441379E+03 0.  0.
         24    2    1    2    0    0  0.16715016642E+02  0.34511502716E+02  0.83537068899E+03  0.84014119196E+03  0.80762607722E+02 0.  0.
        -11    1    5    5    0    0  0.39780171824E+02  0.41399913116E+02  0.72002486221E+03  0.72231033295E+03  0.00000000000E+00 0.  1.
         12    1    5    5    0    0 -0.23065155182E+02 -0.68884103997E+01  0.11534582677E+03  0.11783085901E+03  0.00000000000E+00 0. -1.
         11    1    3    3    0    0 -0.61053618092E+01  0.33754324637E+02 -0.16959505396E+02  0.38265581111E+02  0.00000000000E+00 0. -1.
        -12    1    3    3    0    0  0.81013288069E+01  0.32088471723E+02 -0.19770717774E+03  0.20045804967E+03  0.00000000000E+00 0.  1.
          5    1    4    4  501    0  0.28000948949E+02 -0.63948222106E+02  0.13582544642E+03  0.15277255169E+03  0.41800000000E+01 0.  1.
         -5    1    4    4    0  501 -0.46711932589E+02 -0.36406076970E+02  0.18319174511E+01  0.59398951238E+02  0.41800000000E+01 0.  1.
</event>
<event>
11    1  0.8039394E-009  0.1519358E+03  0.7561462E-02  0.1094917E+00
         22   -1    0    0    0    0  0.00000000000E+00  0.00000000000E+00  0.12151477930E+04  0.12151477930E+04  0.00000000000E+00 0. -1.
         22   -1    0    0    0    0 -0.00000000000E+00 -0.00000000000E+00 -0.15237331116E+03  0.15237331116E+03  0.00000000000E+00 0.  1.
        -24    2    1    2    0    0 -0.47222746877E+00 -0.11554495095E+02 -0.72223116092E+02  0.10961169396E+03  0.81638321874E+02 0.  0.
         25    2    1    2    0    0 -0.84434193085E+02  0.26210975075E+02  0.42493917593E+02  0.15896079832E+03  0.12508658679E+03 0.  0.
         24    2    1    2    0    0  0.84906420554E+02 -0.14656479980E+02  0.10925036803E+04  0.10989486118E+04  0.81852595261E+02 0.  0.
        -13    1    5    5    0    0  0.35383572239E+02 -0.41595589844E+02  0.34220345185E+03  0.34653339340E+03  0.00000000000E+00 0.  1.
         14    1    5    5    0    0  0.49522848315E+02  0.26939109864E+02  0.75030022844E+03  0.75241521844E+03  0.00000000000E+00 0. -1.
         11    1    3    3    0    0  0.13686372414E+02 -0.11210105665E+02  0.13795880448E+02  0.22434562091E+02  0.00000000000E+00 0. -1.
        -12    1    3    3    0    0 -0.14158599883E+02 -0.34438942974E+00 -0.86018996540E+02  0.87177131867E+02  0.00000000000E+00 0.  1.
          5    1    4    4  501    0 -0.58327156036E+02  0.68802648463E+02  0.56989731987E+02  0.10677623106E+03  0.41800000000E+01 0.  1.
         -5    1    4    4    0  501 -0.26107037049E+02 -0.42591673389E+02 -0.14495814394E+02  0.52184567264E+02  0.41800000000E+01 0.  1.
</event>
<event>
11    1  0.8039394E-009  0.5752869E+03  0.7561462E-02  0.9239430E-01
         22   -1    0    0    0    0  0.00000000000E+00  0.00000000000E+00  0.92521922796E+03  0.92521922796E+03  0.00000000000E+00 0.  1.
         22   -1    0    0    0    0 -0.00000000000E+00 -0.00000000000E+00 -0.61167486363E+03  0.61167486363E+03  0.00000000000E+00 0.  1.
         24    2    1    2    0    0  0.44082591122E+03  0.27989810613E+03 -0.13879680548E+03  0.54631852733E+03  0.80801895242E+02 0.  0.
         25    2    1    2    0    0 -0.59342213811E+03 -0.27525908116E+03  0.22033588209E+03  0.70150759996E+03  0.12509043171E+03 0.  0.
        -24    2    1    2    0    0  0.15259622689E+03 -0.46390249690E+01  0.23200528772E+03  0.28906796431E+03  0.80166735281E+02 0.  0.
        -13    1    3    3    0    0  0.21373457796E+02  0.27199044709E+02 -0.27369671087E+02  0.44110221340E+02  0.00000000000E+00 0.  1.
         14    1    3    3    0    0  0.41945245342E+03  0.25269906142E+03 -0.11142713439E+03  0.50220830599E+03  0.00000000000E+00 0. -1.
         13    1    5    5    0    0  0.42252971605E+02  0.32891442719E+02  0.52111624905E+02  0.74718016996E+02  0.00000000000E+00 0. -1.
        -14    1    5    5    0    0  0.11034325529E+03 -0.37530467688E+02  0.17989366281E+03  0.21434994731E+03  0.00000000000E+00 0.  1.
          5    1    4    4  501    0 -0.16480426084E+03 -0.30921211325E+02  0.19698654410E+02  0.16888479827E+03  0.41800000000E+01 0. -1.
         -5    1    4    4    0  501 -0.42861787727E+03 -0.24433786983E+03  0.20063722768E+03  0.53262280169E+03  0.41800000000E+01 0. -1.
</event>
<event>
11    1  0.8039394E-009  0.1491918E+03  0.7561462E-02  0.1097707E+00
         22   -1    0    0    0    0  0.00000000000E+00  0.00000000000E+00  0.12554927089E+03  0.12554927089E+03  0.00000000000E+00 0.  1.
         22   -1    0    0    0    0 -0.00000000000E+00 -0.00000000000E+00 -0.23630526204E+04  0.23630526204E+04  0.00000000000E+00 0. -1.
         24    2    1    2    0    0 -0.11313053912E+03 -0.12443971308E+02 -0.11493006464E+04  0.11576669062E+04  0.79670060246E+02 0.  0.
         25    2    1    2    0    0  0.21032299651E+02  0.75221595647E+02 -0.11640103812E+04  0.11733146042E+04  0.12508535816E+03 0.  0.
        -24    2    1    2    0    0  0.92098239473E+02 -0.62777624339E+02  0.75807678091E+02  0.15762038093E+03  0.81696172458E+02 0.  0.
        -11    1    3    3    0    0 -0.65639175327E+02  0.31926238277E+02 -0.54033586643E+03  0.54524364699E+03  0.00000000000E+00 0.  1.
         12    1    3    3    0    0 -0.47491363798E+02 -0.44370209585E+02 -0.60896477998E+03  0.61242325918E+03  0.00000000000E+00 0. -1.
         11    1    5    5    0    0  0.47910726390E+02 -0.12347072104E+02 -0.81832110615E+01  0.50148308406E+02  0.00000000000E+00 0. -1.
        -12    1    5    5    0    0  0.44187513083E+02 -0.50430552235E+02  0.83990889153E+02  0.10747207252E+03  0.00000000000E+00 0.  1.
          5    1    4    4  501    0 -0.20185745007E+02  0.19838790148E+00 -0.76161692929E+03  0.76189587415E+03  0.41800000000E+01 0.  1.
         -5    1    4    4    0  501  0.41218044658E+02  0.75023207745E+02 -0.40239345187E+03  0.41141873002E+03  0.41800000000E+01 0.  1.
</event>
<event>
11    1  0.8039394E-009  0.2364743E+03  0.7561462E-02  0.1031362E+00
         22   -1    0    0    0    0  0.00000000000E+00  0.00000000000E+00  0.12821242145E+03  0.12821242145E+03  0.00000000000E+00 0.  1.
         22   -1    0    0    0    0 -0.00000000000E+00 -0.00000000000E+00 -0.74537781000E+03  0.74537781000E+03  0.00000000000E+00 0. -1.
        -24    2    1    2    0    0  0.86268303306E+02 -0.54051024281E+02 -0.17395498530E+03  0.21722384997E+03  0.81006979373E+02 0.  0.
         25    2    1    2    0    0 -0.58812713256E+01 -0.15706063209E+03 -0.34533747037E+03  0.39951053199E+03  0.12509222687E+03 0.  0.
         24    2    1    2    0    0 -0.80387031981E+02  0.21111165637E+03 -0.97872932883E+02  0.25685584949E+03  0.73250324652E+02 0.  0.
        -11    1    5    5    0    0 -0.50468518305E+02  0.11338038229E+03 -0.14487795095E+02  0.12494830385E+03  0.00000000000E+00 0.  1.
         12    1    5    5    0    0 -0.29918513675E+02  0.97731274085E+02 -0.83385137788E+02  0.13190754565E+03  0.00000000000E+00 0. -1.
         13    1    3    3    0    0  0.95926509677E+02 -0.24833719853E+02 -0.13815849586E+03  0.17001876037E+03  0.00000000000E+00 0. -1.
        -14    1    3    3    0    0 -0.96582063705E+01 -0.29217304428E+02 -0.35796489439E+02  0.47205089604E+02  0.00000000000E+00 0.  1.
          5    1    4    4  501    0 -0.23087770647E+02 -0.17113645499E+03 -0.26726780136E+03  0.31822991912E+03  0.41800000000E+01 0. -1.
         -5    1    4    4    0  501  0.17206499321E+02  0.14075822897E+02 -0.78069669013E+02  0.81280612873E+02  0.41800000000E+01 0. -1.
</event>
<event>
11    1  0.8039394E-009  0.1260607E+03  0.7561462E-02  0.1124206E+00
         22   -1    0    0    0    0  0.00000000000E+00  0.00000000000E+00  0.72739093243E+02  0.72739093243E+02  0.00000000000E+00 0. -1.
         22   -1    0    0    0    0 -0.00000000000E+00 -0.00000000000E+00 -0.17551749104E+04  0.17551749104E+04  0.00000000000E+00 0. -1.
         24    2    1    2    0    0 -0.14339824654E+02  0.49921683394E+01 -0.13796828499E+04  0.13820727563E+04  0.79810932484E+02 0.  0.
         25    2    1    2    0    0  0.18985205926E+02 -0.15735261216E+01 -0.33553661952E+03  0.35860687935E+03  0.12510458366E+03 0.  0.
        -24    2    1    2    0    0 -0.46453812723E+01 -0.34186422178E+01  0.32783652231E+02  0.87234368071E+02  0.80633742548E+02 0.  0.
        -11    1    3    3    0    0  0.69593134649E+01  0.27708808442E+02 -0.20542968590E+03  0.20740676450E+03  0.00000000000E+00 0.  1.
         12    1    3    3    0    0 -0.21299138119E+02 -0.22716640102E+02 -0.11742531640E+04  0.11746659918E+04  0.00000000000E+00 0. -1.
         13    1    5    5    0    0  0.31363605322E+02  0.94479468422E+01  0.36228299766E+02  0.48840855257E+02  0.00000000000E+00 0. -1.
        -14    1    5    5    0    0 -0.36008986594E+02 -0.12866589060E+02 -0.34446475344E+01  0.38393512814E+02  0.00000000000E+00 0.  1.
          5    1    4    4  501    0  0.43868099201E+02 -0.17828441043E+02 -0.32232854033E+03  0.32581501462E+03  0.41800000000E+01 0.  1.
         -5    1    4    4    0  501 -0.24882893275E+02  0.16254914921E+02 -0.13208079183E+02  0.32791864731E+02  0.41800000000E+01 0.  1.
</event>
<event>
11    1  0.8039394E-009  0.1390517E+03  0.7561462E-02  0.1108622E+00
         22   -1    0    0    0    0  0.00000000000E+00  0.00000000000E+00  0.12738591172E+03  0.12738591172E+03  0.00000000000E+00 0. -1.
         22   -1    0    0    0    0 -0.00000000000E+00 -0.00000000000E+00 -0.38003147306E+04  0.38003147306E+04  0.00000000000E+00 0.  1.
        -24    2    1    2    0    0  0.58832896414E+02 -0.18662461925E+02 -0.32694706321E+04  0.32710104035E+04  0.79128051022E+02 0.  0.
         25    2    1    2    0    0 -0.37149738242E+02  0.42266460695E+02 -0.50505468687E+03  0.52335078333E+03  0.12509695813E+03 0.  0.
         24    2    1    2    0    0 -0.21683158172E+02 -0.23603998770E+02  0.10159650001E+03  0.13333945556E+03  0.80188861366E+02 0.  0.
        -11    1    5    5    0    0 -0.54909499983E+01 -0.36895713810E+01 -0.13703753328E+02  0.15216974868E+02  0.00000000000E+00 0.  1.
         12    1    5    5    0    0 -0.16192208174E+02 -0.19914427389E+02  0.11530025334E+03  0.11812248069E+03  0.00000000000E+00 0. -1.
         13    1    3    3    0    0 -0.32720696646E+01 -0.13225838331E+02 -0.99685843221E+02  0.10061260646E+03  0.00000000000E+00 0. -1.
        -14    1    3    3    0    0  0.62104966078E+02 -0.54366235936E+01 -0.31697847888E+04  0.31703977970E+04  0.00000000000E+00 0.  1.
          5    1    4    4  501    0 -0.18832486429E+02 -0.41807324863E+02 -0.24819225592E+03  0.25242698599E+03  0.41800000000E+01 0.  1.
         -5    1    4    4    0  501 -0.18317251813E+02  0.84073785558E+02 -0.25686243095E+03  0.27092379734E+03  0.41800000000E+01 0.  1.
</event>
<event>
11    1  0.8039394E-009  0.1755075E+03  0.7561462E-02  0.1073336E+00
         22   -1    0    0    0    0  0.00000000000E+00  0.00000000000E+00  0.28777275421E+04  0.28777275421E+04  0.00000000000E+00 0. -1.
         22   -1    0    0    0    0 -0.00000000000E+00 -0.00000000000E+00 -0.13783006505E+03  0.13783006505E+03  0.00000000000E+00 0. -1.
         24    2    1    2    0    0 -0.10507259806E+03 -0.63020653835E+02 -0.89353789081E+02  0.17153052692E+03  0.80167127728E+02 0.  0.
         25    2    1    2    0    0  0.11812622526E+03  0.10038249254E+03  0.20836540663E+04  0.20931534529E+04  0.12508660902E+03 0.  0.
        -24    2    1    2    0    0 -0.13053627195E+02 -0.37361838706E+02  0.74559719984E+03  0.75087362728E+03  0.79559509590E+02 0.  0.
        -11    1    3    3    0    0 -0.32384548806E+02  0.13194332229E+02 -0.25730852675E+01  0.35063801450E+02  0.00000000000E+00 0.  1.
         12    1    3    3    0    0 -0.72688049259E+02 -0.76214986065E+02 -0.86780703813E+02  0.13646672547E+03  0.00000000000E+00 0. -1.
         13    1    5    5    0    0 -0.35632077562E+02 -0.39980335941E+02  0.66440348838E+03  0.66655837523E+03  0.00000000000E+00 0. -1.
        -14    1    5    5    0    0  0.22578450367E+02  0.26184972348E+01  0.81193711459E+02  0.84315252056E+02  0.00000000000E+00 0.  1.
          5    1    4    4  501    0 -0.14477624928E+02  0.53123019775E+02  0.43404504563E+03  0.43754340458E+03  0.41800000000E+01 0.  1.
         -5    1    4    4    0  501  0.13260385019E+03  0.47259472766E+02  0.16496090206E+04  0.16556100484E+04  0.41800000000E+01 0.  1.
</event>
<event>
11    1  0.8039394E-009  0.3372580E+03  0.7561462E-02  0.9855496E-01
         22   -1    0    0    0    0  0.00000000000E+00  0.00000000000E+00  0.25891141154E+03  0.25891141154E+03  0.00000000000E+00 0. -1.
         22   -1    0    0    0    0 -0.00000000000E+00 -0.00000000000E+00 -0.29321570449E+04  0.29321570449E+04  0.00000000000E+00 0. -1.
         24    2    1    2    0    0 -0.29876035021E+03 -0.65400313517E+02 -0.18876109543E+04  0.19138351118E+04  0.78452357558E+02 0.  0.
         25    2    1    2    0    0  0.30879933462E+03  0.12836183816E+03 -0.98790324118E+03  0.10504450156E+04  0.12509247142E+03 0.  0.
        -24    2    1    2    0    0 -0.10038984414E+02 -0.62961524643E+02  0.20226856217E+03  0.22678832896E+03  0.80345753571E+02 0.  0.
        -13    1    3    3    0    0 -0.55552959559E+02 -0.13129184719E+02 -0.57764093316E+03  0.58045461017E+03  0.00000000000E+00 0.  1.
         14    1    3    3    0    0 -0.24320739065E+03 -0.52271128798E+02 -0.13099700211E+04  0.13333805016E+04  0.00000000000E+00 0. -1.
         11    1    5    5    0    0  0.64575862670E+01 -0.70002391695E+02  0.19526319548E+03  0.20753252943E+03  0.00000000000E+00 0. -1.
        -12    1    5    5    0    0 -0.16496570681E+02  0.70408670522E+01  0.70053666928E+01  0.19255799531E+02  0.00000000000E+00 0.  1.
          5    1    4    4  501    0 -0.60688151867E+01 -0.59152209807E+01 -0.72728748379E+02  0.73340054526E+02  0.41800000000E+01 0.  1.
         -5    1    4    4    0  501  0.31486814981E+03  0.13427705914E+03 -0.91517449280E+03  0.97710496112E+03  0.41800000000E+01 0.  1.
</event>
<event>
11    1  0.8039394E-009  0.1468207E+03  0.7561462E-02  0.1100172E+00
         22   -1    0    0    0    0  0.00000000000E+00  0.00000000000E+00  0.27835060631E+03  0.27835060631E+03  0.00000000000E+00 0. -1.
         22   -1    0    0    0    0 -0.00000000000E+00 -0.00000000000E+00 -0.28008175696E+03  0.28008175696E+03  0.00000000000E+00 0.  1.
        -24    2    1    2    0    0  0.74233113364E+02  0.13921848868E+02 -0.15087990745E+03  0.18696685440E+03  0.80544926446E+02 0.  0.
         25    2    1    2    0    0 -0.84787115811E+02  0.25877366010E+02 -0.43157712835E+02  0.15927633454E+03  0.12509144451E+03 0.  0.
         24    2    1    2    0    0  0.10554002447E+02 -0.39799214878E+02  0.19230646964E+03  0.21218917432E+03  0.79668707544E+02 0.  0.
        -13    1    5    5    0    0  0.25968489746E+01 -0.53579004492E+02  0.66771718669E+02  0.85649960660E+02  0.00000000000E+00 0.  1.
         14    1    5    5    0    0  0.79571534722E+01  0.13779789614E+02  0.12553475097E+03  0.12653921366E+03  0.00000000000E+00 0. -1.
         13    1    3    3    0    0  0.59324233825E+02  0.31344913775E+02 -0.50435458065E+02  0.83938094859E+02  0.00000000000E+00 0. -1.
        -14    1    3    3    0    0  0.14908879539E+02 -0.17423064907E+02 -0.10044444939E+03  0.10302875954E+03  0.00000000000E+00 0.  1.
          5    1    4    4  501    0 -0.99293726236E+00  0.48322138386E+02  0.19394647302E+02  0.52245954164E+02  0.41800000000E+01 0.  1.
         -5    1    4    4    0  501 -0.83794178548E+02 -0.22444772376E+02 -0.62552360137E+02  0.10703038038E+03  0.41800000000E+01 0.  1.
</event>
<event>
11    1  0.8039394E-009  0.1941225E+03  0.7561462E-02  0.1058760E+00
         22   -1    0    0    0    0  0.00000000000E+00  0.00000000000E+00  0.51510705599E+03  0.51510705599E+03  0.00000000000E+00 0. -1.
         22   -1    0    0    0    0 -0.00000000000E+00 -0.00000000000E+00 -0.14222342359E+03  0.14222342359E+03  0.00000000000E+00 0. -1.
        -24    2    1    2    0    0  0.22419897296E+02  0.17615657935E+02 -0.41228951073E+02  0.95140098323E+02  0.80863147992E+02 0.  0.
         25    2    1    2    0    0 -0.15190795606E+02  0.13648349302E+03  0.12130838865E+03  0.22185976638E+03  0.12509007412E+03 0.  0.
         24    2    1    2    0    0 -0.72291016893E+01 -0.15409915095E+03  0.29280419482E+03  0.34033061488E+03  0.79321010345E+02 0.  0.
        -11    1    5    5    0    0  0.33615220004E+02 -0.95173077734E+02  0.18738554787E+03  0.21284088257E+03  0.00000000000E+00 0.  1.
         12    1    5    5    0    0 -0.40844321693E+02 -0.58926073218E+02  0.10541864695E+03  0.12748973231E+03  0.00000000000E+00 0. -1.
         13    1    3    3    0    0  0.48628907871E+02 -0.43116703621E+01 -0.35800831839E+02  0.60539745146E+02  0.00000000000E+00 0. -1.
        -14    1    3    3    0    0 -0.26209010575E+02  0.21927328297E+02 -0.54281192334E+01  0.34600353177E+02  0.00000000000E+00 0.  1.
          5    1    4    4  501    0  0.46058218289E+02  0.47776481318E+02  0.10691559242E+02  0.67347854295E+02  0.41800000000E+01 0. -1.
         -5    1    4    4    0  501 -0.61249013895E+02  0.88707011699E+02  0.11061682941E+03  0.15451191208E+03  0.41800000000E+01 0. -1.
</event>
<event>
11    1  0.8039394E-009  0.1425527E+03  0.7561462E-02  0.1104741E+00
         22   -1    0    0    0    0  0.00000000000E+00  0.00000000000E+00  0.28034396550E+03  0.28034396550E+03  0.00000000000E+00 0.  1.
         22   -1    0    0    0    0 -0.00000000000E+00 -0.00000000000E+00 -0.35414195508E+03  0.35414195508E+03  0.00000000000E+00 0. -1.
        -24    2    1    2    0    0 -0.22674974436E+01  0.26355028981E+02 -0.21563934517E+03  0.23073965695E+03  0.77722152603E+02 0.  0.
         25    2    1    2    0    0  0.53576363620E+02  0.21168403124E+02 -0.77889654275E+02  0.15821676724E+03  0.12508884508E+03 0.  0.
         24    2    1    2    0    0 -0.51308866176E+02 -0.47523432106E+02  0.21973100987E+03  0.24552949639E+03  0.84332322092E+02 0.  0.
        -13    1    5    5    0    0 -0.48626935491E+02 -0.70352193352E+02  0.18590147194E+03  0.20462982978E+03  0.00000000000E+00 0.  1.
         14    1    5    5    0    0 -0.26819306852E+01  0.22828761246E+02  0.33829537934E+02  0.40899666613E+02  0.00000000000E+00 0. -1.
         11    1    3    3    0    0  0.22810781728E+02  0.23261399499E+02 -0.19612659609E+03  0.19881414980E+03  0.00000000000E+00 0. -1.
        -12    1    3    3    0    0 -0.25078279171E+02  0.30936294823E+01 -0.19512749085E+02  0.31925507144E+02  0.00000000000E+00 0.  1.
          5    1    4    4  501    0 -0.31108592049E+02 -0.92182799709E+01  0.80888705763E+01  0.33699012034E+02  0.41800000000E+01 0.  1.
         -5    1    4    4    0  501  0.84684955668E+02  0.30386683095E+02 -0.85978524852E+02  0.12451775521E+03  0.41800000000E+01 0.  1.
</event>
<event>
11    1  0.8039394E-009  0.1596491E+03  0.7561462E-02  0.1087408E+00
         22   -1    0    0    0    0  0.00000000000E+00  0.00000000000E+00  0.13438527267E+03  0.13438527267E+03  0.00000000000E+00 0.  1.
         22   -1    0    0    0    0 -0.00000000000E+00 -0.00000000000E+00 -0.85513288365E+03  0.85513288365E+03  0.00000000000E+00 0.  1.
        -24    2    1    2    0    0 -0.35405563594E+02  0.10637394193E+03 -0.61489403445E+03  0.63065892083E+03  0.84065637238E+02 0.  0.
         25    2    1    2    0    0  0.60970843191E+02 -0.38864875639E+02 -0.18634302030E+03  0.23579687322E+03  0.12509405234E+03 0.  0.
         24    2    1    2    0    0 -0.25565279598E+02 -0.67509066293E+02  0.80489443766E+02  0.12306236226E+03  0.58777009910E+02 0.  0.
        -13    1    5    5    0    0 -0.20300490845E+02 -0.16630486217E+02  0.64239286780E+02  0.69392859621E+02  0.00000000000E+00 0.  1.
         14    1    5    5    0    0 -0.52647887520E+01 -0.50878580076E+02  0.16250156986E+02  0.53669502636E+02  0.00000000000E+00 0. -1.
         11    1    3    3    0    0 -0.26027158089E+02  0.67122612497E+02 -0.17950339947E+03  0.19340198678E+03  0.00000000000E+00 0. -1.
        -12    1    3    3    0    0 -0.93784055044E+01  0.39251329435E+02 -0.43539063497E+03  0.43725693405E+03  0.00000000000E+00 0.  1.
          5    1    4    4  501    0  0.27014036618E+01 -0.64944134195E+02 -0.14676246027E+03  0.16056690285E+03  0.41800000000E+01 0. -1.
         -5    1    4    4    0  501  0.58269439529E+02  0.26079258556E+02 -0.39580560032E+02  0.75229970373E+02  0.41800000000E+01 0. -1.
</event>
<event>
11    1  0.8039394E-009  0.1635488E+03  0.7561462E-02  0.1083786E+00
         22   -1    0    0    0    0  0.00000000000E+00  0.00000000000E+00  0.64769111944E+03  0.64769111944E+03  0.00000000000E+00 0. -1.
         22   -1    0    0    0    0 -0.00000000000E+00 -0.00000000000E+00 -0.59079042547E+03  0.59079042547E+03  0.00000000000E+00 0. -1.
        -24    2    1    2    0    0  0.16620638246E+01 -0.89212173567E+00 -0.52423620498E+03  0.53057873151E+03  0.81771837301E+02 0.  0.
         25    2    1    2    0    0 -0.95144874274E+02 -0.47396425661E+02  0.67546168671E+02  0.17750774213E+03  0.12509014888E+03 0.  0.
         24    2    1    2    0    0  0.93482810450E+02  0.48288547396E+02  0.51359073029E+03  0.53039507127E+03  0.80452928685E+02 0.  0.
        -11    1    5    5    0    0  0.39446269038E+01  0.32117649757E+02  0.64292213451E+02  0.71976330955E+02  0.00000000000E+00 0.  1.
         12    1    5    5    0    0  0.89538183546E+02  0.16170897640E+02  0.44929851683E+03  0.45841874032E+03  0.00000000000E+00 0. -1.
         13    1    3    3    0    0  0.77250711924E+00  0.28327234712E+02 -0.44853494265E+03  0.44942921998E+03  0.00000000000E+00 0. -1.
        -14    1    3    3    0    0  0.88955670533E+00 -0.29219356448E+02 -0.75701262337E+02  0.81149511532E+02  0.00000000000E+00 0.  1.
          5    1    4    4  501    0 -0.12387744160E+03 -0.28689321274E+02  0.65017519119E+02  0.14287563783E+03  0.41800000000E+01 0.  1.
         -5    1    4    4    0  501  0.28732567327E+02 -0.18707104387E+02  0.25286495515E+01  0.34632104300E+02  0.41800000000E+01 0.  1.
</event>
<event>
11    1  0.8039394E-009  0.1415552E+03  0.7561462E-02  0.1105834E+00
         22   -1    0    0    0    0  0.00000000000E+00  0.00000000000E+00  0.91746261967E+03  0.91746261967E+03  0.00000000000E+00 0. -1.
         22   -1    0    0    0    0 -0.00000000000E+00 -0.00000000000E+00 -0.45053339986E+03  0.45053339986E+03  0.00000000000E+00 0.  1.
        -24    2    1    2    0    0  0.14057825929E+02 -0.38555856615E+02 -0.37694595095E+03  0.38720232095E+03  0.78442404750E+02 0.  0.
         25    2    1    2    0    0  0.50848037254E+02  0.52979572372E+02  0.15447321220E+02  0.14586998500E+03  0.12508826807E+03 0.  0.
         24    2    1    2    0    0 -0.64905863183E+02 -0.14423715758E+02  0.82842784955E+03  0.83492371358E+03  0.79900506532E+02 0.  0.
        -13    1    5    5    0    0  0.74766642519E+01  0.21536931325E+02  0.21110711646E+03  0.21233453450E+03  0.00000000000E+00 0.  1.
         14    1    5    5    0    0 -0.72382527435E+02 -0.35960647082E+02  0.61732073308E+03  0.62258917908E+03  0.00000000000E+00 0. -1.
         13    1    3    3    0    0  0.18374987816E+02 -0.16535146282E+02 -0.27266962148E+02  0.36804055002E+02  0.00000000000E+00 0. -1.
        -14    1    3    3    0    0 -0.43171618869E+01 -0.22020710333E+02 -0.34967898881E+03  0.35039826595E+03  0.00000000000E+00 0.  1.
          5    1    4    4  501    0  0.81112005000E+02  0.44411284479E+02  0.44625180236E+02  0.10276380032E+03  0.41800000000E+01 0. -1.
         -5    1    4    4    0  501 -0.30263967746E+02  0.85682878939E+01 -0.29177859016E+02  0.43106184683E+02  0.41800000000E+01 0. -1.
</event>
<event>
11    1  0.8039394E-009  0.1714880E+03  0.7561462E-02  0.1076744E+00
         22   -1    0    0    0    0  0.00000000000E+00  0.00000000000E+00  0.10951517089E+04  0.10951517089E+04  0.00000000000E+00 0. -1.
         22   -1    0    0    0    0 -0.00000000000E+00 -0.00000000000E+00 -0.12296586705E+03  0.12296586705E+03  0.00000000000E+00 0.  1.
         24    2    1    2    0    0  0.44865469396E+02 -0.52372414711E+02 -0.52282052703E+02  0.12087789186E+03  0.84393551518E+02 0.  0.
         25    2    1    2    0    0  0.34676486930E+02 -0.49828533498E+02  0.13147120754E+03  0.19135535441E+03  0.12508737648E+03 0.  0.
        -24    2    1    2    0    0 -0.79541956325E+02  0.10220094821E+03  0.89299668702E+03  0.90588432969E+03  0.80071087877E+02 0.  0.
        -11    1    3    3    0    0  0.41508860178E+02 -0.31664841626E+02 -0.74078013064E+02  0.90626705159E+02  0.00000000000E+00 0.  1.
         12    1    3    3    0    0  0.33566092175E+01 -0.20707573085E+02  0.21795960361E+02  0.30251186697E+02  0.00000000000E+00 0. -1.
         11    1    5    5    0    0 -0.77371738676E+02  0.94979943410E+02  0.88890246049E+03  0.89730438529E+03  0.00000000000E+00 0. -1.
        -12    1    5    5    0    0 -0.21702176496E+01  0.72210047989E+01  0.40942265267E+01  0.85799443940E+01  0.00000000000E+00 0.  1.
          5    1    4    4  501    0  0.31272609283E+02 -0.22230028358E+02 -0.15593287362E+02  0.41626593218E+02  0.41800000000E+01 0. -1.
         -5    1    4    4    0  501  0.34038776464E+01 -0.27598505140E+02  0.14706449490E+03  0.14972876120E+03  0.41800000000E+01 0. -1.
</event>
<event>
11    1  0.8039394E-009  0.1628389E+03  0.7561462E-02  0.1084437E+00
         22   -1    0    0    0    0  0.00000000000E+00  0.00000000000E+00  0.27782697487E+03  0.27782697487E+03  0.00000000000E+00 0. -1.
         22   -1    0    0    0    0 -0.00000000000E+00 -0.00000000000E+00 -0.23199562397E+04  0.23199562397E+04  0.00000000000E+00 0. -1.
         24    2    1    2    0    0 -0.66941424443E+00  0.16322715799E+02 -0.22117940395E+04  0.22134152705E+04  0.83110815203E+02 0.  0.
         25    2    1    2    0    0  0.44816916524E+02 -0.10704172948E+03  0.41083006516E+01  0.17067603297E+03  0.12508773817E+03 0.  0.
        -24    2    1    2    0    0 -0.44147502280E+02  0.90719013683E+02  0.16555647401E+03  0.21369191105E+03  0.89868489262E+02 0.  0.
        -13    1    3    3    0    0  0.32291865970E+02  0.22705267511E+02 -0.61352277880E+03  0.61479142308E+03  0.00000000000E+00 0.  1.
         14    1    3    3    0    0 -0.32961280214E+02 -0.63825517112E+01 -0.15982712607E+04  0.15986238475E+04  0.00000000000E+00 0. -1.
         11    1    5    5    0    0 -0.16456773713E+02  0.29575451993E+02  0.13635591287E+03  0.14049365728E+03  0.00000000000E+00 0. -1.
        -12    1    5    5    0    0 -0.27690728567E+02  0.61143561690E+02  0.29200561140E+02  0.73198253774E+02  0.00000000000E+00 0.  1.
          5    1    4    4  501    0 -0.43721867425E+02 -0.34383813973E+02 -0.28649800383E+01  0.55852742682E+02  0.41800000000E+01 0.  1.
         -5    1    4    4    0  501  0.88538783950E+02 -0.72657915509E+02  0.69732806899E+01  0.11482329029E+03  0.41800000000E+01 0.  1.
</event>
<event>
11    1  0.8039394E-009  0.1471451E+03  0.7561462E-02  0.1099832E+00
         22   -1    0    0    0    0  0.00000000000E+00  0.00000000000E+00  0.31915696877E+03  0.31915696877E+03  0.00000000000E+00 0. -1.
         22   -1    0    0    0    0 -0.00000000000E+00 -0.00000000000E+00 -0.99642239971E+03  0.99642239971E+03  0.00000000000E+00 0. -1.
         24    2    1    2    0    0 -0.42026816580E+02 -0.55372516636E+02 -0.83845434451E+03  0.84518141809E+03  0.80582707449E+02 0.  0.
         25    2    1    2    0    0 -0.37012654939E+02  0.66877164964E+02 -0.10541245996E+03  0.18056173742E+03  0.12509301534E+03 0.  0.
        -24    2    1    2    0    0  0.79039471518E+02 -0.11504648327E+02  0.26660137353E+03  0.28983621297E+03  0.80926775464E+02 0.  0.
        -13    1    3    3    0    0 -0.55901118425E+02 -0.59323607382E+02 -0.51546632710E+03  0.52187140160E+03  0.00000000000E+00 0.  1.
         14    1    3    3    0    0  0.13874301846E+02  0.39510907453E+01 -0.32298801741E+03  0.32331001648E+03  0.00000000000E+00 0. -1.
         13    1    5    5    0    0  0.91488550131E+02 -0.61484633124E+01  0.17825582849E+03  0.20045722435E+03  0.00000000000E+00 0. -1.
        -14    1    5    5    0    0 -0.12449078612E+02 -0.53561850148E+01  0.88345545045E+02  0.89378988613E+02  0.00000000000E+00 0.  1.
          5    1    4    4  501    0 -0.14162416746E+02  0.48702182744E+02 -0.13161350668E+03  0.14111011371E+03  0.41800000000E+01 0. -1.
         -5    1    4    4    0  501 -0.22850238193E+02  0.18174982219E+02  0.26201046719E+02  0.39451623710E+02  0.41800000000E+01 0. -1.
</event>
<event>
11    1  0.8039394E-009  0.1427827E+03  0.7561462E-02  0.1104490E+00
         22   -1    0    0    0    0  0.00000000000E+00  0.00000000000E+00  0.89121858362E+03  0.89121858362E+03  0.00000000000E+00 0. -1.
         22   -1    0    0    0    0 -0.00000000000E+00 -0.00000000000E+00 -0.22946554430E+04  0.22946554430E+04  0.00000000000E+00 0.  1.
        -24    2    1    2    0    0 -0.71959862250E+02 -0.34161421563E+01 -0.18483087355E+04  0.18514335648E+04  0.79819617614E+02 0.  0.
         25    2    1    2    0    0  0.47430560937E+02  0.11759661767E+02 -0.43262677961E+03  0.45299122636E+03  0.12508866042E+03 0.  0.
         24    2    1    2    0    0  0.24529301314E+02 -0.83435196111E+01  0.87749865570E+03  0.88144923548E+03  0.79231073666E+02 0.  0.
        -13    1    5    5    0    0  0.20416929857E+02 -0.24021191872E+02  0.12975291434E+03  0.13352785277E+03  0.00000000000E+00 0.  1.
         14    1    5    5    0    0  0.41123714561E+01  0.15677672261E+02  0.74774574136E+03  0.74792138272E+03  0.00000000000E+00 0. -1.
         11    1    3    3    0    0 -0.26648705101E+01  0.12441102136E+02 -0.46104028354E+02  0.47827439694E+02  0.00000000000E+00 0. -1.
        -12    1    3    3    0    0 -0.69294991740E+02 -0.15857244293E+02 -0.18022047072E+04  0.18036061251E+04  0.00000000000E+00 0.  1.
          5    1    4    4  501    0  0.69839024138E+02 -0.33448822177E+01 -0.11832818232E+03  0.13750530412E+03  0.41800000000E+01 0.  1.
         -5    1    4    4    0  501 -0.22408463201E+02  0.15104543985E+02 -0.31429859729E+03  0.31548592224E+03  0.41800000000E+01 0.  1.
</event>
<event>
11    1  0.8039394E-009  0.1285622E+03  0.7561462E-02  0.1121048E+00
         22   -1    0    0    0    0  0.00000000000E+00  0.00000000000E+00  0.68358278174E+03  0.68358278174E+03  0.00000000000E+00 0.  1.
         22   -1    0    0    0    0 -0.00000000000E+00 -0.00000000000E+00 -0.68038791298E+03  0.68038791298E+03  0.00000000000E+00 0. -1.
        -24    2    1    2    0    0  0.21225069777E+01 -0.22185876797E+02 -0.59550448167E+03  0.60132389407E+03  0.80424621355E+02 0.  0.
         25    2    1    2    0    0 -0.26642747276E+02  0.37911631592E+02 -0.22475186582E+02  0.13528112138E+03  0.12509484400E+03 0.  0.
         24    2    1    2    0    0  0.24520240298E+02 -0.15725754795E+02  0.62117453702E+03  0.62736567928E+03  0.82953894130E+02 0.  0.
        -13    1    5    5    0    0  0.40217881861E+02 -0.25101948310E+02  0.58416620688E+03  0.58608680509E+03  0.00000000000E+00 0.  1.
         14    1    5    5    0    0 -0.15697641563E+02  0.93761935153E+01  0.37008330135E+02  0.41278874196E+02  0.00000000000E+00 0. -1.
         13    1    3    3    0    0  0.35806670253E+02 -0.18473507046E+01 -0.41677105574E+03  0.41831046274E+03  0.00000000000E+00 0. -1.
        -14    1    3    3    0    0 -0.33684163275E+02 -0.20338526093E+02 -0.17873342593E+03  0.18301343133E+03  0.00000000000E+00 0.  1.
          5    1    4    4  501    0  0.29210752410E+02  0.57520448132E+02 -0.36587529778E+02  0.74283172690E+02  0.41800000000E+01 0.  1.
         -5    1    4    4    0  501 -0.55853499686E+02 -0.19608816540E+02  0.14112343195E+02  0.60997948685E+02  0.41800000000E+01 0.  1.
</event>
<event>
11    1  0.8039394E-009  0.2115383E+03  0.7561462E-02  0.1046651E+00
         22   -1    0    0    0    0  0.00000000000E+00  0.00000000000E+00  0.13916011411E+04  0.13916011411E+04  0.00000000000E+00 0. -1.
         22   -1    0    0    0    0 -0.00000000000E+00 -0.00000000000E+00 -0.31560721052E+03  0.31560721052E+03  0.00000000000E+00 0. -1.
         24    2    1    2    0    0  0.14265477435E+02 -0.16962942863E+03 -0.23144028985E+03  0.29856990441E+03  0.81251050174E+02 0.  0.
         25    2    1    2    0    0 -0.50946462985E+02  0.16903487985E+03  0.19190049364E+03  0.28920807156E+03  0.12508867454E+03 0.  0.
        -24    2    1    2    0    0  0.36680985550E+02  0.59454877453E+00  0.11155337268E+04  0.11194303757E+04  0.85808053985E+02 0.  0.
        -13    1    3    3    0    0  0.28274236786E+02 -0.18064762076E+02 -0.64166520032E+02  0.72409325281E+02  0.00000000000E+00 0.  1.
         14    1    3    3    0    0 -0.14008759351E+02 -0.15156466655E+03 -0.16727376981E+03  0.22616057913E+03  0.00000000000E+00 0. -1.
         11    1    5    5    0    0  0.23656710940E+01  0.27216438371E+01  0.96553894338E+03  0.96554567728E+03  0.00000000000E+00 0. -1.
        -12    1    5    5    0    0  0.34315314456E+02 -0.21270950625E+01  0.14999478344E+03  0.15388469839E+03  0.00000000000E+00 0.  1.
          5    1    4    4  501    0 -0.28564630959E+02  0.12382616740E+03  0.20094044861E+03  0.23778854927E+03  0.41800000000E+01 0.  1.
         -5    1    4    4    0  501 -0.22381832026E+02  0.45208712451E+02 -0.90399549732E+01  0.51419522287E+02  0.41800000000E+01 0.  1.
</event>
<event>
11    1  0.8039394E-009  0.1405128E+03  0.7561462E-02  0.1106987E+00
         22   -1    0    0    0    0  0.00000000000E+00  0.00000000000E+00  0.56290517138E+03  0.56290517138E+03  0.00000000000E+00 0.  1.
         22   -1    0    0    0    0 -0.00000000000E+00 -0.00000000000E+00 -0.15841123028E+04  0.15841123028E+04  0.00000000000E+00 0.  1.
         24    2    1    2    0    0  0.22187154802E+02  0.33832778720E+02 -0.14616021242E+04  0.14644090994E+04  0.81094477051E+02 0.  0.
         25    2    1    2    0    0 -0.64416800517E+02  0.14849431136E+02 -0.72928248300E+02  0.15917141316E+03  0.12508788740E+03 0.  0.
        -24    2    1    2    0    0  0.42229645715E+02 -0.48682209856E+02  0.51332324104E+03  0.52343696165E+03  0.79575137386E+02 0.  0.
        -11    1    3    3    0    0  0.47657315873E+01  0.34681029502E+02 -0.13985748418E+04  0.13990128928E+04  0.00000000000E+00 0.  1.
         12    1    3    3    0    0  0.17421423214E+02 -0.84825078204E+00 -0.63027282308E+02  0.65396206552E+02  0.00000000000E+00 0. -1.
         11    1    5    5    0    0  0.33074823405E+02 -0.63129244024E+02  0.26162904195E+03  0.27116231483E+03  0.00000000000E+00 0. -1.
        -12    1    5    5    0    0  0.91548223097E+01  0.14447034168E+02  0.25169419910E+03  0.25227464682E+03  0.00000000000E+00 0.  1.
          5    1    4    4  501    0 -0.63760802047E+02  0.29386973510E+02  0.13339343122E+02  0.71585225883E+02  0.41800000000E+01 0. -1.
         -5    1    4    4    0  501 -0.65599846974E+00 -0.14537542374E+02 -0.86267591422E+02  0.87586187279E+02  0.41800000000E+01 0. -1.
</event>
<event>
11    1  0.8039394E-009  0.1418236E+03  0.7561462E-02  0.1105539E+00
         22   -1    0    0    0    0  0.00000000000E+00  0.00000000000E+00  0.26064336277E+03  0.26064336277E+03  0.00000000000E+00 0.  1.
         22   -1    0    0    0    0 -0.00000000000E+00 -0.00000000000E+00 -0.12349784019E+04  0.12349784019E+04  0.00000000000E+00 0.  1.
         24    2    1    2    0    0  0.60175700155E+02 -0.16305228834E+02 -0.79547995824E+03  0.80207123714E+03  0.81504172390E+02 0.  0.
         25    2    1    2    0    0 -0.93387995121E+02 -0.25474553237E+02 -0.41134870525E+03  0.44071106363E+03  0.12509282075E+03 0.  0.
        -24    2    1    2    0    0  0.33212294966E+02  0.41779782071E+02  0.23249362431E+03  0.25283946394E+03  0.83820656489E+02 0.  0.
        -11    1    3    3    0    0 -0.14251022926E+02  0.49138652962E+01 -0.31823515027E+03  0.31859197823E+03  0.00000000000E+00 0.  1.
         12    1    3    3    0    0  0.74426723081E+02 -0.21219094131E+02 -0.47724480797E+03  0.48347925891E+03  0.00000000000E+00 0. -1.
         13    1    5    5    0    0  0.36300968629E+02 -0.17297047727E+02  0.93345857523E+02  0.10163856207E+03  0.00000000000E+00 0. -1.
        -14    1    5    5    0    0 -0.30886736629E+01  0.59076829798E+02  0.13914776679E+03  0.15120090187E+03  0.00000000000E+00 0.  1.
          5    1    4    4  501    0 -0.11389106038E+03 -0.80010829682E+01 -0.38909138665E+03  0.40551790408E+03  0.41800000000E+01 0. -1.
         -5    1    4    4    0  501  0.20503065259E+02 -0.17473470269E+02 -0.22257318599E+02  0.35193159556E+02  0.41800000000E+01 0. -1.
</event>
<event>
11    1  0.8039394E-009  0.1498077E+03  0.7561462E-02  0.1097075E+00
         22   -1    0    0    0    0  0.00000000000E+00  0.00000000000E+00  0.15769680510E+03  0.15769680510E+03  0.00000000000E+00 0.  1.
         22   -1    0    0    0    0 -0.00000000000E+00 -0.00000000000E+00 -0.39211169501E+03  0.39211169501E+03  0.00000000000E+00 0.  1.
        -24    2    1    2    0    0 -0.50684792624E+02  0.67923316553E+02 -0.23046275684E+03  0.26358124175E+03  0.95809517158E+02 0.  0.
         25    2    1    2    0    0  0.47033519513E+02 -0.60505543722E+02 -0.86673959758E+02  0.17038293923E+03  0.12507956628E+03 0.  0.
         24    2    1    2    0    0  0.36512731103E+01 -0.74177728312E+01  0.82721826695E+02  0.11584431913E+03  0.80676207856E+02 0.  0.
        -11    1    5    5    0    0  0.23639229603E+02 -0.16720592917E+02  0.88447320436E+02  0.93066212430E+02  0.00000000000E+00 0.  1.
         12    1    5    5    0    0 -0.19987956492E+02  0.93028200859E+01 -0.57254937410E+01  0.22778106701E+02  0.00000000000E+00 0. -1.
         11    1    3    3    0    0  0.16521544643E+02  0.10672212779E+01 -0.25646861746E+01  0.16753447819E+02  0.00000000000E+00 0. -1.
        -12    1    3    3    0    0 -0.67206337267E+02  0.66856095275E+02 -0.22789807067E+03  0.24682779393E+03  0.00000000000E+00 0.  1.
          5    1    4    4  501    0  0.69361178392E+01 -0.12646446863E+02 -0.10429705556E+03  0.10537262713E+03  0.41800000000E+01 0.  1.
         -5    1    4    4    0  501  0.40097401674E+02 -0.47859096859E+02  0.17623095807E+02  0.65010312097E+02  0.41800000000E+01 0.  1.
</event>
<event>
11    1  0.8039394E-009  0.1414736E+03  0.7561462E-02  0.1105924E+00
         22   -1    0    0    0    0  0.00000000000E+00  0.00000000000E+00  0.66724832872E+03  0.66724832872E+03  0.00000000000E+00 0.  1.
         22   -1    0    0    0    0 -0.00000000000E+00 -0.00000000000E+00 -0.24397645353E+03  0.24397645353E+03  0.00000000000E+00 0. -1.
         24    2    1    2    0    0 -0.55127411188E+02  0.37938475547E+02 -0.20424951238E+03  0.22931819292E+03  0.79941296628E+02 0.  0.
         25    2    1    2    0    0  0.37091893579E+02 -0.39529979697E+02  0.17131107435E+03  0.21893805736E+03  0.12509180988E+03 0.  0.
        -24    2    1    2    0    0  0.18035517609E+02  0.15915041493E+01  0.45621031322E+03  0.46296853197E+03  0.76708532309E+02 0.  0.
        -11    1    3    3    0    0  0.56711523430E+01 -0.13809247780E+02 -0.81721695278E+02  0.83074019839E+02  0.00000000000E+00 0.  1.
         12    1    3    3    0    0 -0.60798563531E+02  0.51747723327E+02 -0.12252781710E+03  0.14624417308E+03  0.00000000000E+00 0. -1.
         13    1    5    5    0    0 -0.15254176806E+02  0.10106793168E+02  0.28426164867E+02  0.33806567812E+02  0.00000000000E+00 0. -1.
        -14    1    5    5    0    0  0.33289694415E+02 -0.85152890191E+01  0.42778414835E+03  0.42916196416E+03  0.00000000000E+00 0.  1.
          5    1    4    4  501    0  0.71941329188E+02 -0.49903227858E+02  0.15665863595E+03  0.17951403180E+03  0.41800000000E+01 0. -1.
         -5    1    4    4    0  501 -0.34849435609E+02  0.10373248161E+02  0.14652438400E+02  0.39424025552E+02  0.41800000000E+01 0. -1.
</event>
<event>
11    1  0.8039394E-009  0.3862473E+03  0.7561462E-02  0.9691231E-01
         22   -1    0    0    0    0  0.00000000000E+00  0.00000000000E+00  0.10047960368E+04  0.10047960368E+04  0.00000000000E+00 0. -1.
         22   -1    0    0    0    0 -0.00000000000E+00 -0.00000000000E+00 -0.47769015727E+03  0.47769015727E+03  0.00000000000E+00 0.  1.
         24    2    1    2    0    0 -0.21552493592E+02 -0.48822571151E+02 -0.31252510060E+03  0.32711531000E+03  0.80525363066E+02 0.  0.
         25    2    1    2    0    0 -0.14231347800E+03  0.36195549575E+03  0.30576833242E+03  0.51030106612E+03  0.12509195837E+03 0.  0.
        -24    2    1    2    0    0  0.16386597159E+03 -0.31313292460E+03  0.53386264772E+03  0.64506981797E+03  0.78749338457E+02 0.  0.
        -11    1    3    3    0    0 -0.49050211917E+02 -0.41135955944E+02 -0.16771214099E+03  0.17951449077E+03  0.00000000000E+00 0.  1.
         12    1    3    3    0    0  0.27497718325E+02 -0.76866152062E+01 -0.14481295961E+03  0.14760081923E+03  0.00000000000E+00 0. -1.
         11    1    5    5    0    0  0.15671151323E+03 -0.30944821185E+03  0.53429035205E+03  0.63701089040E+03  0.00000000000E+00 0. -1.
        -12    1    5    5    0    0  0.71544583648E+01 -0.36847127524E+01 -0.42770432926E+00  0.80589275685E+01  0.00000000000E+00 0.  1.
          5    1    4    4  501    0 -0.12641776617E+03  0.36727843300E+03  0.30333617596E+03  0.49285414374E+03  0.41800000000E+01 0.  1.
         -5    1    4    4    0  501 -0.15895711827E+02 -0.53229372552E+01  0.24321564607E+01  0.17446922381E+02  0.41800000000E+01 0.  1.
</event>
<event>
11    1  0.8039394E-009  0.2044410E+03  0.7561462E-02  0.1051427E+00
         22   -1    0    0    0    0  0.00000000000E+00  0.00000000000E+00  0.38748409018E+03  0.38748409018E+03  0.00000000000E+00 0. -1.
         22   -1    0    0    0    0 -0.00000000000E+00 -0.00000000000E+00 -0.14660990889E+04  0.14660990889E+04  0.00000000000E+00 0. -1.
         24    2    1    2    0    0  0.15112407474E+03  0.61584158788E+02 -0.13217829072E+04  0.13355258446E+04  0.99439093781E+02 0.  0.
         25    2    1    2    0    0 -0.14823505978E+03 -0.22205291199E+02 -0.58318670659E+02  0.20375313247E+03  0.12509022239E+03 0.  0.
        -24    2    1    2    0    0 -0.28890149526E+01 -0.39378867589E+02  0.30148657917E+03  0.31430420194E+03  0.79586005821E+02 0.  0.
        -13    1    3    3    0    0  0.85375940778E+02 -0.94626037012E+01 -0.42935763541E+03  0.43786592836E+03  0.00000000000E+00 0.  1.
         14    1    3    3    0    0  0.65748133959E+02  0.71046762490E+02 -0.89242527177E+03  0.89765991626E+03  0.00000000000E+00 0. -1.
         13    1    5    5    0    0  0.29219290474E+02 -0.44286411003E+02  0.22566247118E+03  0.23181588391E+03  0.00000000000E+00 0. -1.
        -14    1    5    5    0    0 -0.32108305427E+02  0.49075434138E+01  0.75824107988E+02  0.82488318033E+02  0.00000000000E+00 0.  1.
          5    1    4    4  501    0 -0.15713936937E+03  0.12048150541E+02 -0.58372236404E+02  0.16811522751E+03  0.41800000000E+01 0.  1.
         -5    1    4    4    0  501  0.89043095898E+01 -0.34253441740E+02  0.53565744368E-01  0.35637904955E+02  0.41800000000E+01 0.  1.
</event>
<event>
11    1  0.8039394E-009  0.3027297E+03  0.7561462E-02  0.9990425E-01
         22   -1    0    0    0    0  0.00000000000E+00  0.00000000000E+00  0.54616276033E+03  0.54616276033E+03  0.00000000000E+00 0.  1.
         22   -1    0    0    0    0 -0.00000000000E+00 -0.00000000000E+00 -0.25746124348E+04  0.25746124348E+04  0.00000000000E+00 0. -1.
        -24    2    1    2    0    0  0.47551141026E+02  0.93265580844E+02 -0.22579456121E+04  0.22617195574E+04  0.78085780730E+02 0.  0.
         25    2    1    2    0    0  0.22088748471E+03 -0.16690089701E+03 -0.18332093320E+03  0.35482252004E+03  0.12508103714E+03 0.  0.
         24    2    1    2    0    0 -0.26843862574E+03  0.73635316165E+02  0.41281687088E+03  0.50423311772E+03  0.79698259408E+02 0.  0.
        -11    1    5    5    0    0 -0.95910451227E+02  0.55894519216E+02  0.20865773544E+03  0.23634944995E+03  0.00000000000E+00 0.  1.
         12    1    5    5    0    0 -0.17252817451E+03  0.17740796950E+02  0.20415913544E+03  0.26788366777E+03  0.00000000000E+00 0. -1.
         11    1    3    3    0    0  0.36000644616E+02  0.35875682723E+02 -0.16901718292E+04  0.16909358129E+04  0.00000000000E+00 0. -1.
        -12    1    3    3    0    0  0.11550496410E+02  0.57389898121E+02 -0.56777378294E+03  0.57078374449E+03  0.00000000000E+00 0.  1.
          5    1    4    4  501    0  0.40679390339E+02  0.58385539890E+01  0.56690272311E+01  0.41695464751E+02  0.41800000000E+01 0.  1.
         -5    1    4    4    0  501  0.18020809437E+03 -0.17273945100E+03 -0.18898996043E+03  0.31312705528E+03  0.41800000000E+01 0.  1.
</event>
<event>
11    1  0.8039394E-009  0.2541488E+03  0.7561462E-02  0.1021712E+00
         22   -1    0    0    0    0  0.00000000000E+00  0.00000000000E+00  0.23200593463E+03  0.23200593463E+03  0.00000000000E+00 0. -1.
         22   -1    0    0    0    0 -0.00000000000E+00 -0.00000000000E+00 -0.20535726040E+04  0.20535726040E+04  0.00000000000E+00 0. -1.
         24    2    1    2    0    0  0.20026293521E+03 -0.10862675323E+03 -0.14666830574E+04  0.14864144879E+04  0.79773580492E+02 0.  0.
         25    2    1    2    0    0 -0.22570574230E+03 -0.10644656969E+02 -0.51888274027E+03  0.57960624922E+03  0.12509082763E+03 0.  0.
        -24    2    1    2    0    0  0.25442807093E+02  0.11927141020E+03  0.16399912835E+03  0.21955780148E+03  0.80230345669E+02 0.  0.
        -13    1    3    3    0    0  0.12088559272E+03 -0.84274293767E+02 -0.70611590332E+03  0.72132874062E+03  0.00000000000E+00 0.  1.
         14    1    3    3    0    0  0.79377342481E+02 -0.24352459467E+02 -0.76056715411E+03  0.76508574728E+03  0.00000000000E+00 0. -1.
         13    1    5    5    0    0  0.19301856601E+02  0.14281939437E+02  0.84156404383E+02  0.87514775101E+02  0.00000000000E+00 0. -1.
        -14    1    5    5    0    0  0.61409504917E+01  0.10498947077E+03  0.79842723970E+02  0.13204302638E+03  0.00000000000E+00 0.  1.
          5    1    4    4  501    0 -0.52453930805E+02 -0.46955553914E+02 -0.81707293363E+02  0.10793420722E+03  0.41800000000E+01 0. -1.
         -5    1    4    4    0  501 -0.17325181149E+03  0.36310896945E+02 -0.43717544691E+03  0.47167204200E+03  0.41800000000E+01 0. -1.
</event>
<event>
11    1  0.8039394E-009  0.1319623E+03  0.7561462E-02  0.1116881E+00
         22   -1    0    0    0    0  0.00000000000E+00  0.00000000000E+00  0.25861863662E+04  0.25861863662E+04  0.00000000000E+00 0. -1.
         22   -1    0    0    0    0 -0.00000000000E+00 -0.00000000000E+00 -0.83322674250E+02  0.83322674250E+02  0.00000000000E+00 0. -1.
        -24    2    1    2    0    0 -0.98371364355E+01  0.34781330576E+02 -0.30801517177E+02  0.96935234627E+02  0.84505597696E+02 0.  0.
         25    2    1    2    0    0  0.10435771436E+02  0.88581872115E+01  0.19492683568E+03  0.23201644341E+03  0.12509111054E+03 0.  0.
         24    2    1    2    0    0 -0.59863500054E+00 -0.43639517788E+02  0.23387383734E+04  0.23405573624E+04  0.81282356344E+02 0.  0.
        -13    1    5    5    0    0  0.36474793880E+02 -0.40935764691E+02  0.14783858888E+04  0.14794022386E+04  0.00000000000E+00 0.  1.
         14    1    5    5    0    0 -0.37073428880E+02 -0.27037530965E+01  0.86035248461E+03  0.86115512377E+03  0.00000000000E+00 0. -1.
         13    1    3    3    0    0  0.11462476026E+02  0.58619017599E+02 -0.23199353608E+02  0.64076419912E+02  0.00000000000E+00 0. -1.
        -14    1    3    3    0    0 -0.21299612461E+02 -0.23837687022E+02 -0.76021635691E+01  0.32858814716E+02  0.00000000000E+00 0.  1.
          5    1    4    4  501    0  0.44580930766E+02 -0.16442910307E+02  0.18087854282E+03  0.18706241830E+03  0.41800000000E+01 0.  1.
         -5    1    4    4    0  501 -0.34145159330E+02  0.25301097518E+02  0.14048292864E+02  0.44954025111E+02  0.41800000000E+01 0.  1.
</event>
<event>
11    1  0.8039394E-009  0.1664042E+03  0.7561462E-02  0.1081204E+00
         22   -1    0    0    0    0  0.00000000000E+00  0.00000000000E+00  0.90939125663E+03  0.90939125663E+03  0.00000000000E+00 0.  1.
         22   -1    0    0    0    0 -0.00000000000E+00 -0.00000000000E+00 -0.12552078511E+04  0.12552078511E+04  0.00000000000E+00 0. -1.
        -24    2    1    2    0    0 -0.49620269633E+02 -0.97567156424E+02 -0.12095908446E+04  0.12172575745E+04  0.81390848139E+02 0.  0.
         25    2    1    2    0    0  0.81612165615E+02  0.98490124026E+02  0.16499116614E+03  0.24337128695E+03  0.12508656323E+03 0.  0.
         24    2    1    2    0    0 -0.31991895981E+02 -0.92296760181E+00  0.69878308395E+03  0.70397024632E+03  0.79069437929E+02 0.  0.
        -13    1    5    5    0    0  0.98319519888E+00  0.84782500824E+01  0.58664105219E+03  0.58670313747E+03  0.00000000000E+00 0.  1.
         14    1    5    5    0    0 -0.32975091180E+02 -0.94012176842E+01  0.11214203175E+03  0.11726710885E+03  0.00000000000E+00 0. -1.
         13    1    3    3    0    0 -0.35637690579E+02 -0.68336160426E+02 -0.42068168409E+03  0.42768324160E+03  0.00000000000E+00 0. -1.
        -14    1    3    3    0    0 -0.13982579054E+02 -0.29230995998E+02 -0.78890916048E+03  0.78957433287E+03  0.00000000000E+00 0.  1.
          5    1    4    4  501    0  0.14416834953E+02 -0.73602769648E+01  0.10132145250E+03  0.10269142098E+03  0.41800000000E+01 0. -1.
         -5    1    4    4    0  501  0.67195330662E+02  0.10585040099E+03  0.63669713639E+02  0.14067986596E+03  0.41800000000E+01 0. -1.
</event>
<event>
11    1  0.8039394E-009  0.2698889E+03  0.7561462E-02  0.1013807E+00
         22   -1    0    0    0    0  0.00000000000E+00  0.00000000000E+00  0.62107235879E+03  0.62107235879E+03  0.00000000000E+00 0.  1.
         22   -1    0    0    0    0 -0.00000000000E+00 -0.00000000000E+00 -0.90917861081E+03  0.90917861081E+03  0.00000000000E+00 0.  1.
        -24    2    1    2    0    0  0.21188134365E+03 -0.65741295788E+02 -0.57474409764E+03  0.62057103551E+03  0.74578888314E+02 0.  0.
         25    2    1    2    0    0 -0.28125849968E+03  0.13475191093E+03 -0.21035780192E+03  0.39643742841E+03  0.12509120141E+03 0.  0.
         24    2    1    2    0    0  0.69377156025E+02 -0.69010615137E+02  0.49699564754E+03  0.51324250568E+03  0.82689426052E+02 0.  0.
        -13    1    5    5    0    0  0.50908199067E+02 -0.65180271646E+02  0.48227772751E+03  0.48931780981E+03  0.00000000000E+00 0.  1.
         14    1    5    5    0    0  0.18468956958E+02 -0.38303434916E+01  0.14717920028E+02  0.23924695867E+02  0.00000000000E+00 0. -1.
         11    1    3    3    0    0  0.17357557131E+02 -0.12099125242E+01 -0.10652015796E+02  0.20401326388E+02  0.00000000000E+00 0. -1.
        -12    1    3    3    0    0  0.19452378652E+03 -0.64531383264E+02 -0.56409208185E+03  0.60016970913E+03  0.00000000000E+00 0.  1.
          5    1    4    4  501    0 -0.25588957648E+03  0.74112300737E+02 -0.19086483134E+03  0.32774832526E+03  0.41800000000E+01 0. -1.
         -5    1    4    4    0  501 -0.25368923204E+02  0.60639610189E+02 -0.19492970581E+02  0.68689103142E+02  0.41800000000E+01 0. -1.
</event>
<event>
11    1  0.8039394E-009  0.1475358E+03  0.7561462E-02  0.1099424E+00
         22   -1    0    0    0    0  0.00000000000E+00  0.00000000000E+00  0.83065002921E+03  0.83065002921E+03  0.00000000000E+00 0. -1.
         22   -1    0    0    0    0 -0.00000000000E+00 -0.00000000000E+00 -0.98073420516E+03  0.98073420516E+03  0.00000000000E+00 0. -1.
         24    2    1    2    0    0 -0.26156332558E+02 -0.73153608267E+02 -0.88397465671E+03  0.89121583327E+03  0.82576410825E+02 0.  0.
         25    2    1    2    0    0  0.57875574195E+02  0.70920473476E+02 -0.24319503176E+02  0.15694019443E+03  0.12513788693E+03 0.  0.
        -24    2    1    2    0    0 -0.31719241638E+02  0.22331347906E+01  0.75820998394E+03  0.76322820667E+03  0.81386844955E+02 0.  0.
        -11    1    3    3    0    0 -0.18527213914E+02 -0.18954549137E+02 -0.62090450381E+02  0.67511159203E+02  0.00000000000E+00 0.  1.
         12    1    3    3    0    0 -0.76291186437E+01 -0.54199059129E+02 -0.82188420633E+03  0.82370467407E+03  0.00000000000E+00 0. -1.
         11    1    5    5    0    0 -0.29182535775E+02  0.20454170649E+02  0.71936439582E+03  0.72024657407E+03  0.00000000000E+00 0. -1.
        -12    1    5    5    0    0 -0.25367058630E+01 -0.18221035859E+02  0.38845588121E+02  0.42981632599E+02  0.00000000000E+00 0.  1.
          5    1    4    4  501    0  0.70381115909E+02 -0.58002091961E+01  0.10757981577E+02  0.71556624228E+02  0.41800000000E+01 0. -1.
         -5    1    4    4    0  501 -0.12505541714E+02  0.76720682672E+02 -0.35077484753E+02  0.85383570198E+02  0.41800000000E+01 0. -1.
</event>
<event>
11    1  0.8039394E-009  0.2606416E+03  0.7561462E-02  0.1018378E+00
         22   -1    0    0    0    0  0.00000000000E+00  0.00000000000E+00  0.16008811372E+04  0.16008811372E+04  0.00000000000E+00 0.  1.
         22   -1    0    0    0    0 -0.00000000000E+00 -0.00000000000E+00 -0.51568273245E+03  0.51568273245E+03  0.00000000000E+00 0. -1.
         24    2    1    2    0    0 -0.50123493478E+02 -0.22444699479E+03 -0.45984908325E+03  0.52219373359E+03  0.91303329419E+02 0.  0.
         25    2    1    2    0    0  0.65115785830E+02  0.19255272211E+03  0.60618988780E+03  0.65148330207E+03  0.12509075289E+03 0.  0.
        -24    2    1    2    0    0 -0.14992292352E+02  0.31894272679E+02  0.93885760017E+03  0.94288683396E+03  0.79623958671E+02 0.  0.
        -11    1    3    3    0    0 -0.36167326227E+02 -0.17786086529E+02 -0.74260689491E+02  0.84493019617E+02  0.00000000000E+00 0.  1.
         12    1    3    3    0    0 -0.13956167251E+02 -0.20666090826E+03 -0.38558839376E+03  0.43770071397E+03  0.00000000000E+00 0. -1.
         11    1    5    5    0    0  0.20248082666E+02  0.35691753926E+02  0.27098450384E+03  0.27407387229E+03  0.00000000000E+00 0. -1.
        -12    1    5    5    0    0 -0.35240375017E+02 -0.37974812470E+01  0.66787309633E+03  0.66881296167E+03  0.00000000000E+00 0.  1.
          5    1    4    4  501    0 -0.16108931722E+02  0.59391746444E+02  0.31639867894E+03  0.32235457754E+03  0.41800000000E+01 0.  1.
         -5    1    4    4    0  501  0.81224717553E+02  0.13316097567E+03  0.28979120886E+03  0.32912872453E+03  0.41800000000E+01 0.  1.
</event>
<event>
11    1  0.8039394E-009  0.1415207E+03  0.7561462E-02  0.1105872E+00
         22   -1    0    0    0    0  0.00000000000E+00  0.00000000000E+00  0.85257000314E+03  0.85257000314E+03  0.00000000000E+00 0.  1.
         22   -1    0    0    0    0 -0.00000000000E+00 -0.00000000000E+00 -0.36401862038E+03  0.36401862038E+03  0.00000000000E+00 0. -1.
        -24    2    1    2    0    0 -0.42363118039E+01 -0.31656715962E+02 -0.31703148073E+03  0.33037929448E+03  0.87300770021E+02 0.  0.
         25    2    1    2    0    0  0.38132929106E+02 -0.27977234086E+02  0.86303676217E+02  0.15916809475E+03  0.12509721000E+03 0.  0.
         24    2    1    2    0    0 -0.33896617303E+02  0.59633950048E+02  0.71927918728E+03  0.72704123428E+03  0.80754061417E+02 0.  0.
        -11    1    5    5    0    0 -0.27356969308E+02  0.74088174973E+02  0.68157170425E+03  0.68613223906E+03  0.00000000000E+00 0.  1.
         12    1    5    5    0    0 -0.65396479949E+01 -0.14454224925E+02  0.37707483022E+02  0.40908995220E+02  0.00000000000E+00 0. -1.
         13    1    3    3    0    0 -0.39690793551E+02 -0.20534585379E+02 -0.24788720780E+03  0.25188310003E+03  0.00000000000E+00 0. -1.
        -14    1    3    3    0    0  0.35454481747E+02 -0.11122130583E+02 -0.69144272923E+02  0.78496194448E+02  0.00000000000E+00 0.  1.
          5    1    4    4  501    0  0.22992424649E+02 -0.23205741253E+02  0.11851996001E+03  0.12301061474E+03  0.41800000000E+01 0.  1.
         -5    1    4    4    0  501  0.15140504458E+02 -0.47714928329E+01 -0.32216283795E+02  0.36157480010E+02  0.41800000000E+01 0.  1.
</event>
<event>
11    1  0.8039394E-009  0.1529261E+03  0.7561462E-02  0.1093926E+00
         22   -1    0    0    0    0  0.00000000000E+00  0.00000000000E+00  0.17202877500E+03  0.17202877500E+03  0.00000000000E+00 0.  1.
         22   -1    0    0    0    0 -0.00000000000E+00 -0.00000000000E+00 -0.10023972601E+04  0.10023972601E+04  0.00000000000E+00 0.  1.
         24    2    1    2    0    0  0.56824775244E+02 -0.67340133782E+02 -0.80470047503E+03  0.81347464511E+03  0.80214680790E+02 0.  0.
         25    2    1    2    0    0  0.11547323899E+02  0.11818814786E+03 -0.12014353904E+03  0.21019882386E+03  0.12508915457E+03 0.  0.
        -24    2    1    2    0    0 -0.68372099143E+02 -0.50848014083E+02  0.94475528933E+02  0.15075256619E+03  0.80873024970E+02 0.  0.
        -13    1    3    3    0    0  0.48619345656E+02 -0.83428070357E+02 -0.74095051062E+03  0.74721599480E+03  0.00000000000E+00 0.  1.
         14    1    3    3    0    0  0.82054295886E+01  0.16087936575E+02 -0.63749964414E+02  0.66258650309E+02  0.00000000000E+00 0. -1.
         13    1    5    5    0    0  0.99888292263E+01 -0.31405644892E+02  0.11308107755E+02  0.34841993935E+02  0.00000000000E+00 0. -1.
        -14    1    5    5    0    0 -0.78360928369E+02 -0.19442369191E+02  0.83167421178E+02  0.11591057225E+03  0.00000000000E+00 0.  1.
          5    1    4    4  501    0 -0.43195444029E+02  0.10922674083E+02 -0.61844854617E+02  0.76337472034E+02  0.41800000000E+01 0. -1.
         -5    1    4    4    0  501  0.54742767927E+02  0.10726547378E+03 -0.58298684426E+02  0.13386135182E+03  0.41800000000E+01 0. -1.
</event>
<event>
11    1  0.8039394E-009  0.1519790E+03  0.7561462E-02  0.1094874E+00
         22   -1    0    0    0    0  0.00000000000E+00  0.00000000000E+00  0.19069150032E+03  0.19069150032E+03  0.00000000000E+00 0.  1.
         22   -1    0    0    0    0 -0.00000000000E+00 -0.00000000000E+00 -0.94134894142E+03  0.94134894142E+03  0.00000000000E+00 0. -1.
        -24    2    1    2    0    0  0.75950213626E+02  0.29925228991E+02 -0.67476898391E+03  0.68649183486E+03  0.96404893099E+02 0.  0.
         25    2    1    2    0    0 -0.10868300469E+03 -0.19329438888E+02 -0.22051888016E+03  0.27651664810E+03  0.12508899813E+03 0.  0.
         24    2    1    2    0    0  0.32732791060E+02 -0.10595790103E+02  0.14463042297E+03  0.16903195878E+03  0.80437164681E+02 0.  0.
        -13    1    5    5    0    0  0.66146955802E+01 -0.42474161502E+02  0.50777026348E+02  0.66529053786E+02  0.00000000000E+00 0.  1.
         14    1    5    5    0    0  0.26118095480E+02  0.31878371400E+02  0.93853396622E+02  0.10250290499E+03  0.00000000000E+00 0. -1.
         13    1    3    3    0    0  0.40829391076E+02 -0.32017017992E+02 -0.36334972219E+03  0.36703562392E+03  0.00000000000E+00 0. -1.
        -14    1    3    3    0    0  0.35120822549E+02  0.61942246983E+02 -0.31141926172E+03  0.31945621094E+03  0.00000000000E+00 0.  1.
          5    1    4    4  501    0 -0.85191033070E+02 -0.38164025133E+01 -0.23093313607E+03  0.24621060655E+03  0.41800000000E+01 0. -1.
         -5    1    4    4    0  501 -0.23491971616E+02 -0.15513036375E+02  0.10414255911E+02  0.30306041545E+02  0.41800000000E+01 0. -1.
</event>
<event>
11    1  0.8039394E-009  0.1263190E+03  0.7561462E-02  0.1123876E+00
         22   -1    0    0    0    0  0.00000000000E+00  0.00000000000E+00  0.13412208907E+04  0.13412208907E+04  0.00000000000E+00 0. -1.
         22   -1    0    0    0    0 -0.00000000000E+00 -0.00000000000E+00 -0.11249650819E+03  0.11249650819E+03  0.00000000000E+00 0. -1.
         24    2    1    2    0    0 -0.77601239906E+01  0.17506263889E+02 -0.71925019648E+02  0.11035481410E+03  0.81475688049E+02 0.  0.
         25    2    1    2    0    0 -0.20325932432E+02 -0.87345990880E+01  0.18002782434E+03  0.22033538966E+03  0.12509288409E+03 0.  0.
        -24    2    1    2    0    0  0.28086056423E+02 -0.87716648009E+01  0.11206215778E+04  0.11230271951E+04  0.67317097884E+02 0.  0.
        -13    1    3    3    0    0  0.23966032245E+01  0.33796838199E+02  0.20361142154E+01  0.33942830471E+02  0.00000000000E+00 0.  1.
         14    1    3    3    0    0 -0.10156727215E+02 -0.16290574311E+02 -0.73961133864E+02  0.76411983625E+02  0.00000000000E+00 0. -1.
         11    1    5    5    0    0  0.30219380763E+02 -0.20877393875E+01  0.11092623407E+04  0.11096758581E+04  0.00000000000E+00 0. -1.
        -12    1    5    5    0    0 -0.21333243405E+01 -0.66839254134E+01  0.11359237096E+02  0.13351336977E+02  0.00000000000E+00 0.  1.
          5    1    4    4  501    0 -0.38219179422E+02 -0.60734724185E+02  0.10127413166E+03  0.12419071841E+03  0.41800000000E+01 0. -1.
         -5    1    4    4    0  501  0.17893246990E+02  0.52000125097E+02  0.78753692686E+02  0.96144671250E+02  0.41800000000E+01 0. -1.
</event>
<event>
11    1  0.8039394E-009  0.1338791E+03  0.7561462E-02  0.1114593E+00
         22   -1    0    0    0    0  0.00000000000E+00  0.00000000000E+00  0.17118232984E+04  0.17118232984E+04  0.00000000000E+00 0. -1.
         22   -1    0    0    0    0 -0.00000000000E+00 -0.00000000000E+00 -0.55026633039E+03  0.55026633039E+03  0.00000000000E+00 0.  1.
        -24    2    1    2    0    0  0.44381010195E+02  0.16658812901E+02 -0.45481292671E+03  0.46410321025E+03  0.79308267865E+02 0.  0.
         25    2    1    2    0    0 -0.59366496005E+02  0.15130943840E+02 -0.35611015290E+02  0.14376619171E+03  0.12508895699E+03 0.  0.
         24    2    1    2    0    0  0.14985485810E+02 -0.31789756741E+02  0.16519809100E+04  0.16542202268E+04  0.78539661019E+02 0.  0.
        -13    1    5    5    0    0 -0.29667423945E+02 -0.16743660355E+01  0.78973471425E+03  0.79029353941E+03  0.00000000000E+00 0.  1.
         14    1    5    5    0    0  0.44652909754E+02 -0.30115390706E+02  0.86224619575E+03  0.86392668740E+03  0.00000000000E+00 0. -1.
         13    1    3    3    0    0  0.64523355468E+02  0.83364855443E+01 -0.39745004554E+03  0.40273974114E+03  0.00000000000E+00 0. -1.
        -14    1    3    3    0    0 -0.20142345273E+02  0.83223273570E+01 -0.57362881165E+02  0.61363469110E+02  0.00000000000E+00 0.  1.
          5    1    4    4  501    0 -0.88813895200E+02 -0.74458036442E+01  0.40211709306E+01  0.89313997717E+02  0.41800000000E+01 0. -1.
         -5    1    4    4    0  501  0.29447399195E+02  0.22576747484E+02 -0.39632186221E+02  0.54452193996E+02  0.41800000000E+01 0. -1.
</event>
<event>
11    1  0.8039394E-009  0.2289087E+03  0.7561462E-02  0.1035776E+00
         22   -1    0    0    0    0  0.00000000000E+00  0.00000000000E+00  0.10689726235E+03  0.10689726235E+03  0.00000000000E+00 0. -1.
         22   -1    0    0    0    0 -0.00000000000E+00 -0.00000000000E+00 -0.10418474717E+04  0.10418474717E+04  0.00000000000E+00 0. -1.
        -24    2    1    2    0    0 -0.22079624750E+03  0.11520689121E+03 -0.64251834154E+03  0.69368273458E+03  0.79638598352E+02 0.  0.
         25    2    1    2    0    0  0.10603957630E+03 -0.68507450019E+02 -0.23942874692E+03  0.29817962447E+03  0.12508917277E+03 0.  0.
         24    2    1    2    0    0  0.11475667119E+03 -0.46699441189E+02 -0.53003120885E+02  0.15688237501E+03  0.80329430316E+02 0.  0.
        -11    1    5    5    0    0 -0.94802882931E+01  0.52912100565E+01 -0.11820084376E+02  0.16049522256E+02  0.00000000000E+00 0.  1.
         12    1    5    5    0    0  0.12423695948E+03 -0.51990651245E+02 -0.41183036509E+02  0.14083285275E+03  0.00000000000E+00 0. -1.
         11    1    3    3    0    0 -0.19226871967E+03  0.12244669330E+03 -0.60111920853E+03  0.64288782546E+03  0.00000000000E+00 0. -1.
        -12    1    3    3    0    0 -0.28527527824E+02 -0.72398020938E+01 -0.41399133010E+02  0.50794909116E+02  0.00000000000E+00 0.  1.
          5    1    4    4  501    0  0.11012061388E+03 -0.74830887282E+01 -0.11490432280E+03  0.15938325513E+03  0.41800000000E+01 0. -1.
         -5    1    4    4    0  501 -0.40810375710E+01 -0.61024361291E+02 -0.12452442413E+03  0.13879636934E+03  0.41800000000E+01 0. -1.
</event>
<event>
11    1  0.8039394E-009  0.1345749E+03  0.7561462E-02  0.1113772E+00
         22   -1    0    0    0    0  0.00000000000E+00  0.00000000000E+00  0.37213141254E+02  0.37213141254E+02  0.00000000000E+00 0. -1.
         22   -1    0    0    0    0 -0.00000000000E+00 -0.00000000000E+00 -0.16188359676E+04  0.16188359676E+04  0.00000000000E+00 0.  1.
         24    2    1    2    0    0 -0.16704261143E+02  0.10648788648E+02 -0.12234827996E+04  0.12265247718E+04  0.84026339295E+02 0.  0.
         25    2    1    2    0    0  0.53521297132E+02 -0.32962549720E+02 -0.24433890715E+03  0.28160189960E+03  0.12508824637E+03 0.  0.
        -24    2    1    2    0    0 -0.36817035989E+02  0.22313761072E+02 -0.11380111956E+03  0.14792243750E+03  0.84124637467E+02 0.  0.
        -11    1    3    3    0    0 -0.32761923343E+02  0.40510783620E+02 -0.68831523932E+03  0.69028424282E+03  0.00000000000E+00 0.  1.
         12    1    3    3    0    0  0.16057662200E+02 -0.29861994972E+02 -0.53516756031E+03  0.53624052893E+03  0.00000000000E+00 0. -1.
         13    1    5    5    0    0 -0.29783956794E+01 -0.19780683280E+02  0.20420217307E+01  0.20107613598E+02  0.00000000000E+00 0. -1.
        -14    1    5    5    0    0 -0.33838640310E+02  0.42094444352E+02 -0.11584314130E+03  0.12781482390E+03  0.00000000000E+00 0.  1.
          5    1    4    4  501    0  0.56302318308E+02  0.16105706341E+02 -0.21783455830E+03  0.22560742899E+03  0.41800000000E+01 0. -1.
         -5    1    4    4    0  501 -0.27810211752E+01 -0.49068256060E+02 -0.26504348850E+02  0.55994470616E+02  0.41800000000E+01 0. -1.
</event>
<event>
11    1  0.8039394E-009  0.1260919E+03  0.7561462E-02  0.1124166E+00
         22   -1    0    0    0    0  0.00000000000E+00  0.00000000000E+00  0.11428939241E+03  0.11428939241E+03  0.00000000000E+00 0.  1.
         22   -1    0    0    0    0 -0.00000000000E+00 -0.00000000000E+00 -0.12467172630E+04  0.12467172630E+04  0.00000000000E+00 0.  1.
        -24    2    1    2    0    0  0.91054528537E+01 -0.14584642941E+02 -0.11151164079E+04  0.11186927951E+04  0.87711718755E+02 0.  0.
         25    2    1    2    0    0  0.11978250667E+02 -0.68889286386E+01 -0.68200604493E+02  0.14314311371E+03  0.12509073796E+03 0.  0.
         24    2    1    2    0    0 -0.21083703520E+02  0.21473571580E+02  0.50889141766E+02  0.99170746602E+02  0.79620948258E+02 0.  0.
        -11    1    5    5    0    0 -0.10933480751E+02 -0.26608996250E+02  0.39259377813E+02  0.48671125208E+02  0.00000000000E+00 0.  1.
         12    1    5    5    0    0 -0.10150222769E+02  0.48082567829E+02  0.11629763952E+02  0.50499621394E+02  0.00000000000E+00 0. -1.
         11    1    3    3    0    0 -0.11609333924E+02 -0.48022661319E+01 -0.21986023211E+02  0.25322393465E+02  0.00000000000E+00 0. -1.
        -12    1    3    3    0    0  0.20714786778E+02 -0.97823768091E+01 -0.10931303847E+04  0.10933704017E+04  0.00000000000E+00 0.  1.
          5    1    4    4  501    0 -0.42765051254E+01  0.57854077172E+02 -0.23683670541E+02  0.62799453754E+02  0.41800000000E+01 0.  1.
         -5    1    4    4    0  501  0.16254755792E+02 -0.64743005810E+02 -0.44516933952E+02  0.80343659960E+02  0.41800000000E+01 0.  1.
</event>
<event>
11    1  0.8039394E-009  0.2107279E+03  0.7561462E-02  0.1047186E+00
         22   -1    0    0    0    0  0.00000000000E+00  0.00000000000E+00  0.34932275237E+03  0.34932275237E+03  0.00000000000E+00 0.  1.
         22   -1    0    0    0    0 -0.00000000000E+00 -0.00000000000E+00 -0.12417505825E+04  0.12417505825E+04  0.00000000000E+00 0.  1.
        -24    2    1    2    0    0  0.15698336789E+03 -0.64907360662E+02 -0.11543550398E+04  0.11689425212E+04  0.70952918431E+02 0.  0.
         25    2    1    2    0    0 -0.17129792220E+03  0.10505692356E+02  0.10520183988E+03  0.23700203328E+03  0.12509671836E+03 0.  0.
         24    2    1    2    0    0  0.14314554312E+02  0.54401668306E+02  0.15672536980E+03  0.18512878040E+03  0.80903496914E+02 0.  0.
        -13    1    5    5    0    0  0.25735654175E+02  0.61886821539E+02  0.15778688877E+03  0.17143221647E+03  0.00000000000E+00 0.  1.
         14    1    5    5    0    0 -0.11421099863E+02 -0.74851532324E+01 -0.10615189665E+01  0.13696563931E+02  0.00000000000E+00 0. -1.
         11    1    3    3    0    0  0.67443125248E+02  0.69665997418E+01 -0.50233148516E+03  0.50688660432E+03  0.00000000000E+00 0. -1.
        -12    1    3    3    0    0  0.89540242641E+02 -0.71873960404E+02 -0.65202355463E+03  0.66205591684E+03  0.00000000000E+00 0.  1.
          5    1    4    4  501    0 -0.80517562303E+02 -0.57310691576E+02  0.51890047592E+02  0.11170336901E+03  0.41800000000E+01 0. -1.
         -5    1    4    4    0  501 -0.90780359898E+02  0.67816383932E+02  0.53311792286E+02  0.12529866428E+03  0.41800000000E+01 0. -1.
</event>
<event>
11    1  0.8039394E-009  0.1297161E+03  0.7561462E-02  0.1119618E+00
         22   -1    0    0    0    0  0.00000000000E+00  0.00000000000E+00  0.18509604348E+04  0.18509604348E+04  0.00000000000E+00 0.  1.
         22   -1    0    0    0    0 -0.00000000000E+00 -0.00000000000E+00 -0.19017062153E+03  0.19017062153E+03  0.00000000000E+00 0.  1.
        -24    2    1    2    0    0 -0.18016952912E+01  0.81190175081E+00 -0.14678896999E+03  0.16850583772E+03  0.82724303212E+02 0.  0.
         25    2    1    2    0    0 -0.30438862587E+02 -0.12717231889E+02  0.10184921775E+03  0.16465094688E+03  0.12509364017E+03 0.  0.
         24    2    1    2    0    0  0.32240557878E+02  0.11905330138E+02  0.17057295655E+04  0.17079742717E+04  0.80508209505E+02 0.  0.
        -13    1    5    5    0    0  0.38090217920E+02  0.39877331590E+02  0.86286503686E+03  0.86462543226E+03  0.00000000000E+00 0.  1.
         14    1    5    5    0    0 -0.58496600421E+01 -0.27972001452E+02  0.84286452863E+03  0.84334883946E+03  0.00000000000E+00 0. -1.
         11    1    3    3    0    0  0.31193626041E+02 -0.48316453444E+01 -0.19990465378E+02  0.37363161112E+02  0.00000000000E+00 0. -1.
        -12    1    3    3    0    0 -0.32995321332E+02  0.56435470952E+01 -0.12679850462E+03  0.13114267660E+03  0.00000000000E+00 0.  1.
          5    1    4    4  501    0  0.16981906089E+02 -0.56592491903E+02  0.25337570929E+02  0.64424841287E+02  0.41800000000E+01 0. -1.
         -5    1    4    4    0  501 -0.47420768676E+02  0.43875260014E+02  0.76511646823E+02  0.10022610559E+03  0.41800000000E+01 0. -1.
</event>
<event>
11    1  0.8039394E-009  0.1430297E+03  0.7561462E-02  0.1104222E+00
         22   -1    0    0    0    0  0.00000000000E+00  0.00000000000E+00  0.15089482757E+04  0.15089482757E+04  0.00000000000E+00 0.  1.
         22   -1    0    0    0    0 -0.00000000000E+00 -0.00000000000E+00 -0.86826836702E+02  0.86826836702E+02  0.00000000000E+00 0. -1.
         24    2    1    2    0    0 -0.65627418044E+02  0.14939394729E+02 -0.37150357929E+02  0.11058908921E+03  0.79496251760E+02 0.  0.
         25    2    1    2    0    0  0.10262280887E+03 -0.28086110220E+02  0.65335707962E+03  0.67367916859E+03  0.12509147936E+03 0.  0.
        -24    2    1    2    0    0 -0.36995390828E+02  0.13146715491E+02  0.80591471733E+03  0.81150685463E+03  0.86621870398E+02 0.  0.
        -13    1    3    3    0    0  0.15064429341E+02  0.17811364518E+02 -0.10281052694E+02  0.25492779014E+02  0.00000000000E+00 0.  1.
         14    1    3    3    0    0 -0.80691847386E+02 -0.28719697892E+01 -0.26869305235E+02  0.85096310195E+02  0.00000000000E+00 0. -1.
         13    1    5    5    0    0  0.26262018823E+02  0.17149475442E+02  0.23482542013E+03  0.23691090325E+03  0.00000000000E+00 0. -1.
        -14    1    5    5    0    0 -0.63257409651E+02 -0.40027599507E+01  0.57108929720E+03  0.57459595138E+03  0.00000000000E+00 0.  1.
          5    1    4    4  501    0  0.76379033401E+02  0.39817100293E+02  0.43509877907E+03  0.44356237236E+03  0.41800000000E+01 0. -1.
         -5    1    4    4    0  501  0.26243775472E+02 -0.67903210513E+02  0.21825830055E+03  0.23011679623E+03  0.41800000000E+01 0. -1.
</event>
<event>
11    1  0.8039394E-009  0.1481762E+03  0.7561462E-02  0.1098757E+00
         22   -1    0    0    0    0  0.00000000000E+00  0.00000000000E+00  0.98944852387E+03  0.98944852387E+03  0.00000000000E+00 0. -1.
         22   -1    0    0    0    0 -0.00000000000E+00 -0.00000000000E+00 -0.62598085119E+02  0.62598085119E+02  0.00000000000E+00 0. -1.
        -24    2    1    2    0    0  0.10973530024E+01 -0.13791073825E+01 -0.18718671334E+01  0.81182596999E+02  0.81141876045E+02 0.  0.
         25    2    1    2    0    0  0.32454385071E+02  0.73154327313E+02  0.33351686960E+03  0.36508317323E+03  0.12508948139E+03 0.  0.
         24    2    1    2    0    0 -0.33551738074E+02 -0.71775219930E+02  0.59520543629E+03  0.60578083876E+03  0.80146814642E+02 0.  0.
        -13    1    5    5    0    0 -0.24529349031E+02 -0.21351679808E+02  0.61019473136E+02  0.69144481315E+02  0.00000000000E+00 0.  1.
         14    1    5    5    0    0 -0.90223890431E+01 -0.50423540122E+02  0.53418596316E+03  0.53663635745E+03  0.00000000000E+00 0. -1.
         11    1    3    3    0    0  0.46014767919E+01 -0.18140549334E+02 -0.37356491738E+02  0.41782300006E+02  0.00000000000E+00 0. -1.
        -12    1    3    3    0    0 -0.35041237895E+01  0.16761441952E+02  0.35484624604E+02  0.39400296993E+02  0.00000000000E+00 0.  1.
          5    1    4    4  501    0 -0.20906704429E+01  0.75133671006E+02  0.82599826920E+02  0.11175707239E+03  0.41800000000E+01 0.  1.
         -5    1    4    4    0  501  0.34545055514E+02 -0.19793436934E+01  0.25091704268E+03  0.25332610084E+03  0.41800000000E+01 0.  1.
</event>
<event>
11    1  0.8039394E-009  0.1288689E+03  0.7561462E-02  0.1120667E+00
         22   -1    0    0    0    0  0.00000000000E+00  0.00000000000E+00  0.12273309202E+04  0.12273309202E+04  0.00000000000E+00 0.  1.
         22   -1    0    0    0    0 -0.00000000000E+00 -0.00000000000E+00 -0.28722883173E+03  0.28722883173E+03  0.00000000000E+00 0. -1.
        -24    2    1    2    0    0 -0.16739839944E+02 -0.23017580327E+02 -0.11837776111E+03  0.14449228664E+03  0.77811922799E+02 0.  0.
         25    2    1    2    0    0  0.41450194708E+02  0.10043764752E+02 -0.12632830345E+03  0.18282353544E+03  0.12508640616E+03 0.  0.
         24    2    1    2    0    0 -0.24710354764E+02  0.12973815575E+02  0.11848081531E+04  0.11872439299E+04  0.70702672736E+02 0.  0.
        -13    1    5    5    0    0 -0.49644454016E+02  0.71048586464E+01  0.73783451732E+03  0.73953689954E+03  0.00000000000E+00 0.  1.
         14    1    5    5    0    0  0.24934099252E+02  0.58689569285E+01  0.44697363574E+03  0.44770703033E+03  0.00000000000E+00 0. -1.
         13    1    3    3    0    0 -0.36568165542E+02 -0.33856620704E+02 -0.10932735491E+03  0.12014978996E+03  0.00000000000E+00 0. -1.
        -14    1    3    3    0    0  0.19828325598E+02  0.10839040377E+02 -0.90504061956E+01  0.24342496680E+02  0.00000000000E+00 0.  1.
          5    1    4    4  501    0  0.57344694525E+02  0.51810350608E+02 -0.11115165994E+03  0.13544331038E+03  0.41800000000E+01 0. -1.
         -5    1    4    4    0  501 -0.15894499817E+02 -0.41766585855E+02 -0.15176643516E+02  0.47380225061E+02  0.41800000000E+01 0. -1.
</event>
<event>
11    1  0.8039394E-009  0.1729484E+03  0.7561462E-02  0.1075494E+00
         22   -1    0    0    0    0  0.00000000000E+00  0.00000000000E+00  0.23369001307E+04  0.23369001307E+04  0.00000000000E+00 0. -1.
         22   -1    0    0    0    0 -0.00000000000E+00 -0.00000000000E+00 -0.90016950869E+02  0.90016950869E+02  0.00000000000E+00 0.  1.
         24    2    1    2    0    0 -0.94139696177E+02 -0.25570495703E+02 -0.10672064614E+02  0.12576937737E+03  0.78663273985E+02 0.  0.
         25    2    1    2    0    0  0.13923679128E+03  0.12653584938E+03  0.65912748480E+03  0.69677121235E+03  0.12507148322E+03 0.  0.
        -24    2    1    2    0    0 -0.45097095107E+02 -0.10096535368E+03  0.15984277597E+04  0.16043764919E+04  0.82612796624E+02 0.  0.
        -13    1    3    3    0    0 -0.56314743051E+02  0.17912454792E+02 -0.28271824986E+02  0.65509559681E+02  0.00000000000E+00 0.  1.
         14    1    3    3    0    0 -0.37824953126E+02 -0.43482950495E+02  0.17599760372E+02  0.60259817689E+02  0.00000000000E+00 0. -1.
         11    1    5    5    0    0 -0.10827795625E+02  0.49049579640E+01  0.53699762638E+03  0.53712917488E+03  0.00000000000E+00 0. -1.
        -12    1    5    5    0    0 -0.34269299482E+02 -0.10587031164E+03  0.10614301333E+04  0.10672473170E+04  0.00000000000E+00 0.  1.
          5    1    4    4  501    0  0.15415233075E+03  0.12569225207E+03  0.64752931872E+03  0.67740178204E+03  0.41800000000E+01 0.  1.
         -5    1    4    4    0  501 -0.14915539470E+02  0.84359730922E+00  0.11598166078E+02  0.19369430309E+02  0.41800000000E+01 0.  1.
</event>
<event>
11    1  0.8039394E-009  0.1457298E+03  0.7561462E-02  0.1101324E+00
         22   -1    0    0    0    0  0.00000000000E+00  0.00000000000E+00  0.37385879505E+03  0.37385879505E+03  0.00000000000E+00 0. -1.
         22   -1    0    0    0    0 -0.00000000000E+00 -0.00000000000E+00 -0.41021051241E+03  0.41021051241E+03  0.00000000000E+00 0. -1.
        -24    2    1    2    0    0  0.34214488193E+02  0.34571983649E+02 -0.35039107046E+03  0.36288392183E+03  0.80901082901E+02 0.  0.
         25    2    1    2    0    0  0.45739195877E+02 -0.48463577360E+02  0.85857240223E+02  0.16570872234E+03  0.12508845907E+03 0.  0.
         24    2    1    2    0    0 -0.79953684070E+02  0.13891593711E+02  0.22818211287E+03  0.25547666329E+03  0.81336835931E+02 0.  0.
        -13    1    5    5    0    0  0.11467990439E+02  0.19616304871E+02  0.56238839092E+02  0.60655760187E+02  0.00000000000E+00 0.  1.
         14    1    5    5    0    0 -0.91421674509E+02 -0.57247111599E+01  0.17194327378E+03  0.19482090310E+03  0.00000000000E+00 0. -1.
         13    1    3    3    0    0  0.17742519351E+02 -0.45745043837E+00 -0.29371277991E+03  0.29424854007E+03  0.00000000000E+00 0. -1.
        -14    1    3    3    0    0  0.16471968841E+02  0.35029434087E+02 -0.56678290547E+02  0.68635381760E+02  0.00000000000E+00 0.  1.
          5    1    4    4  501    0 -0.33925591050E+02  0.16619954546E+02  0.31019732997E+02  0.49059808931E+02  0.41800000000E+01 0. -1.
         -5    1    4    4    0  501  0.79664786927E+02 -0.65083531906E+02  0.54837507226E+02  0.11664891341E+03  0.41800000000E+01 0. -1.
</event>
<event>
11    1  0.8039394E-009  0.1412698E+03  0.7561462E-02  0.1106149E+00
         22   -1    0    0    0    0  0.00000000000E+00  0.00000000000E+00  0.16348937371E+03  0.16348937371E+03  0.00000000000E+00 0.  1.
         22   -1    0    0    0    0 -0.00000000000E+00 -0.00000000000E+00 -0.71310730920E+03  0.71310730920E+03  0.00000000000E+00 0. -1.
        -24    2    1    2    0    0  0.12084022058E+02 -0.62254582876E+02 -0.56943177568E+03  0.57860453381E+03  0.80678390610E+02 0.  0.
         25    2    1    2    0    0 -0.14176407307E+02  0.87074450846E+02 -0.79982934231E+02  0.17270769189E+03  0.12509095314E+03 0.  0.
         24    2    1    2    0    0  0.20923852484E+01 -0.24819867970E+02  0.99796774424E+02  0.12528445720E+03  0.71528980901E+02 0.  0.
        -11    1    5    5    0    0  0.42651622103E+01 -0.10823539501E+02  0.10819448396E+03  0.10881813716E+03  0.00000000000E+00 0.  1.
         12    1    5    5    0    0 -0.21727769619E+01 -0.13996328469E+02 -0.83977095329E+01  0.16466320042E+02  0.00000000000E+00 0. -1.
         11    1    3    3    0    0  0.37192529809E+02 -0.60226706423E+02 -0.31128989371E+03  0.31923649285E+03  0.00000000000E+00 0. -1.
        -12    1    3    3    0    0 -0.25108507751E+02 -0.20278764530E+01 -0.25814188198E+03  0.25936804097E+03  0.00000000000E+00 0.  1.
          5    1    4    4  501    0 -0.65957777727E+02  0.74260102877E+02 -0.55658549440E+02  0.11393128564E+03  0.41800000000E+01 0. -1.
         -5    1    4    4    0  501  0.51781370420E+02  0.12814347969E+02 -0.24324384792E+02  0.58776406252E+02  0.41800000000E+01 0. -1.
</event>
<event>
11    1  0.8039394E-009  0.3983809E+03  0.7561462E-02  0.9654547E-01
         22   -1    0    0    0    0  0.00000000000E+00  0.00000000000E+00  0.30343663427E+03  0.30343663427E+03  0.00000000000E+00 0.  1.
         22   -1    0    0    0    0 -0.00000000000E+00 -0.00000000000E+00 -0.79120161627E+03  0.79120161627E+03  0.00000000000E+00 0.  1.
        -24    2    1    2    0    0 -0.74338015570E+02  0.77501927653E+02 -0.19242168973E+03  0.23463106369E+03  0.80578781466E+02 0.  0.
         25    2    1    2    0    0  0.25019238840E+03 -0.36454680268E+03 -0.19805971431E+03  0.50036564932E+03  0.12509008766E+03 0.  0.
         24    2    1    2    0    0 -0.17585437283E+03  0.28704487503E+03 -0.97283577965E+02  0.35964153754E+03  0.80984074105E+02 0.  0.
        -11    1    5    5    0    0 -0.16960889402E+03  0.21468452203E+03 -0.77676281592E+02  0.28441207016E+03  0.00000000000E+00 0.  1.
         12    1    5    5    0    0 -0.62454788107E+01  0.72360352992E+02 -0.19607296373E+02  0.75229467377E+02  0.00000000000E+00 0. -1.
         11    1    3    3    0    0 -0.87171090990E+02  0.75832661314E+02 -0.14460748458E+03  0.18509650516E+03  0.00000000000E+00 0. -1.
        -12    1    3    3    0    0  0.12833075419E+02  0.16692663387E+01 -0.47814205152E+02  0.49534558534E+02  0.00000000000E+00 0.  1.
          5    1    4    4  501    0  0.20266976570E+03 -0.30961680382E+03 -0.21169495933E+03  0.42634472829E+03  0.41800000000E+01 0.  1.
         -5    1    4    4    0  501  0.47522622700E+02 -0.54929998861E+02  0.13635245022E+02  0.74020921029E+02  0.41800000000E+01 0.  1.
</event>
<event>
11    1  0.8039394E-009  0.2184891E+03  0.7561462E-02  0.1042168E+00
         22   -1    0    0    0    0  0.00000000000E+00  0.00000000000E+00  0.14160553384E+04  0.14160553384E+04  0.00000000000E+00 0. -1.
         22   -1    0    0    0    0 -0.00000000000E+00 -0.00000000000E+00 -0.40430665793E+03  0.40430665793E+03  0.00000000000E+00 0.  1.
        -24    2    1    2    0    0 -0.18017082853E+03 -0.18528749883E+02 -0.33002026006E+03  0.38484175187E+03  0.79905944104E+02 0.  0.
         25    2    1    2    0    0  0.14545562829E+03  0.11200522025E+03  0.24258860466E+03  0.32893756116E+03  0.12509268112E+03 0.  0.
         24    2    1    2    0    0  0.34715200243E+02 -0.93476470367E+02  0.10991803358E+04  0.11065826833E+04  0.79905122312E+02 0.  0.
        -13    1    5    5    0    0  0.24403996627E+02 -0.21298522563E+02  0.10872520996E+03  0.11344757995E+03  0.00000000000E+00 0.  1.
         14    1    5    5    0    0  0.10311203616E+02 -0.72177947805E+02  0.99045512589E+03  0.99313510333E+03  0.00000000000E+00 0. -1.
         11    1    3    3    0    0 -0.13031643092E+03  0.52782541465E+01 -0.16202862307E+03  0.20799881449E+03  0.00000000000E+00 0. -1.
        -12    1    3    3    0    0 -0.49854397611E+02 -0.23807004029E+02 -0.16799163699E+03  0.17684293738E+03  0.00000000000E+00 0.  1.
          5    1    4    4  501    0  0.80005708241E+01  0.72817199372E+02  0.48869205988E+02  0.88159091147E+02  0.41800000000E+01 0.  1.
         -5    1    4    4    0  501  0.13745505746E+03  0.39188020878E+02  0.19371939867E+03  0.24077847002E+03  0.41800000000E+01 0.  1.
</event>
<event>
11    1  0.8039394E-009  0.1347734E+03  0.7561462E-02  0.1113539E+00
         22   -1    0    0    0    0  0.00000000000E+00  0.00000000000E+00  0.21217309733E+03  0.21217309733E+03  0.00000000000E+00 0.  1.
         22   -1    0    0    0    0 -0.00000000000E+00 -0.00000000000E+00 -0.26053787522E+04  0.26053787522E+04  0.00000000000E+00 0. -1.
         24    2    1    2    0    0  0.44587701935E+02  0.15237869847E+02 -0.24133067749E+04  0.24151421504E+04  0.81497001073E+02 0.  0.
         25    2    1    2    0    0  0.83102941001E+01 -0.19284122063E+02 -0.15609267927E+03  0.20111494613E+03  0.12506541762E+03 0.  0.
        -24    2    1    2    0    0 -0.52897996035E+02  0.40462522160E+01  0.17619379931E+03  0.20129475295E+03  0.81613433390E+02 0.  0.
        -11    1    3    3    0    0 -0.61032981461E+01  0.33728101363E+02 -0.55856230816E+03  0.55961297981E+03  0.00000000000E+00 0.  1.
         12    1    3    3    0    0  0.50691000081E+02 -0.18490231516E+02 -0.18547444667E+04  0.18555291706E+04  0.00000000000E+00 0. -1.
         13    1    5    5    0    0 -0.25774176689E+02  0.37649243828E+02  0.48923230044E+02  0.66897355573E+02  0.00000000000E+00 0. -1.
        -14    1    5    5    0    0 -0.27123819346E+02 -0.33602991612E+02  0.12727056926E+03  0.13439739738E+03  0.00000000000E+00 0.  1.
          5    1    4    4  501    0 -0.34399087736E+02 -0.58707725746E+02 -0.91783363396E+02  0.11433089038E+03  0.41800000000E+01 0. -1.
         -5    1    4    4    0  501  0.42709381836E+02  0.39423603683E+02 -0.64309315877E+02  0.86784055752E+02  0.41800000000E+01 0. -1.
</event>
<event>
11    1  0.8039394E-009  0.1358711E+03  0.7561462E-02  0.1112259E+00
         22   -1    0    0    0    0  0.00000000000E+00  0.00000000000E+00  0.47374742764E+02  0.47374742764E+02  0.00000000000E+00 0. -1.
         22   -1    0    0    0    0 -0.00000000000E+00 -0.00000000000E+00 -0.13731127721E+04  0.13731127721E+04  0.00000000000E+00 0. -1.
         24    2    1    2    0    0 -0.21496211416E+02 -0.75659383189E+00 -0.75427077009E+03  0.75857314304E+03  0.77757052345E+02 0.  0.
         25    2    1    2    0    0  0.58208447184E+02 -0.35391060072E+02 -0.54496299921E+03  0.56326954066E+03  0.12508858647E+03 0.  0.
        -24    2    1    2    0    0 -0.36712235767E+02  0.36147653904E+02 -0.26504260058E+02  0.98644831192E+02  0.79836619303E+02 0.  0.
        -11    1    3    3    0    0 -0.19719570969E+02 -0.11666236621E+01 -0.43224319669E+02  0.47524354818E+02  0.00000000000E+00 0.  1.
         12    1    3    3    0    0 -0.17766404471E+01  0.41002983020E+00 -0.71104645042E+03  0.71104878822E+03  0.00000000000E+00 0. -1.
         11    1    5    5    0    0 -0.36004961581E+02 -0.59139564344E+01  0.15091256070E+02  0.39485163656E+02  0.00000000000E+00 0. -1.
        -12    1    5    5    0    0 -0.70727418609E+00  0.42061610338E+02 -0.41595516128E+02  0.59159667536E+02  0.00000000000E+00 0.  1.
          5    1    4    4  501    0  0.19710939378E+02 -0.79809779910E+02 -0.28095891325E+03  0.29276868930E+03  0.41800000000E+01 0.  1.
         -5    1    4    4    0  501  0.38497507806E+02  0.44418719838E+02 -0.26400408596E+03  0.27050085136E+03  0.41800000000E+01 0.  1.
</event>
<event>
11    1  0.8039394E-009  0.1419301E+03  0.7561462E-02  0.1105422E+00
         22   -1    0    0    0    0  0.00000000000E+00  0.00000000000E+00  0.24712182151E+03  0.24712182151E+03  0.00000000000E+00 0. -1.
         22   -1    0    0    0    0 -0.00000000000E+00 -0.00000000000E+00 -0.90616883768E+03  0.90616883768E+03  0.00000000000E+00 0.  1.
         24    2    1    2    0    0 -0.55929542210E+02 -0.34441035094E+02 -0.67214609529E+03  0.67882963235E+03  0.68665841275E+02 0.  0.
         25    2    1    2    0    0  0.52947221151E+02  0.59584735295E+02 -0.19767626744E+03  0.24715178237E+03  0.12511733657E+03 0.  0.
        -24    2    1    2    0    0  0.29823210592E+01 -0.25143700202E+02  0.21077534656E+03  0.22730924446E+03  0.81253590709E+02 0.  0.
        -13    1    3    3    0    0 -0.71327689610E+02 -0.30455293006E+02 -0.59714326956E+03  0.60215882337E+03  0.00000000000E+00 0.  1.
         14    1    3    3    0    0  0.15398147399E+02 -0.39857420875E+01 -0.75002825723E+02  0.76670808981E+02  0.00000000000E+00 0. -1.
         13    1    5    5    0    0 -0.80698652931E+01 -0.53748556225E+02  0.13971910820E+03  0.14991817508E+03  0.00000000000E+00 0. -1.
        -14    1    5    5    0    0  0.11052186352E+02  0.28604856023E+02  0.71056238357E+02  0.77391069386E+02  0.00000000000E+00 0.  1.
          5    1    4    4  501    0  0.49399255973E+02 -0.30308351976E+02 -0.71555543873E+02  0.92176737571E+02  0.41800000000E+01 0.  1.
         -5    1    4    4    0  501  0.35479651778E+01  0.89893087272E+02 -0.12612072357E+03  0.15497504480E+03  0.41800000000E+01 0.  1.
</event>
<event>
11    1  0.8039394E-009  0.1599239E+03  0.7561462E-02  0.1087149E+00
         22   -1    0    0    0    0  0.00000000000E+00  0.00000000000E+00  0.56569211627E+03  0.56569211627E+03  0.00000000000E+00 0. -1.
         22   -1    0    0    0    0 -0.00000000000E+00 -0.00000000000E+00 -0.88173638224E+03  0.88173638224E+03  0.00000000000E+00 0. -1.
        -24    2    1    2    0    0  0.95737815256E+02  0.29809982572E+01 -0.67177819472E+03  0.68324585194E+03  0.79776786560E+02 0.  0.
         25    2    1    2    0    0 -0.12638027817E+03 -0.78762357866E+02 -0.14988935718E+03  0.24554078699E+03  0.12509186605E+03 0.  0.
         24    2    1    2    0    0  0.30642462916E+02  0.75781359609E+02  0.50562328593E+03  0.51864185958E+03  0.81564062163E+02 0.  0.
        -13    1    5    5    0    0  0.36992750349E+02 -0.11021216736E+01  0.20261298271E+03  0.20596528594E+03  0.00000000000E+00 0.  1.
         14    1    5    5    0    0 -0.63502874337E+01  0.76883481283E+02  0.30301030322E+03  0.31267657364E+03  0.00000000000E+00 0. -1.
         11    1    3    3    0    0  0.29464785545E+02 -0.17201316272E+01 -0.46758532210E+03  0.46851591849E+03  0.00000000000E+00 0. -1.
        -12    1    3    3    0    0  0.66273029711E+02  0.47011298844E+01 -0.20419287262E+03  0.21472993345E+03  0.00000000000E+00 0.  1.
          5    1    4    4  501    0 -0.20833203155E+02 -0.85395322264E+02 -0.78045490251E+02  0.11762208282E+03  0.41800000000E+01 0. -1.
         -5    1    4    4    0  501 -0.10554707502E+03  0.66329643975E+01 -0.71843866925E+02  0.12791870417E+03  0.41800000000E+01 0. -1.
</event>
<event>
11    1  0.8039394E-009  0.1386938E+03  0.7561462E-02  0.1109026E+00
         22   -1    0    0    0    0  0.00000000000E+00  0.00000000000E+00  0.10639136856E+04  0.10639136856E+04  0.00000000000E+00 0.  1.
         22   -1    0    0    0    0 -0.00000000000E+00 -0.00000000000E+00 -0.21133337338E+03  0.21133337338E+03  0.00000000000E+00 0. -1.
         24    2    1    2    0    0  0.13415372114E+02 -0.56353823717E+02 -0.16500148429E+03  0.19296167987E+03  0.81565890077E+02 0.  0.
         25    2    1    2    0    0 -0.41578619347E+02  0.79869396671E+02  0.16754073635E+03  0.22765571694E+03  0.12509726219E+03 0.  0.
        -24    2    1    2    0    0  0.28163247233E+02 -0.23515572954E+02  0.85004106015E+03  0.85462966216E+03  0.80473006919E+02 0.  0.
        -13    1    3    3    0    0 -0.24919722863E+02 -0.21752695634E+02 -0.11996178481E+03  0.12443874866E+03  0.00000000000E+00 0.  1.
         14    1    3    3    0    0  0.38335094977E+02 -0.34601128084E+02 -0.45039699482E+02  0.68522931206E+02  0.00000000000E+00 0. -1.
         13    1    5    5    0    0 -0.95328790187E+01 -0.52758259296E+01  0.15001156170E+02  0.18540356201E+02  0.00000000000E+00 0. -1.
        -14    1    5    5    0    0  0.37696126251E+02 -0.18239747024E+02  0.83503990398E+03  0.83608930596E+03  0.00000000000E+00 0.  1.
          5    1    4    4  501    0  0.22632025499E+02 -0.23166821594E+02  0.35616602867E+02  0.48321061668E+02  0.41800000000E+01 0. -1.
         -5    1    4    4    0  501 -0.64210644846E+02  0.10303621827E+03  0.13192413348E+03  0.17933465527E+03  0.41800000000E+01 0. -1.
</event>
<event>
11    1  0.8039394E-009  0.1592601E+03  0.7561462E-02  0.1087775E+00
         22   -1    0    0    0    0  0.00000000000E+00  0.00000000000E+00  0.38941901635E+03  0.38941901635E+03  0.00000000000E+00 0.  1.
         22   -1    0    0    0    0 -0.00000000000E+00 -0.00000000000E+00 -0.63035193264E+03  0.63035193264E+03  0.00000000000E+00 0. -1.
         24    2    1    2    0    0 -0.18172479737E+02 -0.54158445239E+01 -0.50260064289E+03  0.51280582986E+03  0.10001421155E+03 0.  0.
         25    2    1    2    0    0  0.59742881705E+02 -0.83625955671E+02 -0.50711746264E+02  0.16965308946E+03  0.12509187495E+03 0.  0.
        -24    2    1    2    0    0 -0.41570401968E+02  0.89041800195E+02  0.31237947286E+03  0.33731202968E+03  0.80882197069E+02 0.  0.
        -13    1    3    3    0    0  0.15194786436E+02 -0.40014235070E+02 -0.12428357042E+03  0.13144742835E+03  0.00000000000E+00 0.  1.
         14    1    3    3    0    0 -0.33367266173E+02  0.34598390546E+02 -0.37831707247E+03  0.38135840151E+03  0.00000000000E+00 0. -1.
         11    1    5    5    0    0  0.31796440439E+01 -0.99842463486E+01  0.56554278640E+01  0.11907106102E+02  0.00000000000E+00 0. -1.
        -12    1    5    5    0    0 -0.44750046012E+02  0.99026046543E+02  0.30672404499E+03  0.32540492358E+03  0.00000000000E+00 0.  1.
          5    1    4    4  501    0  0.72314871797E+02 -0.20241854087E+02  0.15771310982E+02  0.76846470251E+02  0.41800000000E+01 0.  1.
         -5    1    4    4    0  501 -0.12571990093E+02 -0.63384101583E+02 -0.66483057245E+02  0.92806619210E+02  0.41800000000E+01 0.  1.
</event>
<event>
11    1  0.8039394E-009  0.1284623E+03  0.7561462E-02  0.1121173E+00
         22   -1    0    0    0    0  0.00000000000E+00  0.00000000000E+00  0.23902718723E+04  0.23902718723E+04  0.00000000000E+00 0.  1.
         22   -1    0    0    0    0 -0.00000000000E+00 -0.00000000000E+00 -0.70032978123E+02  0.70032978123E+02  0.00000000000E+00 0.  1.
         24    2    1    2    0    0 -0.14384269848E+02  0.23607462992E+02 -0.25866700717E+02  0.91693124159E+02  0.83512413952E+02 0.  0.
         25    2    1    2    0    0  0.15121270986E+02 -0.49928005209E+02  0.43510030102E+03  0.45572120032E+03  0.12509229366E+03 0.  0.
        -24    2    1    2    0    0 -0.73700113823E+00  0.26320542217E+02  0.19110052939E+04  0.19128905259E+04  0.80719371409E+02 0.  0.
        -13    1    3    3    0    0 -0.20752284696E+02  0.53050888934E+02 -0.22998237527E+02  0.61432671000E+02  0.00000000000E+00 0.  1.
         14    1    3    3    0    0  0.63680148484E+01 -0.29443425942E+02 -0.28684631899E+01  0.30260453159E+02  0.00000000000E+00 0. -1.
         11    1    5    5    0    0 -0.27910103370E+02  0.80846533650E+01  0.27002163698E+03  0.27158059564E+03  0.00000000000E+00 0. -1.
        -12    1    5    5    0    0  0.27173102232E+02  0.18235888852E+02  0.16409836569E+04  0.16413099303E+04  0.00000000000E+00 0.  1.
          5    1    4    4  501    0  0.58423609152E+02 -0.59995605968E+02  0.20783743568E+03  0.22411305833E+03  0.41800000000E+01 0. -1.
         -5    1    4    4    0  501 -0.43302338166E+02  0.10067600759E+02  0.22726286534E+03  0.23160814199E+03  0.41800000000E+01 0. -1.
</event>
<event>
11    1  0.8039394E-009  0.1434480E+03  0.7561462E-02  0.1103768E+00
         22   -1    0    0    0    0  0.00000000000E+00  0.00000000000E+00  0.16148943434E+04  0.16148943434E+04  0.00000000000E+00 0. -1.
         22   -1    0    0    0    0 -0.00000000000E+00 -0.00000000000E+00 -0.60702747266E+03  0.60702747266E+03  0.00000000000E+00 0. -1.
        -24    2    1    2    0    0 -0.31419052585E+02 -0.53823527225E+02 -0.53696304167E+03  0.54657790086E+03  0.80832942819E+02 0.  0.
         25    2    1    2    0    0 -0.35493539131E+02  0.28343072884E+02  0.64755512657E+01  0.13323788182E+03  0.12508908541E+03 0.  0.
         24    2    1    2    0    0  0.66912591717E+02  0.25480454341E+02  0.15383543612E+04  0.15421060334E+04  0.80189333899E+02 0.  0.
        -13    1    5    5    0    0  0.30853781705E+02 -0.27943670164E+02  0.73013278144E+03  0.73131845532E+03  0.00000000000E+00 0.  1.
         14    1    5    5    0    0  0.36058810012E+02  0.53424124506E+02  0.80822157971E+03  0.81078757808E+03  0.00000000000E+00 0. -1.
         11    1    3    3    0    0  0.23518721982E+01 -0.64930407282E+02 -0.39006996547E+03  0.39544413898E+03  0.00000000000E+00 0. -1.
        -12    1    3    3    0    0 -0.33770924783E+02  0.11106880057E+02 -0.14689307620E+03  0.15113376188E+03  0.00000000000E+00 0.  1.
          5    1    4    4  501    0  0.43495673413E+02  0.27328526190E+02  0.14992012582E+02  0.53674526460E+02  0.41800000000E+01 0.  1.
         -5    1    4    4    0  501 -0.78989212545E+02  0.10145466938E+01 -0.85164613166E+01  0.79563355364E+02  0.41800000000E+01 0.  1.
</event>
<event>
11    1  0.8039394E-009  0.1345669E+03  0.7561462E-02  0.1113782E+00
         22   -1    0    0    0    0  0.00000000000E+00  0.00000000000E+00  0.14708257913E+04  0.14708257913E+04  0.00000000000E+00 0. -1.
         22   -1    0    0    0    0 -0.00000000000E+00 -0.00000000000E+00 -0.68711124857E+02  0.68711124857E+02  0.00000000000E+00 0. -1.
        -24    2    1    2    0    0 -0.27162515445E+02 -0.39522162905E+02 -0.21310272240E+02  0.93526503161E+02  0.77416248195E+02 0.  0.
         25    2    1    2    0    0  0.31354206957E+02  0.72768537693E+02  0.60932111839E+03  0.62705502085E+03  0.12508967779E+03 0.  0.
         24    2    1    2    0    0 -0.41916915115E+01 -0.33246374788E+02  0.81410382030E+03  0.81895539215E+03  0.82462187636E+02 0.  0.
        -13    1    5    5    0    0  0.31841772336E+02 -0.12399820731E+02  0.16410652828E+03  0.16762639005E+03  0.00000000000E+00 0.  1.
         14    1    5    5    0    0 -0.36033463847E+02 -0.20846554056E+02  0.64999729202E+03  0.65132900209E+03  0.00000000000E+00 0. -1.
         11    1    3    3    0    0 -0.30166987979E+02 -0.42023391085E+02 -0.45578755523E+02  0.68945163115E+02  0.00000000000E+00 0. -1.
        -12    1    3    3    0    0  0.30044725334E+01  0.25012281793E+01  0.24268483283E+02  0.24581340046E+02  0.00000000000E+00 0.  1.
          5    1    4    4  501    0  0.13852137783E+02 -0.28868853462E+02  0.60168707177E+02  0.68286441880E+02  0.41800000000E+01 0. -1.
         -5    1    4    4    0  501  0.17502069173E+02  0.10163739115E+03  0.54915241121E+03  0.55876857897E+03  0.41800000000E+01 0. -1.
</event>
<event>
11    1  0.8039394E-009  0.1311956E+03  0.7561462E-02  0.1117809E+00
         22   -1    0    0    0    0  0.00000000000E+00  0.00000000000E+00  0.45097741227E+02  0.45097741227E+02  0.00000000000E+00 0. -1.
         22   -1    0    0    0    0 -0.00000000000E+00 -0.00000000000E+00 -0.11089439109E+04  0.11089439109E+04  0.00000000000E+00 0.  1.
         24    2    1    2    0    0  0.32169873943E+02 -0.31593107099E+02 -0.63223882711E+03  0.63878822402E+03  0.79318569259E+02 0.  0.
         25    2    1    2    0    0 -0.19671612452E+02  0.12856142829E+02 -0.40656653969E+03  0.42602387728E+03  0.12509092723E+03 0.  0.
        -24    2    1    2    0    0 -0.12498261491E+02  0.18736964270E+02 -0.25040802876E+02  0.89229550832E+02  0.82629235521E+02 0.  0.
        -11    1    3    3    0    0  0.42247629037E+02  0.14027531796E+02 -0.30613998019E+03  0.30935953400E+03  0.00000000000E+00 0.  1.
         12    1    3    3    0    0 -0.10077755094E+02 -0.45620638894E+02 -0.32609884692E+03  0.32942869002E+03  0.00000000000E+00 0. -1.
         11    1    5    5    0    0 -0.30996453049E+02  0.37593441116E+02 -0.36051604438E+02  0.60611592118E+02  0.00000000000E+00 0. -1.
        -12    1    5    5    0    0  0.18498191558E+02 -0.18856476846E+02  0.11010801562E+02  0.28617958714E+02  0.00000000000E+00 0.  1.
          5    1    4    4  501    0 -0.56484937478E+02  0.17303275425E+02 -0.36656858312E+03  0.37132189544E+03  0.41800000000E+01 0. -1.
         -5    1    4    4    0  501  0.36813325027E+02 -0.44471325963E+01 -0.39997956570E+02  0.54701981843E+02  0.41800000000E+01 0. -1.
</event>
<event>
11    1  0.8039394E-009  0.6063668E+03  0.7561462E-02  0.9182944E-01
         22   -1    0    0    0    0  0.00000000000E+00  0.00000000000E+00  0.10355143870E+04  0.10355143870E+04  0.00000000000E+00 0.  1.
         22   -1    0    0    0    0 -0.00000000000E+00 -0.00000000000E+00 -0.98385027439E+03  0.98385027439E+03  0.00000000000E+00 0.  1.
         24    2    1    2    0    0  0.52998558548E+03  0.33847880404E+03 -0.30565264305E+03  0.70383845288E+03  0.80699491612E+02 0.  0.
         25    2    1    2    0    0 -0.30227435666E+03 -0.50664241016E+03 -0.24063813964E+03  0.64931550401E+03  0.12509033151E+03 0.  0.
        -24    2    1    2    0    0 -0.22771122882E+03  0.16816360611E+03  0.59795489532E+03  0.66621070452E+03  0.78455361968E+02 0.  0.
        -13    1    3    3    0    0  0.47766316473E+03  0.32408398889E+03 -0.29608034648E+03  0.64873423092E+03  0.00000000000E+00 0.  1.
         14    1    3    3    0    0  0.52322420746E+02  0.14394815153E+02 -0.95722965717E+01  0.55104221958E+02  0.00000000000E+00 0. -1.
         11    1    5    5    0    0 -0.21620764875E+03  0.12686654363E+03  0.50175581978E+03  0.56089194143E+03  0.00000000000E+00 0. -1.
        -12    1    5    5    0    0 -0.11503580070E+02  0.41297062488E+02  0.96199075540E+02  0.10531876309E+03  0.00000000000E+00 0.  1.
          5    1    4    4  501    0 -0.92378359279E+02 -0.18431283782E+03 -0.23372926956E+02  0.20753011724E+03  0.41800000000E+01 0. -1.
         -5    1    4    4    0  501 -0.20989599738E+03 -0.32232957234E+03 -0.21726521269E+03  0.44178538677E+03  0.41800000000E+01 0. -1.
</event>
<event>
11    1  0.8039394E-009  0.1364567E+03  0.7561462E-02  0.1111581E+00
         22   -1    0    0    0    0  0.00000000000E+00  0.00000000000E+00  0.63495715586E+03  0.63495715586E+03  0.00000000000E+00 0. -1.
         22   -1    0    0    0    0 -0.00000000000E+00 -0.00000000000E+00 -0.34335140407E+03  0.34335140407E+03  0.00000000000E+00 0.  1.
        -24    2    1    2    0    0 -0.24202645362E+02  0.29432887989E+01 -0.29237348191E+03  0.30395689744E+03  0.79455091639E+02 0.  0.
         25    2    1    2    0    0  0.37028687913E+02 -0.54957442089E+02  0.83029691847E+02  0.16411668853E+03  0.12509561766E+03 0.  0.
         24    2    1    2    0    0 -0.12826042552E+02  0.52014153290E+02  0.50094954185E+03  0.51023497396E+03  0.80742217330E+02 0.  0.
        -13    1    5    5    0    0 -0.26791857633E+02 -0.12838264980E+02  0.12540067135E+03  0.12887184742E+03  0.00000000000E+00 0.  1.
         14    1    5    5    0    0  0.13965815081E+02  0.64852418270E+02  0.37554887051E+03  0.38136312654E+03  0.00000000000E+00 0. -1.
         13    1    3    3    0    0  0.20736760094E+02 -0.12512219862E+02 -0.37154695114E+02  0.44351327310E+02  0.00000000000E+00 0. -1.
        -14    1    3    3    0    0 -0.44939405456E+02  0.15455508661E+02 -0.25521878679E+03  0.25960557013E+03  0.00000000000E+00 0.  1.
          5    1    4    4  501    0  0.32345103304E+02  0.21501932807E+02 -0.13031931817E+02  0.41180607925E+02  0.41800000000E+01 0.  1.
         -5    1    4    4    0  501  0.46835846096E+01 -0.76459374896E+02  0.96061623664E+02  0.12293608061E+03  0.41800000000E+01 0.  1.
</event>
<event>
11    1  0.8039394E-009  0.1407097E+03  0.7561462E-02  0.1106769E+00
         22   -1    0    0    0    0  0.00000000000E+00  0.00000000000E+00  0.47357099507E+03  0.47357099507E+03  0.00000000000E+00 0.  1.
         22   -1    0    0    0    0 -0.00000000000E+00 -0.00000000000E+00 -0.11983030556E+04  0.11983030556E+04  0.00000000000E+00 0.  1.
        -24    2    1    2    0    0  0.59244649009E+02 -0.22969954341E+02 -0.74878908046E+03  0.75569697727E+03  0.79720055199E+02 0.  0.
         25    2    1    2    0    0 -0.72182191688E+02 -0.42502911893E+01 -0.43025816602E+03  0.45387403312E+03  0.12510481501E+03 0.  0.
         24    2    1    2    0    0  0.12937542679E+02  0.27220245530E+02  0.45431518596E+03  0.46230304026E+03  0.80084274754E+02 0.  0.
        -11    1    5    5    0    0 -0.29634864713E+02  0.49115167155E+01  0.27578970043E+03  0.27742081224E+03  0.00000000000E+00 0.  1.
         12    1    5    5    0    0  0.42572407392E+02  0.22308728815E+02  0.17852548553E+03  0.18488222802E+03  0.00000000000E+00 0. -1.
         13    1    3    3    0    0 -0.12689649200E+02 -0.25979256622E+02 -0.26645252183E+03  0.26801659531E+03  0.00000000000E+00 0. -1.
        -14    1    3    3    0    0  0.71934298209E+02  0.30093022806E+01 -0.48233655862E+03  0.48768038195E+03  0.00000000000E+00 0.  1.
          5    1    4    4  501    0 -0.10766631507E+03 -0.99553713567E+01 -0.31463397322E+03  0.33272083542E+03  0.41800000000E+01 0.  1.
         -5    1    4    4    0  501  0.35484123378E+02  0.57050801675E+01 -0.11562419280E+03  0.12115319770E+03  0.41800000000E+01 0.  1.
</event>
<event>
11    1  0.8039394E-009  0.1408858E+03  0.7561462E-02  0.1106573E+00
         22   -1    0    0    0    0  0.00000000000E+00  0.00000000000E+00  0.35551423575E+03  0.35551423575E+03  0.00000000000E+00 0.  1.
         22   -1    0    0    0    0 -0.00000000000E+00 -0.00000000000E+00 -0.22474257533E+03  0.22474257533E+03  0.00000000000E+00 0. -1.
         24    2    1    2    0    0  0.44804921527E+02  0.48463337445E+02 -0.13622900895E+03  0.17257616739E+03  0.82873485517E+02 0.  0.
         25    2    1    2    0    0 -0.23202919445E+02 -0.58919490347E+02  0.13517756859E+02  0.14085480493E+03  0.12508982575E+03 0.  0.
        -24    2    1    2    0    0 -0.21602002082E+02  0.10456152901E+02  0.25348291251E+03  0.26682583876E+03  0.79790122621E+02 0.  0.
        -13    1    3    3    0    0  0.67550985797E+00  0.23776331551E+02  0.34420855597E+01  0.24033689034E+02  0.00000000000E+00 0.  1.
         14    1    3    3    0    0  0.44129411669E+02  0.24687005894E+02 -0.13967109451E+03  0.14854247835E+03  0.00000000000E+00 0. -1.
         13    1    5    5    0    0  0.23964589448E+02  0.21878389326E+02  0.65978644318E+02  0.73526505241E+02  0.00000000000E+00 0. -1.
        -14    1    5    5    0    0 -0.45566591530E+02 -0.11422236424E+02  0.18750426819E+03  0.19329933352E+03  0.00000000000E+00 0.  1.
          5    1    4    4  501    0  0.93849910305E+01 -0.29125836551E+02  0.65563982292E+02  0.72474137356E+02  0.41800000000E+01 0. -1.
         -5    1    4    4    0  501 -0.32587910475E+02 -0.29793653796E+02 -0.52046225434E+02  0.68380667572E+02  0.41800000000E+01 0. -1.
</event>
<event>
11    1  0.8039394E-009  0.1556512E+03  0.7561462E-02  0.1091240E+00
         22   -1    0    0    0    0  0.00000000000E+00  0.00000000000E+00  0.11155883264E+04  0.11155883264E+04  0.00000000000E+00 0.  1.
         22   -1    0    0    0    0 -0.00000000000E+00 -0.00000000000E+00 -0.58967903287E+03  0.58967903287E+03  0.00000000000E+00 0. -1.
        -24    2    1    2    0    0 -0.63530852009E+01  0.46467729892E+02 -0.53401338245E+03  0.54218248504E+03  0.81190780520E+02 0.  0.
         25    2    1    2    0    0  0.71165751350E+02 -0.10877263568E+03  0.12241783926E+03  0.21801367390E+03  0.12509110361E+03 0.  0.
         24    2    1    2    0    0 -0.64812666150E+02  0.62304905789E+02  0.93750483673E+03  0.94507120033E+03  0.78496317203E+02 0.  0.
        -11    1    5    5    0    0 -0.61190453115E+02  0.59113661290E+02  0.93621689529E+03  0.94007487549E+03  0.00000000000E+00 0.  1.
         12    1    5    5    0    0 -0.36222130348E+01  0.31912444997E+01  0.12879414435E+01  0.49963248381E+01  0.00000000000E+00 0. -1.
         13    1    3    3    0    0 -0.65855383455E+01  0.67688820041E+02 -0.46595729885E+03  0.47089420258E+03  0.00000000000E+00 0. -1.
        -14    1    3    3    0    0  0.23245314459E+00 -0.21221090150E+02 -0.68056083602E+02  0.71288282466E+02  0.00000000000E+00 0.  1.
          5    1    4    4  501    0  0.84728155910E+01 -0.13860926613E+02 -0.26019589607E+02  0.30958122261E+02  0.41800000000E+01 0.  1.
         -5    1    4    4    0  501  0.62692935759E+02 -0.94911709068E+02  0.14843742886E+03  0.18705555164E+03  0.41800000000E+01 0.  1.
</event>
<event>
11    1  0.9561614E-009  0.1686717E+03  0.7561462E-02  0.1079193E+00
         22   -1    0    0    0    0  0.00000000000E+00  0.00000000000E+00  0.78275015494E+03  0.78275015494E+03  0.00000000000E+00 0.  1.
         22   -1    0    0    0    0 -0.00000000000E+00 -0.00000000000E+00 -0.10535919786E+04  0.10535919786E+04  0.00000000000E+00 0. -1.
        -24    2    1    2    0    0  0.44569880435E+02  0.34359270118E+02 -0.85497441233E+03  0.86055431237E+03  0.80034024748E+02 0.  0.
         25    2    1    2    0    0 -0.10354247720E+03 -0.12885868736E+03 -0.13255176580E+03  0.24605441344E+03  0.12508875995E+03 0.  0.
         24    2    1    2    0    0  0.58972596761E+02  0.94499417241E+02  0.71668435448E+03  0.72973340771E+03  0.80414397608E+02 0.  0.
        -11    1    5    5    0    0  0.53966926791E+02  0.16270515982E+02  0.37211684972E+03  0.37636167276E+03  0.00000000000E+00 0.  1.
         12    1    5    5    0    0  0.50056699696E+01  0.78228901259E+02  0.34456750476E+03  0.35337173495E+03  0.00000000000E+00 0. -1.
         13    1    3    3    0    0  0.40953936272E+02  0.32994695474E+02 -0.85507240667E+03  0.85668821369E+03  0.00000000000E+00 0. -1.
        -14    1    3    3    0    0  0.36159441624E+01  0.13645746445E+01  0.97994338149E-01  0.38660986842E+01  0.00000000000E+00 0.  1.
          5    1    4    4  501    0 -0.12467433661E+02 -0.64736239602E+02 -0.11583299223E+03  0.13334531154E+03  0.41800000000E+01 0.  1.
         -5    1    4    4    0  501 -0.91075043534E+02 -0.64122447757E+02 -0.16718773564E+02  0.11270910190E+03  0.41800000000E+01 0.  1.
</event>
<event>
11    1  0.8039394E-009  0.1365773E+03  0.7561462E-02  0.1111442E+00
         22   -1    0    0    0    0  0.00000000000E+00  0.00000000000E+00  0.18532997917E+03  0.18532997917E+03  0.00000000000E+00 0.  1.
         22   -1    0    0    0    0 -0.00000000000E+00 -0.00000000000E+00 -0.26707100425E+03  0.26707100425E+03  0.00000000000E+00 0.  1.
         24    2    1    2    0    0 -0.13891226386E+01 -0.53031477781E+02 -0.18029406331E+03  0.20455194426E+03  0.80754450891E+02 0.  0.
         25    2    1    2    0    0  0.16670591868E+02  0.68354627276E+02  0.43567105758E+02  0.14998632083E+03  0.12509012762E+03 0.  0.
        -24    2    1    2    0    0 -0.15281469229E+02 -0.15323149495E+02  0.54985932482E+02  0.97862718325E+02  0.78008567830E+02 0.  0.
        -11    1    3    3    0    0 -0.77756976373E+01 -0.31485496632E+02 -0.17913754924E+03  0.18204960730E+03  0.00000000000E+00 0.  1.
         12    1    3    3    0    0  0.63865749987E+01 -0.21545981148E+02 -0.11565140741E+01  0.22502336960E+02  0.00000000000E+00 0. -1.
         11    1    5    5    0    0  0.19008581551E+02 -0.80322698958E+01 -0.10820650801E+02  0.23300858697E+02  0.00000000000E+00 0. -1.
        -12    1    5    5    0    0 -0.34290050780E+02 -0.72908795993E+01  0.65806583283E+02  0.74561859628E+02  0.00000000000E+00 0.  1.
          5    1    4    4  501    0  0.43288263398E+02 -0.14501781653E+02 -0.11048438198E+02  0.47156291264E+02  0.41800000000E+01 0. -1.
         -5    1    4    4    0  501 -0.26617671530E+02  0.82856408929E+02  0.54615543956E+02  0.10283002956E+03  0.41800000000E+01 0. -1.
</event>
<event>
11    1  0.8039394E-009  0.3366483E+03  0.7561462E-02  0.9857727E-01
         22   -1    0    0    0    0  0.00000000000E+00  0.00000000000E+00  0.39038934919E+03  0.39038934919E+03  0.00000000000E+00 0. -1.
         22   -1    0    0    0    0 -0.00000000000E+00 -0.00000000000E+00 -0.12438192935E+04  0.12438192935E+04  0.00000000000E+00 0. -1.
        -24    2    1    2    0    0 -0.40046777365E+01 -0.31248695740E+02 -0.80576797813E+03  0.81030832457E+03  0.79655683090E+02 0.  0.
         25    2    1    2    0    0  0.11521294318E+03 -0.26663239913E+03 -0.27961057956E+03  0.42213349892E+03  0.12509099154E+03 0.  0.
         24    2    1    2    0    0 -0.11120826544E+03  0.29788109487E+03  0.23194861339E+03  0.40176681921E+03  0.80721699547E+02 0.  0.
        -11    1    5    5    0    0 -0.54485479917E+01  0.39958305587E+02  0.66003859306E+02  0.77348964465E+02  0.00000000000E+00 0.  1.
         12    1    5    5    0    0 -0.10575971745E+03  0.25792278928E+03  0.16594475409E+03  0.32441785474E+03  0.00000000000E+00 0. -1.
         11    1    3    3    0    0 -0.20311832746E+02  0.19836016276E+02 -0.17752042248E+03  0.17977635687E+03  0.00000000000E+00 0. -1.
        -12    1    3    3    0    0  0.16307155010E+02 -0.51084712016E+02 -0.62824755566E+03  0.63053196770E+03  0.00000000000E+00 0.  1.
          5    1    4    4  501    0  0.10996087812E+03 -0.12270833118E+03 -0.19389996610E+03  0.25448653896E+03  0.41800000000E+01 0. -1.
         -5    1    4    4    0  501  0.52520650567E+01 -0.14392406795E+03 -0.85710613462E+02  0.16764695996E+03  0.41800000000E+01 0. -1.
</event>
<event>
11    1  0.8039394E-009  0.1494081E+03  0.7561462E-02  0.1097485E+00
         22   -1    0    0    0    0  0.00000000000E+00  0.00000000000E+00  0.18071956343E+03  0.18071956343E+03  0.00000000000E+00 0.  1.
         22   -1    0    0    0    0 -0.00000000000E+00 -0.00000000000E+00 -0.10979165950E+04  0.10979165950E+04  0.00000000000E+00 0.  1.
         24    2    1    2    0    0  0.30803379530E+02 -0.26725896419E+02 -0.56915598952E+03  0.57614439569E+03  0.79628528484E+02 0.  0.
         25    2    1    2    0    0 -0.24958589892E+02  0.10736018220E+03 -0.49329823547E+03  0.52071075612E+03  0.12508957789E+03 0.  0.
        -24    2    1    2    0    0 -0.58447896376E+01 -0.80634285781E+02  0.14525719337E+03  0.18178100666E+03  0.73543405857E+02 0.  0.
        -11    1    3    3    0    0  0.18331300294E+02 -0.28308629415E+02 -0.55890820139E+03  0.55992480982E+03  0.00000000000E+00 0.  1.
         12    1    3    3    0    0  0.12472079236E+02  0.15827329961E+01 -0.10247788125E+02  0.16219585866E+02  0.00000000000E+00 0. -1.
         11    1    5    5    0    0 -0.30715821893E+02 -0.31102920184E+02  0.27531413007E+02  0.51660740033E+02  0.00000000000E+00 0. -1.
        -12    1    5    5    0    0  0.24871032256E+02 -0.49531365597E+02  0.11772578037E+03  0.13012026662E+03  0.00000000000E+00 0.  1.
          5    1    4    4  501    0  0.44958384689E+02  0.49826941173E+02 -0.13104539015E+03  0.14729001018E+03  0.41800000000E+01 0.  1.
         -5    1    4    4    0  501 -0.69916974581E+02  0.57533241026E+02 -0.36225284532E+03  0.37342074594E+03  0.41800000000E+01 0.  1.
</event>
<event>
11    1  0.8039394E-009  0.5119433E+03  0.7561462E-02  0.9367223E-01
         22   -1    0    0    0    0  0.00000000000E+00  0.00000000000E+00  0.59833254934E+03  0.59833254934E+03  0.00000000000E+00 0. -1.
         22   -1    0    0    0    0 -0.00000000000E+00 -0.00000000000E+00 -0.12012698663E+04  0.12012698663E+04  0.00000000000E+00 0. -1.
         24    2    1    2    0    0  0.79553757738E+02  0.24373430830E+02 -0.32003823528E+03  0.34177136166E+03  0.86373185125E+02 0.  0.
         25    2    1    2    0    0  0.20687689949E+03  0.39261458139E+03 -0.67166146873E+03  0.81469024529E+03  0.12508719410E+03 0.  0.
        -24    2    1    2    0    0 -0.28643065723E+03 -0.41698801222E+03  0.38876238706E+03  0.64314080868E+03  0.81070231614E+02 0.  0.
        -11    1    3    3    0    0  0.22595808214E+02  0.36488864484E+02 -0.23384469899E+03  0.23775060679E+03  0.00000000000E+00 0.  1.
         12    1    3    3    0    0  0.56957949524E+02 -0.12115433655E+02 -0.86193536287E+02  0.10402075487E+03  0.00000000000E+00 0. -1.
         13    1    5    5    0    0 -0.21191606479E+03 -0.28348513091E+03  0.31311148850E+03  0.47255797760E+03  0.00000000000E+00 0. -1.
        -14    1    5    5    0    0 -0.74514592434E+02 -0.13350288131E+03  0.75650898563E+02  0.17058283107E+03  0.00000000000E+00 0.  1.
          5    1    4    4  501    0  0.67617260097E+02  0.44252211607E+02 -0.16971495330E+03  0.18801858915E+03  0.41800000000E+01 0.  1.
         -5    1    4    4    0  501  0.13925963939E+03  0.34836236978E+03 -0.50194651543E+03  0.62667165613E+03  0.41800000000E+01 0.  1.
</event>
<event>
11    1  0.8039394E-009  0.1604164E+03  0.7561462E-02  0.1086686E+00
         22   -1    0    0    0    0  0.00000000000E+00  0.00000000000E+00  0.76003951560E+03  0.76003951560E+03  0.00000000000E+00 0.  1.
         22   -1    0    0    0    0 -0.00000000000E+00 -0.00000000000E+00 -0.29936774037E+04  0.29936774037E+04  0.00000000000E+00 0. -1.
         24    2    1    2    0    0 -0.98223373932E+02  0.20742786726E+02 -0.29587334483E+04  0.29615243626E+04  0.80279745076E+02 0.  0.
         25    2    1    2    0    0  0.92135311890E+02 -0.83644981272E+02  0.25398030227E+03  0.30925661437E+03  0.12509300941E+03 0.  0.
        -24    2    1    2    0    0  0.60880620425E+01  0.62902194546E+02  0.47111525800E+03  0.48293594232E+03  0.85345108106E+02 0.  0.
        -11    1    3    3    0    0 -0.20387495134E+02  0.42455620915E+02 -0.12353901369E+04  0.12362875556E+04  0.00000000000E+00 0.  1.
         12    1    3    3    0    0 -0.77835878799E+02 -0.21712834189E+02 -0.17233433114E+04  0.17252368070E+04  0.00000000000E+00 0. -1.
         11    1    5    5    0    0  0.36952864072E+02  0.90186428787E+01  0.10691709307E+03  0.11348178212E+03  0.00000000000E+00 0. -1.
        -12    1    5    5    0    0 -0.30864802029E+02  0.53883551667E+02  0.36419816493E+03  0.36945416019E+03  0.00000000000E+00 0.  1.
          5    1    4    4  501    0 -0.26530970391E+02 -0.15297075516E+02  0.16368009717E+02  0.34975377787E+02  0.41800000000E+01 0. -1.
         -5    1    4    4    0  501  0.11866628228E+03 -0.68347905756E+02  0.23761229255E+03  0.27428123658E+03  0.41800000000E+01 0. -1.
</event>
<event>
11    1  0.8039394E-009  0.2374468E+03  0.7561462E-02  0.1030807E+00
         22   -1    0    0    0    0  0.00000000000E+00  0.00000000000E+00  0.13996363643E+03  0.13996363643E+03  0.00000000000E+00 0. -1.
         22   -1    0    0    0    0 -0.00000000000E+00 -0.00000000000E+00 -0.86014509801E+03  0.86014509801E+03  0.00000000000E+00 0. -1.
         24    2    1    2    0    0  0.29299248983E+02 -0.32041683781E+02 -0.46022140515E+03  0.46915979493E+03  0.80137730959E+02 0.  0.
         25    2    1    2    0    0 -0.13306428662E+03  0.18471823707E+03 -0.16591568494E+03  0.30822439673E+03  0.12508929909E+03 0.  0.
        -24    2    1    2    0    0  0.10376503764E+03 -0.15267655329E+03 -0.94044371487E+02  0.22272454279E+03  0.81759190263E+02 0.  0.
        -13    1    3    3    0    0  0.42904283227E+02 -0.20217198829E+02 -0.12890814557E+03  0.13735655296E+03  0.00000000000E+00 0.  1.
         14    1    3    3    0    0 -0.13605034244E+02 -0.11824484952E+02 -0.33131325958E+03  0.33180324196E+03  0.00000000000E+00 0. -1.
         11    1    5    5    0    0  0.10332655614E+03 -0.15803536026E+03 -0.75389733391E+02  0.20331051177E+03  0.00000000000E+00 0. -1.
        -12    1    5    5    0    0  0.43848149699E+00  0.53588069629E+01 -0.18654638096E+02  0.19414031023E+02  0.00000000000E+00 0.  1.
          5    1    4    4  501    0  0.57519013242E+01  0.67773920338E+02 -0.86340154509E+02  0.10999310582E+03  0.41800000000E+01 0. -1.
         -5    1    4    4    0  501 -0.13881618795E+03  0.11694431674E+03 -0.79575530430E+02  0.19823129091E+03  0.41800000000E+01 0. -1.
</event>
<event>
11    1  0.1127759E-008  0.1580234E+03  0.7561462E-02  0.1088951E+00
         22   -1    0    0    0    0  0.00000000000E+00  0.00000000000E+00  0.87653068655E+03  0.87653068655E+03  0.00000000000E+00 0.  1.
         22   -1    0    0    0    0 -0.00000000000E+00 -0.00000000000E+00 -0.84919914052E+03  0.84919914052E+03  0.00000000000E+00 0. -1.
         24    2    1    2    0    0  0.33312455278E+02 -0.62507605960E+01 -0.52593702140E+03  0.53324414239E+03  0.81183577348E+02 0.  0.
         25    2    1    2    0    0 -0.12252227511E+03 -0.29588878015E+02 -0.28988633100E+03  0.33995437067E+03  0.12509068566E+03 0.  0.
        -24    2    1    2    0    0  0.89209819833E+02  0.35839638611E+02  0.84315489843E+03  0.85253131400E+03  0.81587909356E+02 0.  0.
        -11    1    3    3    0    0 -0.22440478110E+01 -0.43803829450E+01  0.10691647393E+01  0.50365284237E+01  0.00000000000E+00 0.  1.
         12    1    3    3    0    0  0.35556503089E+02 -0.18703776511E+01 -0.52700618614E+03  0.52820761397E+03  0.00000000000E+00 0. -1.
         11    1    5    5    0    0  0.29391188187E+02  0.33633111415E+01  0.65118463458E+02  0.71523199649E+02  0.00000000000E+00 0. -1.
        -12    1    5    5    0    0  0.59818631646E+02  0.32476327469E+02  0.77803643497E+03  0.78100811435E+03  0.00000000000E+00 0.  1.
          5    1    4    4  501    0 -0.90596380434E+02  0.34623587618E+02 -0.11261014827E+03  0.14867755332E+03  0.41800000000E+01 0.  1.
         -5    1    4    4    0  501 -0.31925894678E+02 -0.64212465633E+02 -0.17727618273E+03  0.19127681736E+03  0.41800000000E+01 0.  1.
</event>
<event>
11    1  0.8039394E-009  0.1436197E+03  0.7561462E-02  0.1103582E+00
         22   -1    0    0    0    0  0.00000000000E+00  0.00000000000E+00  0.13707468088E+04  0.13707468088E+04  0.00000000000E+00 0.  1.
         22   -1    0    0    0    0 -0.00000000000E+00 -0.00000000000E+00 -0.63248862710E+03  0.63248862710E+03  0.00000000000E+00 0. -1.
         24    2    1    2    0    0  0.31574340135E+02 -0.31476999439E+02 -0.58113314336E+03  0.58844615159E+03  0.81027171770E+02 0.  0.
         25    2    1    2    0    0 -0.83276592317E+02  0.76259243310E+02  0.11101267298E+03  0.20180116713E+03  0.12509769971E+03 0.  0.
        -24    2    1    2    0    0  0.51702252182E+02 -0.44782243871E+02  0.12083786521E+04  0.12129881172E+04  0.80514802439E+02 0.  0.
        -13    1    3    3    0    0  0.46523496913E+02 -0.16768817690E+02 -0.17726807566E+03  0.18403695189E+03  0.00000000000E+00 0.  1.
         14    1    3    3    0    0 -0.14949156778E+02 -0.14708181749E+02 -0.40386506770E+03  0.40440919970E+03  0.00000000000E+00 0. -1.
         13    1    5    5    0    0  0.95481665298E+01  0.23291309818E+02  0.24608324262E+03  0.24736736829E+03  0.00000000000E+00 0. -1.
        -14    1    5    5    0    0  0.42154085652E+02 -0.68073553689E+02  0.96229540947E+03  0.96562074892E+03  0.00000000000E+00 0.  1.
          5    1    4    4  501    0 -0.66597781321E+02  0.47957481483E+01  0.10945528317E+03  0.12828170209E+03  0.41800000000E+01 0. -1.
         -5    1    4    4    0  501 -0.16678810996E+02  0.71463495162E+02  0.15573898175E+01  0.73519465042E+02  0.41800000000E+01 0. -1.
</event>
<event>
11    1  0.8039394E-009  0.2126950E+03  0.7561462E-02  0.1045892E+00
         22   -1    0    0    0    0  0.00000000000E+00  0.00000000000E+00  0.86450000022E+03  0.86450000022E+03  0.00000000000E+00 0. -1.
         22   -1    0    0    0    0 -0.00000000000E+00 -0.00000000000E+00 -0.16114520446E+04  0.16114520446E+04  0.00000000000E+00 0.  1.
        -24    2    1    2    0    0 -0.68767320333E+02  0.15853684559E+03 -0.15771932581E+04  0.15889960861E+04  0.86643595395E+02 0.  0.
         25    2    1    2    0    0  0.22050450777E+02 -0.12796629835E+03  0.32232072046E+03  0.36932114717E+03  0.12508344021E+03 0.  0.
         24    2    1    2    0    0  0.46716869556E+02 -0.30570547239E+02  0.50792049323E+03  0.51763481153E+03  0.82737817265E+02 0.  0.
        -13    1    5    5    0    0 -0.11310592504E+02 -0.32511674767E+02  0.29281713569E+03  0.29483353516E+03  0.00000000000E+00 0.  1.
         14    1    5    5    0    0  0.58027462060E+02  0.19411275281E+01  0.21510335754E+03  0.22280127638E+03  0.00000000000E+00 0. -1.
         11    1    3    3    0    0 -0.30740531834E+02  0.90293788063E+01 -0.14384026899E+03  0.14736530447E+03  0.00000000000E+00 0. -1.
        -12    1    3    3    0    0 -0.38026788499E+02  0.14950746678E+03 -0.14333529891E+04  0.14416307817E+04  0.00000000000E+00 0.  1.
          5    1    4    4  501    0 -0.32578614215E+01 -0.10049312719E+03  0.93275871222E+02  0.13721276480E+03  0.41800000000E+01 0.  1.
         -5    1    4    4    0  501  0.25308312198E+02 -0.27473171159E+02  0.22904484924E+03  0.23210838237E+03  0.41800000000E+01 0.  1.
</event>
<event>
11    1  0.8039394E-009  0.1436300E+03  0.7561462E-02  0.1103571E+00
         22   -1    0    0    0    0  0.00000000000E+00  0.00000000000E+00  0.13556304783E+04  0.13556304783E+04  0.00000000000E+00 0. -1.
         22   -1    0    0    0    0 -0.00000000000E+00 -0.00000000000E+00 -0.21591600528E+03  0.21591600528E+03  0.00000000000E+00 0. -1.
         24    2    1    2    0    0 -0.10952713371E+02 -0.64563613568E+02 -0.15266448050E+03  0.18473244642E+03  0.80815908239E+02 0.  0.
         25    2    1    2    0    0  0.39566271625E+02  0.12220513200E+03  0.13408961277E+03  0.22389576569E+03  0.12509878297E+03 0.  0.
        -24    2    1    2    0    0 -0.28613558254E+02 -0.57641518437E+02  0.11582893407E+04  0.11629182714E+04  0.81261484560E+02 0.  0.
        -13    1    3    3    0    0  0.60201724623E+01 -0.50265760469E+01  0.88109815587E+01  0.11795861107E+02  0.00000000000E+00 0.  1.
         14    1    3    3    0    0 -0.16972885834E+02 -0.59537037521E+02 -0.16147546206E+03  0.17293658531E+03  0.00000000000E+00 0. -1.
         13    1    5    5    0    0  0.45353126263E+01 -0.65676147325E+02  0.89691572239E+03  0.89932849308E+03  0.00000000000E+00 0. -1.
        -14    1    5    5    0    0 -0.33148870880E+02  0.80346288884E+01  0.26137361833E+03  0.26358977836E+03  0.00000000000E+00 0.  1.
          5    1    4    4  501    0 -0.17665145916E+02  0.10090648171E+03  0.36755825694E+02  0.10891574062E+03  0.41800000000E+01 0. -1.
         -5    1    4    4    0  501  0.57231417540E+02  0.21298650292E+02  0.97333787077E+02  0.11498002507E+03  0.41800000000E+01 0. -1.
</event>
<event>
11    1  0.8039394E-009  0.1460042E+03  0.7561462E-02  0.1101033E+00
         22   -1    0    0    0    0  0.00000000000E+00  0.00000000000E+00  0.25893443414E+03  0.25893443414E+03  0.00000000000E+00 0. -1.
         22   -1    0    0    0    0 -0.00000000000E+00 -0.00000000000E+00 -0.83237298970E+03  0.83237298970E+03  0.00000000000E+00 0.  1.
        -24    2    1    2    0    0  0.62839234857E+01  0.53751462258E+01 -0.41999290313E+03  0.42779813521E+03  0.80924816459E+02 0.  0.
         25    2    1    2    0    0 -0.78026406918E+02 -0.27455644987E+02 -0.38172841710E+03  0.41012944136E+03  0.12509053373E+03 0.  0.
         24    2    1    2    0    0  0.71742483432E+02  0.22080498761E+02  0.22828276468E+03  0.25337984727E+03  0.80335508948E+02 0.  0.
        -11    1    5    5    0    0 -0.17484884586E+02  0.11644086233E+01  0.48841327343E+02  0.51889809144E+02  0.00000000000E+00 0.  1.
         12    1    5    5    0    0  0.89227368018E+02  0.20916090138E+02  0.17944143733E+03  0.20149003812E+03  0.00000000000E+00 0. -1.
         13    1    3    3    0    0 -0.36510568932E+02 -0.31408372947E+01 -0.15778654157E+03  0.16198604632E+03  0.00000000000E+00 0. -1.
        -14    1    3    3    0    0  0.42794492417E+02  0.85159835205E+01 -0.26220636156E+03  0.26581208889E+03  0.00000000000E+00 0.  1.
          5    1    4    4  501    0  0.11822373168E+02 -0.32638652209E+02 -0.27105147672E+02  0.44240383765E+02  0.41800000000E+01 0. -1.
         -5    1    4    4    0  501 -0.89848780086E+02  0.51830072218E+01 -0.35462326943E+03  0.36588905760E+03  0.41800000000E+01 0. -1.
</event>
<event>
11    1  0.8039394E-009  0.1365957E+03  0.7561462E-02  0.1111421E+00
         22   -1    0    0    0    0  0.00000000000E+00  0.00000000000E+00  0.11226028662E+04  0.11226028662E+04  0.00000000000E+00 0.  1.
         22   -1    0    0    0    0 -0.00000000000E+00 -0.00000000000E+00 -0.10272657120E+03  0.10272657120E+03  0.00000000000E+00 0.  1.
        -24    2    1    2    0    0 -0.43339162763E+02 -0.30510817595E+02 -0.48424624052E+02  0.10772797066E+03  0.80319228258E+02 0.  0.
         25    2    1    2    0    0  0.43547807690E+02  0.57684677822E+02  0.20881406750E+03  0.25392218620E+03  0.12509687546E+03 0.  0.
         24    2    1    2    0    0 -0.20864492655E+00 -0.27173860227E+02  0.85948685153E+03  0.86367928052E+03  0.80534399091E+02 0.  0.
        -13    1    5    5    0    0 -0.33017876998E+02  0.20294657603E+01  0.56139234697E+03  0.56236613177E+03  0.00000000000E+00 0.  1.
         14    1    5    5    0    0  0.32809232071E+02 -0.29203325988E+02  0.29809450456E+03  0.30131314875E+03  0.00000000000E+00 0. -1.
         11    1    3    3    0    0  0.11518994959E+02 -0.21745470760E+02 -0.45943363025E+02  0.52118570102E+02  0.00000000000E+00 0. -1.
        -12    1    3    3    0    0 -0.54858157722E+02 -0.87653468351E+01 -0.24812610271E+01  0.55609400555E+02  0.00000000000E+00 0.  1.
          5    1    4    4  501    0 -0.16776979692E+02 -0.28756237206E+02  0.84274192474E+02  0.90708324552E+02  0.41800000000E+01 0. -1.
         -5    1    4    4    0  501  0.60324787382E+02  0.86440915028E+02  0.12453987502E+03  0.16321386165E+03  0.41800000000E+01 0. -1.
</event>
<event>
11    1  0.8039394E-009  0.1359725E+03  0.7561462E-02  0.1112141E+00
         22   -1    0    0    0    0  0.00000000000E+00  0.00000000000E+00  0.11463484871E+04  0.11463484871E+04  0.00000000000E+00 0.  1.
         22   -1    0    0    0    0 -0.00000000000E+00 -0.00000000000E+00 -0.95552620733E+03  0.95552620733E+03  0.00000000000E+00 0.  1.
        -24    2    1    2    0    0 -0.86852525395E+01 -0.52566540809E+02 -0.94076402627E+03  0.94607539532E+03  0.84752732518E+02 0.  0.
         25    2    1    2    0    0 -0.20659008672E+02  0.46841730123E+02  0.49834021834E+03  0.51635213830E+03  0.12512240081E+03 0.  0.
         24    2    1    2    0    0  0.29344261212E+02  0.57248106860E+01  0.63324608772E+03  0.63944716083E+03  0.83655273388E+02 0.  0.
        -11    1    5    5    0    0  0.36980454841E+02  0.19090405579E+02  0.61087935874E+03  0.61229534423E+03  0.00000000000E+00 0.  1.
         12    1    5    5    0    0 -0.76361936299E+01 -0.13365594893E+02  0.22366728978E+02  0.27151816609E+02  0.00000000000E+00 0. -1.
         11    1    3    3    0    0  0.24882715731E+02 -0.48770242890E+02 -0.34160999461E+03  0.34596975959E+03  0.00000000000E+00 0. -1.
        -12    1    3    3    0    0 -0.33567968271E+02 -0.37962979190E+01 -0.59915403167E+03  0.60010563573E+03  0.00000000000E+00 0.  1.
          5    1    4    4  501    0 -0.94871461146E+01  0.51393995843E+02  0.68205449024E+02  0.86027928178E+02  0.41800000000E+01 0.  1.
         -5    1    4    4    0  501 -0.11171862557E+02 -0.45522657206E+01  0.43013476932E+03  0.43032421012E+03  0.41800000000E+01 0.  1.
</event>
<event>
11    1  0.8039394E-009  0.1656733E+03  0.7561462E-02  0.1081859E+00
         22   -1    0    0    0    0  0.00000000000E+00  0.00000000000E+00  0.64687099360E+03  0.64687099360E+03  0.00000000000E+00 0. -1.
         22   -1    0    0    0    0 -0.00000000000E+00 -0.00000000000E+00 -0.63956730063E+03  0.63956730063E+03  0.00000000000E+00 0.  1.
         24    2    1    2    0    0  0.35550199151E+02 -0.96108309913E+02 -0.44660021365E+03  0.46530423671E+03  0.80967017850E+02 0.  0.
         25    2    1    2    0    0 -0.21780378340E+02  0.14274975736E+03 -0.12891804904E+03  0.23047666850E+03  0.12509097989E+03 0.  0.
        -24    2    1    2    0    0 -0.13769820810E+02 -0.46641447444E+02  0.58282195565E+03  0.59065738902E+03  0.82641918117E+02 0.  0.
        -13    1    3    3    0    0  0.64957996946E+01 -0.98349377582E+02 -0.29810442633E+03  0.31397618457E+03  0.00000000000E+00 0.  1.
         14    1    3    3    0    0  0.29054399456E+02  0.22410676695E+01 -0.14849578732E+03  0.15132805214E+03  0.00000000000E+00 0. -1.
         11    1    5    5    0    0  0.28496613184E+02 -0.33814802022E+02  0.40604114818E+03  0.40844205441E+03  0.00000000000E+00 0. -1.
        -12    1    5    5    0    0 -0.42266433994E+02 -0.12826645422E+02  0.17678080748E+03  0.18221533461E+03  0.00000000000E+00 0.  1.
          5    1    4    4  501    0 -0.67608966663E+02  0.75391491405E+02 -0.37788762091E+02  0.10816798182E+03  0.41800000000E+01 0.  1.
         -5    1    4    4    0  501  0.45828588323E+02  0.67358265951E+02 -0.91129286945E+02  0.12230868669E+03  0.41800000000E+01 0.  1.
</event>
<event>
11    1  0.8039394E-009  0.1596919E+03  0.7561462E-02  0.1087367E+00
         22   -1    0    0    0    0  0.00000000000E+00  0.00000000000E+00  0.26145900277E+03  0.26145900277E+03  0.00000000000E+00 0. -1.
         22   -1    0    0    0    0 -0.00000000000E+00 -0.00000000000E+00 -0.22696442781E+04  0.22696442781E+04  0.00000000000E+00 0. -1.
         24    2    1    2    0    0  0.31300686268E+02  0.19954447862E+02 -0.21812637867E+04  0.21831501144E+04  0.82793731743E+02 0.  0.
         25    2    1    2    0    0 -0.65871768938E+01  0.84417400095E+02  0.34761758743E+02  0.15500172874E+03  0.12508983853E+03 0.  0.
        -24    2    1    2    0    0 -0.24713509375E+02 -0.10437184796E+03  0.13831675267E+03  0.19295143767E+03  0.81206483963E+02 0.  0.
        -13    1    3    3    0    0 -0.21283433248E+02  0.26645322217E+02 -0.57374034510E+03  0.57475293938E+03  0.00000000000E+00 0.  1.
         14    1    3    3    0    0  0.52584119516E+02 -0.66908743549E+01 -0.16075234416E+04  0.16083971751E+04  0.00000000000E+00 0. -1.
         11    1    5    5    0    0 -0.34825237413E+02 -0.11275338147E+03  0.13519023902E+03  0.17945061415E+03  0.00000000000E+00 0. -1.
        -12    1    5    5    0    0  0.10111728038E+02  0.83815335137E+01  0.31265136495E+01  0.13500823514E+02  0.00000000000E+00 0.  1.
          5    1    4    4  501    0  0.27951592920E+02 -0.15055582048E+02 -0.18439916515E+02  0.36952199104E+02  0.41800000000E+01 0. -1.
         -5    1    4    4    0  501 -0.34538769814E+02  0.99472982142E+02  0.53201675258E+02  0.11804952963E+03  0.41800000000E+01 0. -1.
</event>
<event>
11    1  0.8039394E-009  0.1738556E+03  0.7561462E-02  0.1074724E+00
         22   -1    0    0    0    0  0.00000000000E+00  0.00000000000E+00  0.81443245113E+03  0.81443245113E+03  0.00000000000E+00 0.  1.
         22   -1    0    0    0    0 -0.00000000000E+00 -0.00000000000E+00 -0.89328009945E+03  0.89328009945E+03  0.00000000000E+00 0.  1.
         24    2    1    2    0    0  0.10351447781E+02 -0.17996688583E+02 -0.80290075272E+03  0.80675453164E+03  0.75975142876E+02 0.  0.
         25    2    1    2    0    0 -0.13006671447E+03  0.22990405062E+02  0.20787309236E+02  0.18309800262E+03  0.12508739905E+03 0.  0.
        -24    2    1    2    0    0  0.11971526669E+03 -0.49937164785E+01  0.70326579517E+03  0.71786001632E+03  0.79897071852E+02 0.  0.
        -13    1    3    3    0    0 -0.20529857795E+02 -0.24976447422E+02 -0.63938584171E+03  0.64020274332E+03  0.00000000000E+00 0.  1.
         14    1    3    3    0    0  0.30881305577E+02  0.69797588384E+01 -0.16351491102E+03  0.16655178832E+03  0.00000000000E+00 0. -1.
         11    1    5    5    0    0  0.77568114498E+01  0.14953841359E+02  0.25123811625E+02  0.30248824867E+02  0.00000000000E+00 0. -1.
        -12    1    5    5    0    0  0.11195845524E+03 -0.19947557838E+02  0.67814198354E+03  0.68761119145E+03  0.00000000000E+00 0.  1.
          5    1    4    4  501    0  0.11460054737E+02  0.30070205872E+02 -0.16650269993E+02  0.36472647651E+02  0.41800000000E+01 0.  1.
         -5    1    4    4    0  501 -0.14152676921E+03 -0.70798008107E+01  0.37437579229E+02  0.14662535497E+03  0.41800000000E+01 0.  1.
</event>
<event>
11    1  0.8039394E-009  0.1417510E+03  0.7561462E-02  0.1105619E+00
         22   -1    0    0    0    0  0.00000000000E+00  0.00000000000E+00  0.14140346070E+03  0.14140346070E+03  0.00000000000E+00 0.  1.
         22   -1    0    0    0    0 -0.00000000000E+00 -0.00000000000E+00 -0.25832687181E+04  0.25832687181E+04  0.00000000000E+00 0. -1.
        -24    2    1    2    0    0  0.18973709331E+02 -0.36527972407E+02 -0.24685576991E+04  0.24701431469E+04  0.78331080906E+02 0.  0.
         25    2    1    2    0    0 -0.42690436603E+02  0.82851280623E+02  0.94809093073E+01  0.15628038247E+03  0.12508741833E+03 0.  0.
         24    2    1    2    0    0  0.23716727273E+02 -0.46323308215E+02  0.17211532388E+02  0.98248649393E+02  0.81536667972E+02 0.  0.
        -13    1    5    5    0    0  0.40240103875E+02 -0.43747358059E+02 -0.15572395934E+02  0.61445885234E+02  0.00000000000E+00 0.  1.
         14    1    5    5    0    0 -0.16523376603E+02 -0.25759501566E+01  0.32783928322E+02  0.36802764160E+02  0.00000000000E+00 0. -1.
         13    1    3    3    0    0  0.11657985615E+02 -0.42542479288E+02 -0.24313153812E+04  0.24317154961E+04  0.00000000000E+00 0. -1.
        -14    1    3    3    0    0  0.73157237159E+01  0.60145068811E+01 -0.37242317892E+02  0.38427650832E+02  0.00000000000E+00 0.  1.
          5    1    4    4  501    0 -0.47990366802E+02  0.10528467807E+03 -0.21170713210E+02  0.11770136040E+03  0.41800000000E+01 0. -1.
         -5    1    4    4    0  501  0.52999301982E+01 -0.22433397443E+02  0.30651622518E+02  0.38579022070E+02  0.41800000000E+01 0. -1.
</event>
<event>
11    1  0.8039394E-009  0.2029943E+03  0.7561462E-02  0.1052426E+00
         22   -1    0    0    0    0  0.00000000000E+00  0.00000000000E+00  0.65259061842E+03  0.65259061842E+03  0.00000000000E+00 0. -1.
         22   -1    0    0    0    0 -0.00000000000E+00 -0.00000000000E+00 -0.11431888266E+04  0.11431888266E+04  0.00000000000E+00 0.  1.
        -24    2    1    2    0    0 -0.14751891698E+03  0.32410385841E+02 -0.88745736870E+03  0.90373101959E+03  0.79604714258E+02 0.  0.
         25    2    1    2    0    0  0.23776602284E+03 -0.62789587253E+02 -0.16157695250E+03  0.31973424428E+03  0.12509061317E+03 0.  0.
         24    2    1    2    0    0 -0.90247105859E+02  0.30379201412E+02  0.55843611306E+03  0.57231418110E+03  0.81395291775E+02 0.  0.
        -11    1    5    5    0    0  0.14250572486E+02  0.87593491483E+01  0.47660786592E+02  0.50510945272E+02  0.00000000000E+00 0.  1.
         12    1    5    5    0    0 -0.10449767834E+03  0.21619852263E+02  0.51077532647E+03  0.52180323583E+03  0.00000000000E+00 0. -1.
         13    1    3    3    0    0 -0.25256059561E+02  0.40185637405E+02 -0.21133966403E+03  0.21660380327E+03  0.00000000000E+00 0. -1.
        -14    1    3    3    0    0 -0.12226285742E+03 -0.77752515640E+01 -0.67611770467E+03  0.68712721632E+03  0.00000000000E+00 0.  1.
          5    1    4    4  501    0  0.19173862242E+03 -0.91680013976E+02 -0.15847414050E+03  0.26514232008E+03  0.41800000000E+01 0. -1.
         -5    1    4    4    0  501  0.46027400424E+02  0.28890426723E+02 -0.31028119977E+01  0.54591924204E+02  0.41800000000E+01 0. -1.
</event>
<event>
11    1  0.8039394E-009  0.1328941E+03  0.7561462E-02  0.1115763E+00
         22   -1    0    0    0    0  0.00000000000E+00  0.00000000000E+00  0.69534314535E+03  0.69534314535E+03  0.00000000000E+00 0.  1.
         22   -1    0    0    0    0 -0.00000000000E+00 -0.00000000000E+00 -0.82357316705E+03  0.82357316705E+03  0.00000000000E+00 0.  1.
         24    2    1    2    0    0  0.31192991460E+02 -0.34250376827E+02 -0.69326829631E+03  0.69949409384E+03  0.80777259327E+02 0.  0.
         25    2    1    2    0    0 -0.20296163706E+02  0.22013620175E+02 -0.91561305708E+02  0.15787046595E+03  0.12507228943E+03 0.  0.
        -24    2    1    2    0    0 -0.10896827754E+02  0.12236756652E+02  0.65659958031E+03  0.66155175260E+03  0.79115317365E+02 0.  0.
        -11    1    3    3    0    0 -0.65744094718E+01 -0.44155012912E+02 -0.51846269613E+03  0.52038106740E+03  0.00000000000E+00 0.  1.
         12    1    3    3    0    0  0.37767400932E+02  0.99046360849E+01 -0.17480560018E+03  0.17911302644E+03  0.00000000000E+00 0. -1.
         13    1    5    5    0    0  0.23118095968E+02  0.73180391780E+01  0.72616090027E+02  0.76557799011E+02  0.00000000000E+00 0. -1.
        -14    1    5    5    0    0 -0.34014923722E+02  0.49187174743E+01  0.58398349028E+03  0.58499395359E+03  0.00000000000E+00 0.  1.
          5    1    4    4  501    0 -0.34197419270E+02 -0.13934135122E+02  0.18260330126E+02  0.41406951864E+02  0.41800000000E+01 0. -1.
         -5    1    4    4    0  501  0.13901255564E+02  0.35947755297E+02 -0.10982163583E+03  0.11646351409E+03  0.41800000000E+01 0. -1.
</event>
<event>
11    1  0.8039394E-009  0.1466319E+03  0.7561462E-02  0.1100371E+00
         22   -1    0    0    0    0  0.00000000000E+00  0.00000000000E+00  0.37711343570E+03  0.37711343570E+03  0.00000000000E+00 0.  1.
         22   -1    0    0    0    0 -0.00000000000E+00 -0.00000000000E+00 -0.11005844865E+04  0.11005844865E+04  0.00000000000E+00 0. -1.
         24    2    1    2    0    0  0.23571390763E+02 -0.27044406308E+02 -0.10320060053E+04  0.10357034275E+04  0.79738223898E+02 0.  0.
         25    2    1    2    0    0 -0.56888757659E+01  0.97674149921E+02  0.58497837854E+02  0.16924297270E+03  0.12509430005E+03 0.  0.
        -24    2    1    2    0    0 -0.17882514997E+02 -0.70629743613E+02  0.25003711672E+03  0.27275152195E+03  0.81033869258E+02 0.  0.
        -13    1    3    3    0    0 -0.11884197441E+02 -0.67298180214E+01 -0.31136349380E+02  0.33999953708E+02  0.00000000000E+00 0.  1.
         14    1    3    3    0    0  0.35455588205E+02 -0.20314588286E+02 -0.10008696560E+04  0.10017034738E+04  0.00000000000E+00 0. -1.
         11    1    5    5    0    0  0.23624825262E+02  0.50159576424E+00  0.86196400174E+02  0.89376749605E+02  0.00000000000E+00 0. -1.
        -12    1    5    5    0    0 -0.41507340259E+02 -0.71131339377E+02  0.16384071654E+03  0.18337477235E+03  0.00000000000E+00 0.  1.
          5    1    4    4  501    0  0.55096067421E+02  0.21907234749E+02  0.89147200860E+01  0.60103645595E+02  0.41800000000E+01 0. -1.
         -5    1    4    4    0  501 -0.60784943187E+02  0.75766915171E+02  0.49583117768E+02  0.10913932710E+03  0.41800000000E+01 0. -1.
</event>
<event>
11    1  0.8039394E-009  0.1374157E+03  0.7561462E-02  0.1110479E+00
         22   -1    0    0    0    0  0.00000000000E+00  0.00000000000E+00  0.32905593928E+04  0.32905593928E+04  0.00000000000E+00 0. -1.
         22   -1    0    0    0    0 -0.00000000000E+00 -0.00000000000E+00 -0.11740458131E+03  0.11740458131E+03  0.00000000000E+00 0. -1.
         24    2    1    2    0    0 -0.46443786494E+02 -0.32781382037E+02 -0.38683046602E+02  0.10580169826E+03  0.80411298635E+02 0.  0.
         25    2    1    2    0    0  0.61811580558E+02  0.83701652213E+01  0.64961615199E+02  0.15413302989E+03  0.12508496431E+03 0.  0.
        -24    2    1    2    0    0 -0.15367794064E+02  0.24411216815E+02  0.31468762429E+04  0.31480292460E+04  0.80162140520E+02 0.  0.
        -13    1    3    3    0    0 -0.10000202298E+02 -0.31896184681E+02 -0.56174819406E+02  0.65368042486E+02  0.00000000000E+00 0.  1.
         14    1    3    3    0    0 -0.36443584196E+02 -0.88519735583E+00  0.17491772804E+02  0.40433655774E+02  0.00000000000E+00 0. -1.
         13    1    5    5    0    0 -0.40691284811E+02  0.77396813015E+01  0.25878340993E+04  0.25881655683E+04  0.00000000000E+00 0. -1.
        -14    1    5    5    0    0  0.25323490747E+02  0.16671535514E+02  0.55904214359E+03  0.55986367769E+03  0.00000000000E+00 0.  1.
          5    1    4    4  501    0 -0.33683086328E+02 -0.20781521345E+02  0.16766211013E+02  0.43185647682E+02  0.41800000000E+01 0. -1.
         -5    1    4    4    0  501  0.95494666885E+02  0.29151686566E+02  0.48195404186E+02  0.11094738220E+03  0.41800000000E+01 0. -1.
</event>
<event>
11    1  0.8039394E-009  0.1825097E+03  0.7561462E-02  0.1067631E+00
         22   -1    0    0    0    0  0.00000000000E+00  0.00000000000E+00  0.19727065129E+04  0.19727065129E+04  0.00000000000E+00 0.  1.
         22   -1    0    0    0    0 -0.00000000000E+00 -0.00000000000E+00 -0.65196558640E+03  0.65196558640E+03  0.00000000000E+00 0.  1.
         24    2    1    2    0    0  0.10098886679E+03 -0.85443705574E+02 -0.61653131942E+03  0.63587708272E+03  0.82033032776E+02 0.  0.
         25    2    1    2    0    0 -0.16233681876E+03  0.62215420858E+02  0.45526707399E+03  0.50312443676E+03  0.12506833684E+03 0.  0.
        -24    2    1    2    0    0  0.61347951973E+02  0.23228284715E+02  0.14820051719E+04  0.14856705798E+04  0.81084016163E+02 0.  0.
        -11    1    3    3    0    0  0.95548907632E+02 -0.82494717873E+02 -0.40414632629E+03  0.42340196655E+03  0.00000000000E+00 0.  1.
         12    1    3    3    0    0  0.54399591570E+01 -0.29489877009E+01 -0.21238499313E+03  0.21247511617E+03  0.00000000000E+00 0. -1.
         11    1    5    5    0    0 -0.90432040494E+01  0.10603451284E+02  0.50714649821E+02  0.52594566498E+02  0.00000000000E+00 0. -1.
        -12    1    5    5    0    0  0.70391156022E+02  0.12624833431E+02  0.14312905221E+04  0.14330760133E+04  0.00000000000E+00 0.  1.
          5    1    4    4  501    0 -0.85541461819E+02 -0.28818613492E+02  0.24921729942E+03  0.26509354746E+03  0.41800000000E+01 0.  1.
         -5    1    4    4    0  501 -0.76795356944E+02  0.91034034351E+02  0.20604977457E+03  0.23803088930E+03  0.41800000000E+01 0.  1.
</event>
<event>
11    1  0.8039394E-009  0.1798825E+03  0.7561462E-02  0.1069738E+00
         22   -1    0    0    0    0  0.00000000000E+00  0.00000000000E+00  0.17501187058E+03  0.17501187058E+03  0.00000000000E+00 0. -1.
         22   -1    0    0    0    0 -0.00000000000E+00 -0.00000000000E+00 -0.10504245134E+04  0.10504245134E+04  0.00000000000E+00 0. -1.
         24    2    1    2    0    0 -0.95297030249E+02 -0.94953716252E+02 -0.92194927018E+03  0.93515494449E+03  0.80165960421E+02 0.  0.
         25    2    1    2    0    0  0.42691261626E+02  0.74481016195E+02 -0.41076761812E+02  0.15717833702E+03  0.12509102156E+03 0.  0.
        -24    2    1    2    0    0  0.52605768623E+02  0.20472700057E+02  0.87613389140E+02  0.13310310250E+03  0.82787871082E+02 0.  0.
        -13    1    3    3    0    0  0.76694606807E+01  0.76678308020E+01 -0.49190299137E+02  0.50371636716E+02  0.00000000000E+00 0.  1.
         14    1    3    3    0    0 -0.10296649093E+03 -0.10262154705E+03 -0.87275897105E+03  0.88478330778E+03  0.00000000000E+00 0. -1.
         11    1    5    5    0    0  0.27936086333E+02 -0.11702986042E+02  0.87462172364E+02  0.92558178443E+02  0.00000000000E+00 0. -1.
        -12    1    5    5    0    0  0.24669682290E+02  0.32175686099E+02  0.15121677537E+00  0.40544924056E+02  0.00000000000E+00 0.  1.
          5    1    4    4  501    0  0.75946839772E+02  0.18113321616E+02 -0.47171002600E+02  0.91315884586E+02  0.41800000000E+01 0.  1.
         -5    1    4    4    0  501 -0.33255578147E+02  0.56367694579E+02  0.60942407883E+01  0.65862452436E+02  0.41800000000E+01 0.  1.
</event>
<event>
11    1  0.8039394E-009  0.1536633E+03  0.7561462E-02  0.1093193E+00
         22   -1    0    0    0    0  0.00000000000E+00  0.00000000000E+00  0.22266124461E+03  0.22266124461E+03  0.00000000000E+00 0.  1.
         22   -1    0    0    0    0 -0.00000000000E+00 -0.00000000000E+00 -0.23938894078E+04  0.23938894078E+04  0.00000000000E+00 0.  1.
        -24    2    1    2    0    0  0.31623903210E+02  0.50087088422E+01 -0.17088954910E+04  0.17110408250E+04  0.79446505541E+02 0.  0.
         25    2    1    2    0    0 -0.10245710985E+03  0.48362041449E+02 -0.65625331670E+03  0.67760810902E+03  0.12509191545E+03 0.  0.
         24    2    1    2    0    0  0.70833206637E+02 -0.53370750291E+02  0.19392064444E+03  0.22790171846E+03  0.80425100470E+02 0.  0.
        -13    1    5    5    0    0  0.67905771442E+02 -0.29372833170E+02  0.70710833575E+02  0.10234245995E+03  0.00000000000E+00 0.  1.
         14    1    5    5    0    0  0.29274351943E+01 -0.23997917122E+02  0.12320981087E+03  0.12555925851E+03  0.00000000000E+00 0. -1.
         11    1    3    3    0    0  0.11792311095E+02  0.13252723497E+02 -0.77515466219E+02  0.79519436518E+02  0.00000000000E+00 0. -1.
        -12    1    3    3    0    0  0.19831592115E+02 -0.82440146545E+01 -0.16313800247E+04  0.16315213884E+04  0.00000000000E+00 0.  1.
          5    1    4    4  501    0 -0.76853396683E+02  0.44496049651E+02 -0.18123451603E+03  0.20186571085E+03  0.41800000000E+01 0. -1.
         -5    1    4    4    0  501 -0.25603713164E+02  0.38659917977E+01 -0.47501880068E+03  0.47574239817E+03  0.41800000000E+01 0. -1.
</event>
<event>
11    1  0.8039394E-009  0.2110844E+03  0.7561462E-02  0.1046951E+00
         22   -1    0    0    0    0  0.00000000000E+00  0.00000000000E+00  0.28089902750E+03  0.28089902750E+03  0.00000000000E+00 0. -1.
         22   -1    0    0    0    0 -0.00000000000E+00 -0.00000000000E+00 -0.13202008644E+04  0.13202008644E+04  0.00000000000E+00 0. -1.
         24    2    1    2    0    0  0.16613770851E+03  0.67043813914E+02 -0.11989548459E+04  0.12150070498E+04  0.81564683145E+02 0.  0.
         25    2    1    2    0    0 -0.47912171075E+02 -0.94423870164E+02 -0.78586651104E+01  0.16408401080E+03  0.12510140123E+03 0.  0.
        -24    2    1    2    0    0 -0.11822553744E+03  0.27380056250E+02  0.16751167411E+03  0.22200883124E+03  0.80627631769E+02 0.  0.
        -13    1    3    3    0    0  0.39159775261E+02  0.50519062021E+02 -0.28191405510E+03  0.28906953850E+03  0.00000000000E+00 0.  1.
         14    1    3    3    0    0  0.12697793325E+03  0.16524751894E+02 -0.91704079078E+03  0.92593751134E+03  0.00000000000E+00 0. -1.
         13    1    5    5    0    0  0.78750963879E+01  0.12074991500E+02  0.37810157779E+02  0.40465177549E+02  0.00000000000E+00 0. -1.
        -14    1    5    5    0    0 -0.12610063383E+03  0.15305064749E+02  0.12970151633E+03  0.18154365370E+03  0.00000000000E+00 0.  1.
          5    1    4    4  501    0 -0.14517027999E+02  0.17283178164E+02  0.33234734519E+02  0.40391488310E+02  0.41800000000E+01 0.  1.
         -5    1    4    4    0  501 -0.33395143076E+02 -0.11170704833E+03 -0.41093399629E+02  0.12369252249E+03  0.41800000000E+01 0.  1.
</event>
<event>
11    1  0.8039394E-009  0.1360603E+03  0.7561462E-02  0.1112039E+00
         22   -1    0    0    0    0  0.00000000000E+00  0.00000000000E+00  0.18379232318E+04  0.18379232318E+04  0.00000000000E+00 0.  1.
         22   -1    0    0    0    0 -0.00000000000E+00 -0.00000000000E+00 -0.41198146046E+02  0.41198146046E+02  0.00000000000E+00 0. -1.
         24    2    1    2    0    0 -0.35336555219E+02 -0.75751009032E+00  0.39860970521E+02  0.97173668243E+02  0.81268560174E+02 0.  0.
         25    2    1    2    0    0  0.79574095453E+02 -0.20036698317E+02  0.51115218894E+03  0.53259515640E+03  0.12509010518E+03 0.  0.
        -24    2    1    2    0    0 -0.44237540235E+02  0.20794208407E+02  0.12457119263E+04  0.12493525532E+04  0.81818334278E+02 0.  0.
        -11    1    3    3    0    0  0.26588247023E+02  0.44698168244E+00  0.99462611381E+01  0.28391244830E+02  0.00000000000E+00 0.  1.
         12    1    3    3    0    0 -0.61924802242E+02 -0.12044917728E+01  0.29914709383E+02  0.68782423413E+02  0.00000000000E+00 0. -1.
         13    1    5    5    0    0 -0.44858836788E+01 -0.17883559444E+01  0.27643300092E+01  0.55644307673E+01  0.00000000000E+00 0. -1.
        -14    1    5    5    0    0 -0.39751656556E+02  0.22582564352E+02  0.12429475963E+04  0.12437881224E+04  0.00000000000E+00 0.  1.
          5    1    4    4  501    0  0.98178933425E+02  0.59027947273E+01  0.23806313820E+03  0.25761497652E+03  0.41800000000E+01 0. -1.
         -5    1    4    4    0  501 -0.18604837972E+02 -0.25939493044E+02  0.27308905074E+03  0.27498017988E+03  0.41800000000E+01 0. -1.
</event>
<event>
11    1  0.8039394E-009  0.3010411E+03  0.7561462E-02  0.9997516E-01
         22   -1    0    0    0    0  0.00000000000E+00  0.00000000000E+00  0.43398020574E+03  0.43398020574E+03  0.00000000000E+00 0. -1.
         22   -1    0    0    0    0 -0.00000000000E+00 -0.00000000000E+00 -0.60046434461E+03  0.60046434461E+03  0.00000000000E+00 0. -1.
        -24    2    1    2    0    0 -0.15856697841E+03 -0.21989971304E+03 -0.33071270311E+03  0.43502768774E+03  0.79867557008E+02 0.  0.
         25    2    1    2    0    0  0.42463258929E+02 -0.50770180748E+02 -0.11861679011E+03  0.18465308435E+03  0.12508428779E+03 0.  0.
         24    2    1    2    0    0  0.11610371948E+03  0.27066989379E+03  0.28284535434E+03  0.41476377827E+03  0.72699602550E+02 0.  0.
        -13    1    5    5    0    0 -0.72702362242E+01  0.19301064422E+02  0.35958157522E+02  0.41453305236E+02  0.00000000000E+00 0.  1.
         14    1    5    5    0    0  0.12337395570E+03  0.25136882937E+03  0.24688719682E+03  0.37331047304E+03  0.00000000000E+00 0. -1.
         13    1    3    3    0    0 -0.72073291971E+02 -0.15942716168E+03 -0.23149712357E+03  0.29017666604E+03  0.00000000000E+00 0. -1.
        -14    1    3    3    0    0 -0.86493686435E+02 -0.60472551365E+02 -0.99215579543E+02  0.14485102169E+03  0.00000000000E+00 0.  1.
          5    1    4    4  501    0  0.25323853667E+02 -0.16470936475E+02 -0.13810977503E+03  0.14143681159E+03  0.41800000000E+01 0.  1.
         -5    1    4    4    0  501  0.17139405262E+02 -0.34299244273E+02  0.19492984920E+02  0.43216272763E+02  0.41800000000E+01 0.  1.
</event>
<event>
11    1  0.8039394E-009  0.2035837E+03  0.7561462E-02  0.1052018E+00
         22   -1    0    0    0    0  0.00000000000E+00  0.00000000000E+00  0.23859887098E+03  0.23859887098E+03  0.00000000000E+00 0.  1.
         22   -1    0    0    0    0 -0.00000000000E+00 -0.00000000000E+00 -0.26819343619E+04  0.26819343619E+04  0.00000000000E+00 0.  1.
         24    2    1    2    0    0 -0.16963203187E+02  0.86405489572E+02 -0.10011258821E+04  0.10077162290E+04  0.74062862648E+02 0.  0.
         25    2    1    2    0    0  0.13382929739E+03 -0.19439446316E+03 -0.16313547323E+04  0.16530775118E+04  0.12509000446E+03 0.  0.
        -24    2    1    2    0    0 -0.11686609421E+03  0.10798897358E+03  0.18914512348E+03  0.25973949204E+03  0.79808668668E+02 0.  0.
        -11    1    3    3    0    0  0.17071871012E+01  0.87496071910E+02 -0.62162841652E+03  0.62775820609E+03  0.00000000000E+00 0.  1.
         12    1    3    3    0    0 -0.18670390288E+02 -0.10905823380E+01 -0.37949746555E+03  0.37995802294E+03  0.00000000000E+00 0. -1.
         11    1    5    5    0    0  0.77429986156E+01  0.20464683660E+02  0.84946915049E+01  0.23471623051E+02  0.00000000000E+00 0. -1.
        -12    1    5    5    0    0 -0.12460909282E+03  0.87524289925E+02  0.18065043198E+03  0.23626786898E+03  0.00000000000E+00 0.  1.
          5    1    4    4  501    0  0.13988243037E+03 -0.18699193225E+03 -0.12531949927E+04  0.12747737992E+04  0.41800000000E+01 0. -1.
         -5    1    4    4    0  501 -0.60531329814E+01 -0.74025309071E+01 -0.37815973958E+03  0.37830371254E+03  0.41800000000E+01 0. -1.
</event>
<event>
11    1  0.8039394E-009  0.1534053E+03  0.7561462E-02  0.1093449E+00
         22   -1    0    0    0    0  0.00000000000E+00  0.00000000000E+00  0.15942001477E+04  0.15942001477E+04  0.00000000000E+00 0.  1.
         22   -1    0    0    0    0 -0.00000000000E+00 -0.00000000000E+00 -0.71158131413E+03  0.71158131413E+03  0.00000000000E+00 0.  1.
        -24    2    1    2    0    0 -0.84943267266E+02  0.27592622090E+02 -0.64456222023E+03  0.65573976938E+03  0.80978256022E+02 0.  0.
         25    2    1    2    0    0  0.58415219453E+02 -0.74336269635E+02  0.42809127734E+02  0.16253957919E+03  0.12509306351E+03 0.  0.
         24    2    1    2    0    0  0.26528047813E+02  0.46743647545E+02  0.14843719260E+04  0.14875021132E+04  0.80086304246E+02 0.  0.
        -13    1    5    5    0    0  0.48647381224E+02  0.54099483090E+02  0.11780789478E+04  0.11803234001E+04  0.00000000000E+00 0.  1.
         14    1    5    5    0    0 -0.22119333412E+02 -0.73558355452E+01  0.30629297828E+03  0.30717871308E+03  0.00000000000E+00 0. -1.
         13    1    3    3    0    0 -0.21688020128E+02 -0.28592081413E+02 -0.20205302525E+03  0.20521525857E+03  0.00000000000E+00 0. -1.
        -14    1    3    3    0    0 -0.63255247138E+02  0.56184703504E+02 -0.44250919499E+03  0.45052451082E+03  0.00000000000E+00 0.  1.
          5    1    4    4  501    0  0.18806404829E+02  0.35265280095E+02  0.10587528113E+02  0.41555853912E+02  0.41800000000E+01 0. -1.
         -5    1    4    4    0  501  0.39608814624E+02 -0.10960154973E+03  0.32221599621E+02  0.12098372527E+03  0.41800000000E+01 0. -1.
</event>
<event>
11    1  0.8039394E-009  0.1578004E+03  0.7561462E-02  0.1089165E+00
         22   -1    0    0    0    0  0.00000000000E+00  0.00000000000E+00  0.25536828506E+04  0.25536828506E+04  0.00000000000E+00 0.  1.
         22   -1    0    0    0    0 -0.00000000000E+00 -0.00000000000E+00 -0.27983791991E+03  0.27983791991E+03  0.00000000000E+00 0. -1.
        -24    2    1    2    0    0 -0.30456336513E+02 -0.26757026698E+02 -0.18559266194E+03  0.20619461747E+03  0.80175165708E+02 0.  0.
         25    2    1    2    0    0  0.11506722685E+03 -0.18436096959E+02  0.63550198327E+01  0.17107933627E+03  0.12508955455E+03 0.  0.
         24    2    1    2    0    0 -0.84610890340E+02  0.45193123658E+02  0.24530825728E+04  0.24562468168E+04  0.79579486938E+02 0.  0.
        -11    1    5    5    0    0  0.51383171473E+01  0.28499110024E+02  0.91451999783E+03  0.91497837570E+03  0.00000000000E+00 0.  1.
         12    1    5    5    0    0 -0.89749207487E+02  0.16694013634E+02  0.15385625750E+04  0.15412684411E+04  0.00000000000E+00 0. -1.
         11    1    3    3    0    0 -0.19589825907E+02 -0.21997633863E+01 -0.17686165593E+03  0.17795686437E+03  0.00000000000E+00 0. -1.
        -12    1    3    3    0    0 -0.10866510605E+02 -0.24557263312E+02 -0.87310060068E+01  0.28237753098E+02  0.00000000000E+00 0.  1.
          5    1    4    4  501    0  0.75069813517E+02 -0.67102174288E+02 -0.19872710198E+02  0.10271599538E+03  0.41800000000E+01 0.  1.
         -5    1    4    4    0  501  0.39997413336E+02  0.48666077329E+02  0.26227730031E+02  0.68363340898E+02  0.41800000000E+01 0.  1.
</event>
<event>
11    1  0.8039394E-009  0.1666415E+03  0.7561462E-02  0.1080992E+00
         22   -1    0    0    0    0  0.00000000000E+00  0.00000000000E+00  0.10119592876E+04  0.10119592876E+04  0.00000000000E+00 0.  1.
         22   -1    0    0    0    0 -0.00000000000E+00 -0.00000000000E+00 -0.48222939757E+02  0.48222939757E+02  0.00000000000E+00 0.  1.
        -24    2    1    2    0    0 -0.61976374209E+02  0.83094423879E+02  0.21990112605E+03  0.25637031865E+03  0.81384770131E+02 0.  0.
         25    2    1    2    0    0  0.70596058893E+02 -0.93717529673E+02  0.24134448887E+03  0.29608245811E+03  0.12510348033E+03 0.  0.
         24    2    1    2    0    0 -0.86196846848E+01  0.10623105794E+02  0.50249073289E+03  0.50772945056E+03  0.71450045413E+02 0.  0.
        -11    1    5    5    0    0 -0.36855974041E+02  0.26309683841E+01  0.37913135581E+03  0.38092764375E+03  0.00000000000E+00 0.  1.
         12    1    5    5    0    0  0.28236289356E+02  0.79921374099E+01  0.12335937707E+03  0.12680180681E+03  0.00000000000E+00 0. -1.
         13    1    3    3    0    0 -0.58176157877E+01  0.30108332000E+02  0.14706090239E+03  0.15022405041E+03  0.00000000000E+00 0. -1.
        -14    1    3    3    0    0 -0.56158758421E+02  0.52986091879E+02  0.72840223661E+02  0.10614626825E+03  0.00000000000E+00 0.  1.
          5    1    4    4  501    0 -0.21058067917E+02  0.47581867241E+01  0.93917326038E+02  0.96457343398E+02  0.41800000000E+01 0.  1.
         -5    1    4    4    0  501  0.91654126811E+02 -0.98475716397E+02  0.14742716284E+03  0.19962511471E+03  0.41800000000E+01 0.  1.
</event>
<event>
11    1  0.8039394E-009  0.1421844E+03  0.7561462E-02  0.1105143E+00
         22   -1    0    0    0    0  0.00000000000E+00  0.00000000000E+00  0.33008686780E+03  0.33008686780E+03  0.00000000000E+00 0.  1.
         22   -1    0    0    0    0 -0.00000000000E+00 -0.00000000000E+00 -0.11885809574E+04  0.11885809574E+04  0.00000000000E+00 0. -1.
         24    2    1    2    0    0  0.14452672245E+02 -0.65811815061E+02 -0.99648807129E+03  0.10020828681E+04  0.81495543718E+02 0.  0.
         25    2    1    2    0    0 -0.64130891479E+02  0.55769978768E+02 -0.15029137275E+03  0.21321452711E+03  0.12509946472E+03 0.  0.
        -24    2    1    2    0    0  0.49678219235E+02  0.10041836293E+02  0.28828535443E+03  0.30337042997E+03  0.79727086108E+02 0.  0.
        -13    1    3    3    0    0 -0.22135875827E+01  0.15118760292E+02 -0.58507956901E+02  0.60470305965E+02  0.00000000000E+00 0.  1.
         14    1    3    3    0    0  0.16666259827E+02 -0.80930575353E+02 -0.93798011439E+03  0.94161256217E+03  0.00000000000E+00 0. -1.
         13    1    5    5    0    0  0.26234727138E+02 -0.31682372603E+02  0.83698387922E+02  0.93260140373E+02  0.00000000000E+00 0. -1.
        -14    1    5    5    0    0  0.23443492097E+02  0.41724208896E+02  0.20458696651E+03  0.21011028960E+03  0.00000000000E+00 0.  1.
          5    1    4    4  501    0 -0.44245430607E+02  0.12885859495E+02  0.88822189870E+01  0.47117615799E+02  0.41800000000E+01 0.  1.
         -5    1    4    4    0  501 -0.19885460872E+02  0.42884119273E+02 -0.15917359174E+03  0.16609691131E+03  0.41800000000E+01 0.  1.
</event>
<event>
11    1  0.8039394E-009  0.1762437E+03  0.7561462E-02  0.1072722E+00
         22   -1    0    0    0    0  0.00000000000E+00  0.00000000000E+00  0.20929195851E+04  0.20929195851E+04  0.00000000000E+00 0. -1.
         22   -1    0    0    0    0 -0.00000000000E+00 -0.00000000000E+00 -0.11248360498E+03  0.11248360498E+03  0.00000000000E+00 0. -1.
         24    2    1    2    0    0  0.12692575738E+03 -0.16429634858E+02 -0.45611108779E+02  0.15535815432E+03  0.75337255586E+02 0.  0.
         25    2    1    2    0    0 -0.84672884407E+02  0.18008258707E+02  0.53186763696E+03  0.55319444756E+03  0.12508844403E+03 0.  0.
        -24    2    1    2    0    0 -0.42252872977E+02 -0.15786238490E+01  0.14941794520E+04  0.14968505882E+04  0.78750564919E+02 0.  0.
        -11    1    3    3    0    0 -0.91784365496E+01 -0.41125942743E+01 -0.98916787259E+01  0.14106822363E+02  0.00000000000E+00 0.  1.
         12    1    3    3    0    0  0.13610419393E+03 -0.12317040584E+02 -0.35719430053E+02  0.14125133195E+03  0.00000000000E+00 0. -1.
         11    1    5    5    0    0 -0.32349941912E+02  0.33676116861E+02  0.10949231188E+04  0.10959184439E+04  0.00000000000E+00 0. -1.
        -12    1    5    5    0    0 -0.99029310643E+01 -0.35254740710E+02  0.39925633322E+03  0.40093214439E+03  0.00000000000E+00 0.  1.
          5    1    4    4  501    0 -0.54353800630E+02  0.90264590855E+01  0.51334381144E+03  0.51630916489E+03  0.41800000000E+01 0. -1.
         -5    1    4    4    0  501 -0.30319083778E+02  0.89817996216E+01  0.18523825516E+02  0.36885282665E+02  0.41800000000E+01 0. -1.
</event>
<event>
11    1  0.8039394E-009  0.1787586E+03  0.7561462E-02  0.1070651E+00
         22   -1    0    0    0    0  0.00000000000E+00  0.00000000000E+00  0.36082941109E+04  0.36082941109E+04  0.00000000000E+00 0.  1.
         22   -1    0    0    0    0 -0.00000000000E+00 -0.00000000000E+00 -0.87795564352E+03  0.87795564352E+03  0.00000000000E+00 0.  1.
         24    2    1    2    0    0 -0.44533953067E+00  0.22566414835E+02 -0.86123579202E+03  0.86523084434E+03  0.79924233743E+02 0.  0.
         25    2    1    2    0    0  0.33133641730E+02 -0.14317113979E+03  0.71004183366E+03  0.73580081770E+03  0.12509046445E+03 0.  0.
        -24    2    1    2    0    0 -0.32688302199E+02  0.12060472496E+03  0.28815324258E+04  0.28852180924E+04  0.75101899116E+02 0.  0.
        -11    1    3    3    0    0  0.31847643117E+02  0.18405135997E+02 -0.68666811926E+03  0.68765262118E+03  0.00000000000E+00 0.  1.
         12    1    3    3    0    0 -0.32292982647E+02  0.41612788386E+01 -0.17456767275E+03  0.17757822316E+03  0.00000000000E+00 0. -1.
         11    1    5    5    0    0 -0.37320855294E+02  0.26758273689E+02  0.13689918686E+04  0.13697618727E+04  0.00000000000E+00 0. -1.
        -12    1    5    5    0    0  0.46325530946E+01  0.93846451266E+02  0.15125405571E+04  0.15154562197E+04  0.00000000000E+00 0.  1.
          5    1    4    4  501    0 -0.10476956292E+02 -0.11313703281E+03  0.27571678095E+03  0.29823978692E+03  0.41800000000E+01 0. -1.
         -5    1    4    4    0  501  0.43610598022E+02 -0.30034106980E+02  0.43432505271E+03  0.43756103077E+03  0.41800000000E+01 0. -1.
</event>
<event>
11    1  0.8039394E-009  0.1377122E+03  0.7561462E-02  0.1110140E+00
         22   -1    0    0    0    0  0.00000000000E+00  0.00000000000E+00  0.38695823054E+03  0.38695823054E+03  0.00000000000E+00 0. -1.
         22   -1    0    0    0    0 -0.00000000000E+00 -0.00000000000E+00 -0.29288151118E+03  0.29288151118E+03  0.00000000000E+00 0. -1.
         24    2    1    2    0    0  0.31835611465E+02 -0.56544989459E+02 -0.20140583829E+03  0.22609466123E+03  0.79646984547E+02 0.  0.
         25    2    1    2    0    0 -0.36534255664E+01  0.25480700872E+02 -0.16992968094E+02  0.12886887950E+03  0.12512319331E+03 0.  0.
        -24    2    1    2    0    0 -0.28182185899E+02  0.31064288587E+02  0.31247552575E+03  0.32487620099E+03  0.78386007325E+02 0.  0.
        -13    1    3    3    0    0 -0.15870276731E+02  0.73996958033E+01 -0.14016913205E+02  0.22429780144E+02  0.00000000000E+00 0.  1.
         14    1    3    3    0    0  0.47705888196E+02 -0.63944685262E+02 -0.18738892509E+03  0.20366488109E+03  0.00000000000E+00 0. -1.
         11    1    5    5    0    0  0.12995139372E+02  0.40553035107E+02  0.20532354491E+03  0.20969306235E+03  0.00000000000E+00 0. -1.
        -12    1    5    5    0    0 -0.41177325271E+02 -0.94887465201E+01  0.10715198084E+03  0.11518313863E+03  0.00000000000E+00 0.  1.
          5    1    4    4  501    0 -0.35293661665E+02 -0.27402225105E+02  0.27601189068E+02  0.52686075318E+02  0.41800000000E+01 0. -1.
         -5    1    4    4    0  501  0.31640236099E+02  0.52882925977E+02 -0.44594157162E+02  0.76182804183E+02  0.41800000000E+01 0. -1.
</event>
<event>
11    1  0.8039394E-009  0.1442390E+03  0.7561462E-02  0.1102915E+00
         22   -1    0    0    0    0  0.00000000000E+00  0.00000000000E+00  0.48919235062E+03  0.48919235062E+03  0.00000000000E+00 0.  1.
         22   -1    0    0    0    0 -0.00000000000E+00 -0.00000000000E+00 -0.25619948766E+03  0.25619948766E+03  0.00000000000E+00 0. -1.
         24    2    1    2    0    0 -0.36185541095E+02  0.55198414043E+02 -0.42309338170E+02  0.11100384824E+03  0.78584450941E+02 0.  0.
         25    2    1    2    0    0  0.10471591892E+03 -0.69481297167E+02 -0.12712584166E+03  0.21817705211E+03  0.12508865705E+03 0.  0.
        -24    2    1    2    0    0 -0.68530377822E+02  0.14282883124E+02  0.40242804278E+03  0.41621093793E+03  0.79892438958E+02 0.  0.
        -11    1    3    3    0    0 -0.53947327893E+02  0.23205383142E+02 -0.45474021667E+02  0.74274427902E+02  0.00000000000E+00 0.  1.
         12    1    3    3    0    0  0.17761786798E+02  0.31993030901E+02  0.31646834976E+01  0.36729420334E+02  0.00000000000E+00 0. -1.
         13    1    5    5    0    0 -0.65944642467E+01 -0.28729740460E+02  0.85606050904E+02  0.90538836402E+02  0.00000000000E+00 0. -1.
        -14    1    5    5    0    0 -0.61935913575E+02  0.43012623584E+02  0.31682199188E+03  0.32567210153E+03  0.00000000000E+00 0.  1.
          5    1    4    4  501    0  0.11165124746E+03 -0.96742841783E+02 -0.97185927590E+02  0.17688345151E+03  0.41800000000E+01 0.  1.
         -5    1    4    4    0  501 -0.69353285423E+01  0.27261544616E+02 -0.29939914065E+02  0.41293600607E+02  0.41800000000E+01 0.  1.
</event>
<event>
11    1  0.1475198E-008  0.1966873E+03  0.7561462E-02  0.1056891E+00
         22   -1    0    0    0    0  0.00000000000E+00  0.00000000000E+00  0.46812115467E+03  0.46812115467E+03  0.00000000000E+00 0.  1.
         22   -1    0    0    0    0 -0.00000000000E+00 -0.00000000000E+00 -0.15071451115E+04  0.15071451115E+04  0.00000000000E+00 0. -1.
        -24    2    1    2    0    0 -0.38016265392E+02 -0.13884065090E+02 -0.65723669691E+03  0.66340073972E+03  0.80637844696E+02 0.  0.
         25    2    1    2    0    0 -0.44448312826E+02  0.14150980399E+03 -0.81923666728E+03  0.84190158690E+03  0.12509551501E+03 0.  0.
         24    2    1    2    0    0  0.82464578218E+02 -0.12762573890E+03  0.43744940734E+03  0.46996393957E+03  0.80096096182E+02 0.  0.
        -13    1    5    5    0    0  0.23399436499E+02 -0.70106165034E+01  0.15846621120E+03  0.16033783853E+03  0.00000000000E+00 0.  1.
         14    1    5    5    0    0  0.59065141719E+02 -0.12061512240E+03  0.27898319614E+03  0.30962610104E+03  0.00000000000E+00 0. -1.
         11    1    3    3    0    0  0.16579074826E+02  0.42965574380E-01 -0.38689065617E+03  0.38724571967E+03  0.00000000000E+00 0. -1.
        -12    1    3    3    0    0 -0.54595340218E+02 -0.13927030664E+02 -0.27034604074E+03  0.27615502005E+03  0.00000000000E+00 0.  1.
          5    1    4    4  501    0 -0.11933633008E+02 -0.15823775493E+00 -0.35937617353E+03  0.35959858612E+03  0.41800000000E+01 0. -1.
         -5    1    4    4    0  501 -0.32514679818E+02  0.14166804174E+03 -0.45986049375E+03  0.48230300079E+03  0.41800000000E+01 0. -1.
</event>
<event>
11    1  0.1183618E-008  0.1765629E+03  0.7561462E-02  0.1072457E+00
         22   -1    0    0    0    0  0.00000000000E+00  0.00000000000E+00  0.93253578137E+03  0.93253578137E+03  0.00000000000E+00 0. -1.
         22   -1    0    0    0    0 -0.00000000000E+00 -0.00000000000E+00 -0.12355948967E+04  0.12355948967E+04  0.00000000000E+00 0.  1.
        -24    2    1    2    0    0  0.75674923701E+02  0.78191133321E+02 -0.63237248720E+03  0.64641030149E+03  0.78171400763E+02 0.  0.
         25    2    1    2    0    0 -0.17755628178E+03 -0.57792602048E+02 -0.57014101794E+03  0.61284111773E+03  0.12508891715E+03 0.  0.
         24    2    1    2    0    0  0.10188135807E+03 -0.20398531273E+02  0.89945438984E+03  0.90887925881E+03  0.79040473669E+02 0.  0.
        -11    1    5    5    0    0  0.17433748177E+00 -0.20221574131E+02  0.60678665167E+02  0.63959697156E+02  0.00000000000E+00 0.  1.
         12    1    5    5    0    0  0.10170702059E+03 -0.17695714230E+00  0.83877572468E+03  0.84491956165E+03  0.00000000000E+00 0. -1.
         13    1    3    3    0    0  0.83322390398E+02  0.68879148515E+02 -0.41978945707E+03  0.43348603912E+03  0.00000000000E+00 0. -1.
        -14    1    3    3    0    0 -0.76474666972E+01  0.93119848063E+01 -0.21258303013E+03  0.21292426237E+03  0.00000000000E+00 0.  1.
          5    1    4    4  501    0 -0.94773501704E+02  0.34054081328E+02 -0.27012821862E+03  0.28832000273E+03  0.41800000000E+01 0.  1.
         -5    1    4    4    0  501 -0.82782780071E+02 -0.91846683376E+02 -0.30001279932E+03  0.32452111499E+03  0.41800000000E+01 0.  1.
</event>
<event>
11    1  0.8039394E-009  0.1711541E+03  0.7561462E-02  0.1077032E+00
         22   -1    0    0    0    0  0.00000000000E+00  0.00000000000E+00  0.60499811789E+03  0.60499811789E+03  0.00000000000E+00 0.  1.
         22   -1    0    0    0    0 -0.00000000000E+00 -0.00000000000E+00 -0.21563485063E+03  0.21563485063E+03  0.00000000000E+00 0. -1.
        -24    2    1    2    0    0  0.63587062361E+02  0.85769365426E+02 -0.11457066131E+03  0.17910704925E+03  0.86909148610E+02 0.  0.
         25    2    1    2    0    0 -0.90043862147E+02 -0.15403957945E+03  0.13444075754E+03  0.25604370718E+03  0.12509186045E+03 0.  0.
         24    2    1    2    0    0  0.26456799786E+02  0.68270214025E+02  0.36949317103E+03  0.38548221210E+03  0.81917934733E+02 0.  0.
        -13    1    5    5    0    0 -0.23937360149E+02  0.28833754047E+02  0.21531577094E+03  0.21855265681E+03  0.00000000000E+00 0.  1.
         14    1    5    5    0    0  0.50394159935E+02  0.39436459978E+02  0.15417740009E+03  0.16692955529E+03  0.00000000000E+00 0. -1.
         13    1    3    3    0    0  0.11996809556E+02  0.85221026446E+02 -0.72908755572E+02  0.11279287844E+03  0.00000000000E+00 0. -1.
        -14    1    3    3    0    0  0.51590252805E+02  0.54833898009E+00 -0.41661905734E+02  0.66314170805E+02  0.00000000000E+00 0.  1.
          5    1    4    4  501    0  0.24895772338E+02 -0.15276731613E+00  0.10054756067E+02  0.27173393931E+02  0.41800000000E+01 0. -1.
         -5    1    4    4    0  501 -0.11493963448E+03 -0.15388681214E+03  0.12438600147E+03  0.22887031325E+03  0.41800000000E+01 0. -1.
</event>
<event>
11    1  0.8039394E-009  0.1969939E+03  0.7561462E-02  0.1056670E+00
         22   -1    0    0    0    0  0.00000000000E+00  0.00000000000E+00  0.86134588592E+03  0.86134588592E+03  0.00000000000E+00 0.  1.
         22   -1    0    0    0    0 -0.00000000000E+00 -0.00000000000E+00 -0.22721130210E+03  0.22721130210E+03  0.00000000000E+00 0.  1.
        -24    2    1    2    0    0 -0.71010233278E+01  0.20746150748E+02 -0.15018701379E+03  0.17188084587E+03  0.80660143577E+02 0.  0.
         25    2    1    2    0    0  0.83837137915E+02  0.11341271803E+03  0.10566916420E+03  0.21611246546E+03  0.12509002821E+03 0.  0.
         24    2    1    2    0    0 -0.76736114587E+02 -0.13415886878E+03  0.67865243341E+03  0.70056387670E+03  0.79583833783E+02 0.  0.
        -13    1    5    5    0    0 -0.67105889271E+02 -0.14367012634E+03  0.64681996358E+03  0.66597325086E+03  0.00000000000E+00 0.  1.
         14    1    5    5    0    0 -0.96302253168E+01  0.95112575582E+01  0.31832469836E+02  0.34590625838E+02  0.00000000000E+00 0. -1.
         11    1    3    3    0    0  0.26426726288E+02 -0.17656068058E+02 -0.46284386971E+02  0.56145819781E+02  0.00000000000E+00 0. -1.
        -12    1    3    3    0    0 -0.33527749616E+02  0.38402218806E+02 -0.10390262682E+03  0.11573502609E+03  0.00000000000E+00 0.  1.
          5    1    4    4  501    0  0.98559493797E+02  0.13174485074E+03  0.93937981873E+02  0.18950592696E+03  0.41800000000E+01 0. -1.
         -5    1    4    4    0  501 -0.14722355882E+02 -0.18332132705E+02  0.11731182325E+02  0.26606538500E+02  0.41800000000E+01 0. -1.
</event>
<event>
11    1  0.8039394E-009  0.1349346E+03  0.7561462E-02  0.1113350E+00
         22   -1    0    0    0    0  0.00000000000E+00  0.00000000000E+00  0.16428992817E+04  0.16428992817E+04  0.00000000000E+00 0. -1.
         22   -1    0    0    0    0 -0.00000000000E+00 -0.00000000000E+00 -0.21498173304E+03  0.21498173304E+03  0.00000000000E+00 0.  1.
        -24    2    1    2    0    0  0.35084608597E+01 -0.56266015304E+01 -0.18897220115E+03  0.20587986218E+03  0.81437441654E+02 0.  0.
         25    2    1    2    0    0  0.11891623820E+02 -0.43220310486E+02  0.26233700678E+03  0.29406997648E+03  0.12508812888E+03 0.  0.
         24    2    1    2    0    0 -0.15400084680E+02  0.48846912017E+02  0.13545527430E+04  0.13579311761E+04  0.80874976933E+02 0.  0.
        -13    1    5    5    0    0  0.57659510742E+01 -0.99994304907E+01  0.34143607572E+02  0.36041930303E+02  0.00000000000E+00 0.  1.
         14    1    5    5    0    0 -0.21166035754E+02  0.58846342508E+02  0.13204091355E+04  0.13218892458E+04  0.00000000000E+00 0. -1.
         13    1    3    3    0    0 -0.94564116829E+01 -0.33649791770E+02 -0.37384389723E+02  0.51179339611E+02  0.00000000000E+00 0. -1.
        -14    1    3    3    0    0  0.12964872543E+02  0.28023190239E+02 -0.15158781142E+03  0.15470052257E+03  0.00000000000E+00 0.  1.
          5    1    4    4  501    0 -0.40975105547E+02 -0.11452753256E+02  0.26572994040E+02  0.50336082922E+02  0.41800000000E+01 0.  1.
         -5    1    4    4    0  501  0.52866729366E+02 -0.31767557230E+02  0.23576401274E+03  0.24373389356E+03  0.41800000000E+01 0.  1.
</event>
<event>
11    1  0.8039394E-009  0.1394493E+03  0.7561462E-02  0.1108175E+00
         22   -1    0    0    0    0  0.00000000000E+00  0.00000000000E+00  0.22294582112E+03  0.22294582112E+03  0.00000000000E+00 0. -1.
         22   -1    0    0    0    0 -0.00000000000E+00 -0.00000000000E+00 -0.38398866673E+03  0.38398866673E+03  0.00000000000E+00 0. -1.
        -24    2    1    2    0    0 -0.11620312408E+02  0.51507503263E+02 -0.19244785451E+03  0.21392900698E+03  0.77080404564E+02 0.  0.
         25    2    1    2    0    0  0.31809478374E+02 -0.85530777441E+02 -0.13384705932E+03  0.20467255699E+03  0.12509381876E+03 0.  0.
         24    2    1    2    0    0 -0.20189165966E+02  0.34023274178E+02  0.16525206822E+03  0.18833292389E+03  0.81214891261E+02 0.  0.
        -11    1    5    5    0    0 -0.75454090287E+01  0.16111467051E+02 -0.35259272295E+01  0.18136833538E+02  0.00000000000E+00 0.  1.
         12    1    5    5    0    0 -0.12643756937E+02  0.17911807127E+02  0.16877799545E+03  0.17019609035E+03  0.00000000000E+00 0. -1.
         13    1    3    3    0    0  0.82335690006E+00  0.57922315137E+02 -0.19130439564E+03  0.19988257628E+03  0.00000000000E+00 0. -1.
        -14    1    3    3    0    0 -0.12443669308E+02 -0.64148118742E+01 -0.11434588687E+01  0.14046430700E+02  0.00000000000E+00 0.  1.
          5    1    4    4  501    0 -0.20843919680E+02 -0.72346816104E+02 -0.12976115251E+03  0.15007984504E+03  0.41800000000E+01 0. -1.
         -5    1    4    4    0  501  0.52653398053E+02 -0.13183961337E+02 -0.40859068133E+01  0.54592711946E+02  0.41800000000E+01 0. -1.
</event>
<event>
11    1  0.8039394E-009  0.1309555E+03  0.7561462E-02  0.1118100E+00
         22   -1    0    0    0    0  0.00000000000E+00  0.00000000000E+00  0.21503083998E+03  0.21503083998E+03  0.00000000000E+00 0. -1.
         22   -1    0    0    0    0 -0.00000000000E+00 -0.00000000000E+00 -0.71984577137E+03  0.71984577137E+03  0.00000000000E+00 0.  1.
         24    2    1    2    0    0 -0.30297873649E+02 -0.20048905995E+02 -0.39940929485E+03  0.40934575583E+03  0.81952688951E+02 0.  0.
         25    2    1    2    0    0 -0.42920433107E+01  0.39091167193E+02 -0.28661003326E+03  0.31518384790E+03  0.12509598642E+03 0.  0.
        -24    2    1    2    0    0  0.34589916960E+02 -0.19042261198E+02  0.18120439673E+03  0.21034700762E+03  0.99256033328E+02 0.  0.
        -11    1    3    3    0    0 -0.23259097350E+02 -0.36422879137E+02 -0.38198119317E+03  0.38441805846E+03  0.00000000000E+00 0.  1.
         12    1    3    3    0    0 -0.70387762989E+01  0.16373973142E+02 -0.17428101686E+02  0.24927697379E+02  0.00000000000E+00 0. -1.
         13    1    5    5    0    0  0.25322528000E+02 -0.37684649705E+02  0.18383871676E+03  0.18936218478E+03  0.00000000000E+00 0. -1.
        -14    1    5    5    0    0  0.92673889604E+01  0.18642388507E+02 -0.26343200236E+01  0.20984822834E+02  0.00000000000E+00 0.  1.
          5    1    4    4  501    0  0.13612902701E+02  0.32291944043E+02 -0.29257282433E+03  0.29469375750E+03  0.41800000000E+01 0. -1.
         -5    1    4    4    0  501 -0.17904946012E+02  0.67992231501E+01  0.59627910692E+01  0.20490090397E+02  0.41800000000E+01 0. -1.
</event>
<event>
11    1  0.8039394E-009  0.1469502E+03  0.7561462E-02  0.1100036E+00
         22   -1    0    0    0    0  0.00000000000E+00  0.00000000000E+00  0.12919548491E+04  0.12919548491E+04  0.00000000000E+00 0.  1.
         22   -1    0    0    0    0 -0.00000000000E+00 -0.00000000000E+00 -0.36882740563E+03  0.36882740563E+03  0.00000000000E+00 0.  1.
         24    2    1    2    0    0 -0.39961148996E+02 -0.27631722840E+02 -0.28104141610E+03  0.30008198881E+03  0.93298000536E+02 0.  0.
         25    2    1    2    0    0 -0.15688504267E+02 -0.27966706816E+02 -0.20678722482E+02  0.13077998514E+03  0.12509008392E+03 0.  0.
        -24    2    1    2    0    0  0.55649653263E+02  0.55598429656E+02  0.12248475821E+04  0.12299202808E+04  0.79146879219E+02 0.  0.
        -13    1    3    3    0    0 -0.52439028314E+02 -0.53689202108E+02 -0.22217076753E+03  0.23450422610E+03  0.00000000000E+00 0.  1.
         14    1    3    3    0    0  0.12477879318E+02  0.26057479268E+02 -0.58870648569E+02  0.65577762703E+02  0.00000000000E+00 0. -1.
         13    1    5    5    0    0  0.70457707338E+02  0.20953994763E+02  0.75872850063E+03  0.76228098237E+03  0.00000000000E+00 0. -1.
        -14    1    5    5    0    0 -0.14808054075E+02  0.34644434893E+02  0.46611908148E+03  0.46763929845E+03  0.00000000000E+00 0.  1.
          5    1    4    4  501    0 -0.22391116760E+02  0.37963738067E+02 -0.42013748915E+02  0.61034703372E+02  0.41800000000E+01 0.  1.
         -5    1    4    4    0  501  0.67026124927E+01 -0.65930444883E+02  0.21335026433E+02  0.69745281773E+02  0.41800000000E+01 0.  1.
</event>
<event>
11    1  0.8039394E-009  0.1272306E+03  0.7561462E-02  0.1122719E+00
         22   -1    0    0    0    0  0.00000000000E+00  0.00000000000E+00  0.17087548052E+04  0.17087548052E+04  0.00000000000E+00 0.  1.
         22   -1    0    0    0    0 -0.00000000000E+00 -0.00000000000E+00 -0.31326050345E+03  0.31326050345E+03  0.00000000000E+00 0.  1.
        -24    2    1    2    0    0 -0.21524570426E+02  0.60963392566E+01 -0.28347820711E+03  0.29590955371E+03  0.81866339781E+02 0.  0.
         25    2    1    2    0    0  0.52135425781E+02 -0.52343700495E+01  0.18166260495E+03  0.22670361053E+03  0.12509086194E+03 0.  0.
         24    2    1    2    0    0 -0.30610855354E+02 -0.86196920708E+00  0.14973099039E+04  0.14994021444E+04  0.73021057693E+02 0.  0.
        -11    1    5    5    0    0 -0.11330956822E+02  0.16243211826E+02  0.13274676199E+04  0.13276153488E+04  0.00000000000E+00 0.  1.
         12    1    5    5    0    0 -0.19279898533E+02 -0.17105181033E+02  0.16984228397E+03  0.17178679556E+03  0.00000000000E+00 0. -1.
         11    1    3    3    0    0 -0.16059136726E+02  0.29117613104E+02 -0.43430908584E+02  0.54698949586E+02  0.00000000000E+00 0. -1.
        -12    1    3    3    0    0 -0.54654337001E+01 -0.23021273848E+02 -0.24004729852E+03  0.24121060413E+03  0.00000000000E+00 0.  1.
          5    1    4    4  501    0  0.90446857177E+02 -0.19704301322E+01  0.15569151764E+03  0.18011617815E+03  0.41800000000E+01 0.  1.
         -5    1    4    4    0  501 -0.38311431396E+02 -0.32639399173E+01  0.25971087308E+02  0.46587432376E+02  0.41800000000E+01 0.  1.
</event>
<event>
11    1  0.8039394E-009  0.2329506E+03  0.7561462E-02  0.1033395E+00
         22   -1    0    0    0    0  0.00000000000E+00  0.00000000000E+00  0.63840210003E+03  0.63840210003E+03  0.00000000000E+00 0. -1.
         22   -1    0    0    0    0 -0.00000000000E+00 -0.00000000000E+00 -0.20475035464E+03  0.20475035464E+03  0.00000000000E+00 0. -1.
        -24    2    1    2    0    0 -0.58159701544E+02 -0.61210279544E+02 -0.92973751028E+02  0.14820157113E+03  0.78678701681E+02 0.  0.
         25    2    1    2    0    0  0.10762148678E+03  0.21163465699E+03  0.37627915731E+03  0.46217352270E+03  0.12508696337E+03 0.  0.
         24    2    1    2    0    0 -0.49461785234E+02 -0.15042437744E+03  0.15034633910E+03  0.23277736085E+03  0.80667939818E+02 0.  0.
        -13    1    5    5    0    0  0.21166309392E+02 -0.55416992910E+02  0.51074241301E+02  0.78279204652E+02  0.00000000000E+00 0.  1.
         14    1    5    5    0    0 -0.70628094626E+02 -0.95007384532E+02  0.99272097803E+02  0.15449815620E+03  0.00000000000E+00 0. -1.
         13    1    3    3    0    0  0.66976514957E+01 -0.45427313343E+02 -0.22502427823E+02  0.51135688037E+02  0.00000000000E+00 0. -1.
        -14    1    3    3    0    0 -0.64857353040E+02 -0.15782966201E+02 -0.70471323205E+02  0.97065883088E+02  0.00000000000E+00 0.  1.
          5    1    4    4  501    0  0.92609696254E+02  0.65203650037E+02  0.21979684618E+03  0.24729779176E+03  0.41800000000E+01 0. -1.
         -5    1    4    4    0  501  0.15011790524E+02  0.14643100695E+03  0.15648231113E+03  0.21487573094E+03  0.41800000000E+01 0. -1.
</event>
<event>
11    1  0.8039394E-009  0.1283095E+03  0.7561462E-02  0.1121364E+00
         22   -1    0    0    0    0  0.00000000000E+00  0.00000000000E+00  0.10945782772E+04  0.10945782772E+04  0.00000000000E+00 0. -1.
         22   -1    0    0    0    0 -0.00000000000E+00 -0.00000000000E+00 -0.13164422636E+04  0.13164422636E+04  0.00000000000E+00 0. -1.
        -24    2    1    2    0    0 -0.13950353458E+02  0.61288373967E+01 -0.12573965702E+04  0.12599298385E+04  0.78389337355E+02 0.  0.
         25    2    1    2    0    0 -0.39811290316E+01  0.16662758988E+02  0.15377071966E+02  0.12719008209E+03  0.12508943086E+03 0.  0.
         24    2    1    2    0    0  0.17931482489E+02 -0.22791596385E+02  0.10201555118E+04  0.10239006202E+04  0.82548269638E+02 0.  0.
        -11    1    5    5    0    0  0.15280697261E+02 -0.32026903205E+01  0.32584511773E+02  0.36131805125E+02  0.00000000000E+00 0.  1.
         12    1    5    5    0    0  0.26507852284E+01 -0.19588906064E+02  0.98757100003E+03  0.98776881506E+03  0.00000000000E+00 0. -1.
         13    1    3    3    0    0 -0.92214114540E+01  0.12298122052E+01 -0.12493681436E+04  0.12494027794E+04  0.00000000000E+00 0. -1.
        -14    1    3    3    0    0 -0.47289420036E+01  0.48990251915E+01 -0.80284265825E+01  0.10527059119E+02  0.00000000000E+00 0.  1.
          5    1    4    4  501    0  0.29972044001E+02  0.59403458671E+02 -0.89820441555E+01  0.67269932666E+02  0.41800000000E+01 0.  1.
         -5    1    4    4    0  501 -0.33953173033E+02 -0.42740699683E+02  0.24359116121E+02  0.59920149421E+02  0.41800000000E+01 0.  1.
</event>
<event>
11    1  0.8039394E-009  0.3090152E+03  0.7561462E-02  0.9964464E-01
         22   -1    0    0    0    0  0.00000000000E+00  0.00000000000E+00  0.18777081729E+04  0.18777081729E+04  0.00000000000E+00 0. -1.
         22   -1    0    0    0    0 -0.00000000000E+00 -0.00000000000E+00 -0.65089890307E+03  0.65089890307E+03  0.00000000000E+00 0.  1.
         24    2    1    2    0    0 -0.93346806823E+02 -0.75798755368E+02 -0.48360377469E+03  0.50481196674E+03  0.80643866544E+02 0.  0.
         25    2    1    2    0    0  0.33628331928E+03 -0.60943691602E+02  0.86478286454E+02  0.37407003751E+03  0.12509714050E+03 0.  0.
        -24    2    1    2    0    0 -0.24293651246E+03  0.13674244697E+03  0.16239347581E+04  0.16497250717E+04  0.81927211379E+02 0.  0.
        -11    1    3    3    0    0 -0.48035829965E+02 -0.76067298425E+02 -0.39705250116E+03  0.40711713735E+03  0.00000000000E+00 0.  1.
         12    1    3    3    0    0 -0.45310976858E+02  0.26854305745E+00 -0.86551273528E+02  0.97694829384E+02  0.00000000000E+00 0. -1.
         11    1    5    5    0    0 -0.12093760933E+03  0.44069047652E+02  0.94455224594E+03  0.95328218887E+03  0.00000000000E+00 0. -1.
        -12    1    5    5    0    0 -0.12199890313E+03  0.92673399318E+02  0.67938251212E+03  0.69644288285E+03  0.00000000000E+00 0.  1.
          5    1    4    4  501    0  0.33495929260E+03 -0.55919236132E+02  0.10410970531E+03  0.35521963883E+03  0.41800000000E+01 0.  1.
         -5    1    4    4    0  501  0.13240266815E+01 -0.50244554710E+01 -0.17631418860E+02  0.18850398681E+02  0.41800000000E+01 0.  1.
</event>
<event>
11    1  0.8039394E-009  0.1456250E+03  0.7561462E-02  0.1101435E+00
         22   -1    0    0    0    0  0.00000000000E+00  0.00000000000E+00  0.82360018039E+03  0.82360018039E+03  0.00000000000E+00 0. -1.
         22   -1    0    0    0    0 -0.00000000000E+00 -0.00000000000E+00 -0.21741541563E+03  0.21741541563E+03  0.00000000000E+00 0.  1.
        -24    2    1    2    0    0 -0.75173333297E+02  0.10699422047E+02 -0.17200145593E+03  0.20388558388E+03  0.78862683184E+02 0.  0.
         25    2    1    2    0    0  0.61486221724E+02  0.25440094795E+02  0.16524417578E+03  0.21767709459E+03  0.12509966424E+03 0.  0.
         24    2    1    2    0    0  0.13687111573E+02 -0.36139516842E+02  0.61294204491E+03  0.61945291755E+03  0.80811910949E+02 0.  0.
        -13    1    5    5    0    0 -0.40351133432E+01  0.80913806761E+01  0.64850950638E+01  0.11126951016E+02  0.00000000000E+00 0.  1.
         14    1    5    5    0    0  0.17722224916E+02 -0.44230897518E+02  0.60645694984E+03  0.60832596654E+03  0.00000000000E+00 0. -1.
         13    1    3    3    0    0 -0.61260009749E+02 -0.84250574294E+01 -0.49743388113E+02  0.79361042382E+02  0.00000000000E+00 0. -1.
        -14    1    3    3    0    0 -0.13913323549E+02  0.19124479477E+02 -0.12225806782E+03  0.12452454150E+03  0.00000000000E+00 0.  1.
          5    1    4    4  501    0  0.80123502491E+02 -0.17758321717E+02  0.14419536337E+03  0.16596658959E+03  0.41800000000E+01 0.  1.
         -5    1    4    4    0  501 -0.18637280768E+02  0.43198416512E+02  0.21048812414E+02  0.51710505002E+02  0.41800000000E+01 0.  1.
</event>
<event>
11    1  0.8039394E-009  0.3540174E+03  0.7561462E-02  0.9796111E-01
         22   -1    0    0    0    0  0.00000000000E+00  0.00000000000E+00  0.18620509774E+03  0.18620509774E+03  0.00000000000E+00 0.  1.
         22   -1    0    0    0    0 -0.00000000000E+00 -0.00000000000E+00 -0.18754257846E+04  0.18754257846E+04  0.00000000000E+00 0.  1.
        -24    2    1    2    0    0 -0.31606619632E+03  0.11056713039E+02 -0.11303693474E+04  0.11764669056E+04  0.79494824625E+02 0.  0.
         25    2    1    2    0    0  0.36410799990E+03 -0.46260591295E+02 -0.64494378497E+03  0.75253844750E+03  0.12508777434E+03 0.  0.
         24    2    1    2    0    0 -0.48041803582E+02  0.35203878256E+02  0.86092445457E+02  0.13262552926E+03  0.81426616722E+02 0.  0.
        -13    1    5    5    0    0 -0.40862639153E+02  0.21517890794E+02  0.10105932453E+03  0.11111148445E+03  0.00000000000E+00 0.  1.
         14    1    5    5    0    0 -0.71791644283E+01  0.13685987462E+02 -0.14966879074E+02  0.21514044806E+02  0.00000000000E+00 0. -1.
         11    1    3    3    0    0 -0.36341129339E+02 -0.23419049799E+02 -0.12120638766E+03  0.12868612196E+03  0.00000000000E+00 0. -1.
        -12    1    3    3    0    0 -0.27972506698E+03  0.34475762838E+02 -0.10091629597E+04  0.10477807836E+04  0.00000000000E+00 0.  1.
          5    1    4    4  501    0  0.30914798150E+03 -0.20319899697E+02 -0.60490156107E+03  0.67963868620E+03  0.41800000000E+01 0. -1.
         -5    1    4    4    0  501  0.54960018398E+02 -0.25940691597E+02 -0.40042223906E+02  0.72899761304E+02  0.41800000000E+01 0. -1.
</event>
<event>
11    1  0.8039394E-009  0.4256719E+03  0.7561462E-02  0.9576908E-01
         22   -1    0    0    0    0  0.00000000000E+00  0.00000000000E+00  0.21999146604E+04  0.21999146604E+04  0.00000000000E+00 0.  1.
         22   -1    0    0    0    0 -0.00000000000E+00 -0.00000000000E+00 -0.16602586609E+03  0.16602586609E+03  0.00000000000E+00 0.  1.
         24    2    1    2    0    0  0.19672263096E+02 -0.45942103595E+01  0.32967205814E+02  0.89085307859E+02  0.80257402854E+02 0.  0.
         25    2    1    2    0    0 -0.39031564634E+03 -0.15605392505E+03  0.31163776826E+03  0.53801717236E+03  0.12508096518E+03 0.  0.
        -24    2    1    2    0    0  0.37064338324E+03  0.16064813541E+03  0.16892838203E+04  0.17388380463E+04  0.81814331690E+02 0.  0.
        -13    1    3    3    0    0 -0.19574203127E+02 -0.27409764911E+02  0.27261613477E+02  0.43331745983E+02  0.00000000000E+00 0.  1.
         14    1    3    3    0    0  0.39246466222E+02  0.22815554551E+02  0.57055923372E+01  0.45753561876E+02  0.00000000000E+00 0. -1.
         13    1    5    5    0    0  0.15626795500E+02  0.57578111727E+01  0.24743648120E+02  0.29826116901E+02  0.00000000000E+00 0. -1.
        -14    1    5    5    0    0  0.35501658774E+03  0.15489032424E+03  0.16645401722E+04  0.17090119294E+04  0.00000000000E+00 0.  1.
          5    1    4    4  501    0 -0.38128687207E+03 -0.12051519148E+03  0.29779614635E+03  0.49860165199E+03  0.41800000000E+01 0.  1.
         -5    1    4    4    0  501 -0.90287742692E+01 -0.35538733572E+02  0.13841621906E+02  0.39415520366E+02  0.41800000000E+01 0.  1.
</event>
<event>
11    1  0.8039394E-009  0.1486843E+03  0.7561462E-02  0.1098231E+00
         22   -1    0    0    0    0  0.00000000000E+00  0.00000000000E+00  0.55304483574E+03  0.55304483574E+03  0.00000000000E+00 0. -1.
         22   -1    0    0    0    0 -0.00000000000E+00 -0.00000000000E+00 -0.26560723045E+04  0.26560723045E+04  0.00000000000E+00 0. -1.
        -24    2    1    2    0    0  0.23552445600E+02 -0.76985840977E+02 -0.26140433605E+04  0.26164287443E+04  0.77428326627E+02 0.  0.
         25    2    1    2    0    0 -0.71422143048E+02  0.39025589376E+02  0.13227806303E+03  0.19943051673E+03  0.12510366061E+03 0.  0.
         24    2    1    2    0    0  0.47869697448E+02  0.37960251602E+02  0.37873782872E+03  0.39325787924E+03  0.86469231784E+02 0.  0.
        -11    1    5    5    0    0  0.46149130295E+02 -0.16860217058E+02  0.14235327614E+03  0.15059370629E+03  0.00000000000E+00 0.  1.
         12    1    5    5    0    0  0.17205671535E+01  0.54820468659E+02  0.23638455258E+03  0.24266417295E+03  0.00000000000E+00 0. -1.
         13    1    3    3    0    0  0.41024260013E+01 -0.74106752559E+02 -0.24621092437E+04  0.24632276729E+04  0.00000000000E+00 0. -1.
        -14    1    3    3    0    0  0.19450019599E+02 -0.28790884182E+01 -0.15193411684E+03  0.15320107138E+03  0.00000000000E+00 0.  1.
          5    1    4    4  501    0 -0.25131522284E+02  0.80147372285E+02  0.95669205688E+02  0.12737842837E+03  0.41800000000E+01 0. -1.
         -5    1    4    4    0  501 -0.46290620764E+02 -0.41121782910E+02  0.36608857347E+02  0.72052088357E+02  0.41800000000E+01 0. -1.
</event>
<event>
11    1  0.8039394E-009  0.1479715E+03  0.7561462E-02  0.1098970E+00
         22   -1    0    0    0    0  0.00000000000E+00  0.00000000000E+00  0.57662348554E+03  0.57662348554E+03  0.00000000000E+00 0. -1.
         22   -1    0    0    0    0 -0.00000000000E+00 -0.00000000000E+00 -0.49825743630E+03  0.49825743630E+03  0.00000000000E+00 0. -1.
         24    2    1    2    0    0 -0.51077483333E+02 -0.49318194602E+02 -0.29711466488E+03  0.31508824663E+03  0.77215836829E+02 0.  0.
         25    2    1    2    0    0  0.47602917119E+02  0.11365140657E+03 -0.14602446024E+03  0.22837175997E+03  0.12509131796E+03 0.  0.
        -24    2    1    2    0    0  0.34745662142E+01 -0.64333211967E+02  0.52150517435E+03  0.53142091524E+03  0.79307676186E+02 0.  0.
        -13    1    3    3    0    0  0.10686891324E+02  0.84569292236E+01 -0.95289052166E+02  0.96258676289E+02  0.00000000000E+00 0.  1.
         14    1    3    3    0    0 -0.61764374658E+02 -0.57775123826E+02 -0.20182561271E+03  0.21882957034E+03  0.00000000000E+00 0. -1.
         11    1    5    5    0    0  0.23294900331E+02 -0.37753395405E+02  0.45451288504E+03  0.45667267699E+03  0.00000000000E+00 0. -1.
        -12    1    5    5    0    0 -0.19820334116E+02 -0.26579816562E+02  0.66992289314E+02  0.74748238244E+02  0.00000000000E+00 0.  1.
          5    1    4    4  501    0  0.68388411040E+02  0.13101516701E+03 -0.11789115518E+03  0.18909718565E+03  0.41800000000E+01 0.  1.
         -5    1    4    4    0  501 -0.20785493921E+02 -0.17363760443E+02 -0.28133305054E+02  0.39274574314E+02  0.41800000000E+01 0.  1.
</event>
<event>
11    1  0.8039394E-009  0.1312756E+03  0.7561462E-02  0.1117712E+00
         22   -1    0    0    0    0  0.00000000000E+00  0.00000000000E+00  0.69538052854E+03  0.69538052854E+03  0.00000000000E+00 0.  1.
         22   -1    0    0    0    0 -0.00000000000E+00 -0.00000000000E+00 -0.26287055470E+03  0.26287055470E+03  0.00000000000E+00 0. -1.
        -24    2    1    2    0    0 -0.39714988385E+02 -0.36083801066E+01 -0.21975476626E+03  0.23722881496E+03  0.79969073036E+02 0.  0.
         25    2    1    2    0    0  0.34983200461E+02  0.35998398354E+02  0.11634300737E+03  0.17805333967E+03  0.12509031699E+03 0.  0.
         24    2    1    2    0    0  0.47317879236E+01 -0.32390018247E+02  0.53592173274E+03  0.54296892862E+03  0.80818628594E+02 0.  0.
        -11    1    5    5    0    0  0.38899032016E+02 -0.35656442116E+02  0.33756546789E+03  0.34166498455E+03  0.00000000000E+00 0.  1.
         12    1    5    5    0    0 -0.34167244093E+02  0.32664238691E+01  0.19835626485E+03  0.20130394407E+03  0.00000000000E+00 0. -1.
         11    1    3    3    0    0  0.19686921002E+02 -0.10560902860E+01 -0.11584844052E+03  0.11751404748E+03  0.00000000000E+00 0. -1.
        -12    1    3    3    0    0 -0.59401909387E+02 -0.25522898206E+01 -0.10390632574E+03  0.11971476748E+03  0.00000000000E+00 0.  1.
          5    1    4    4  501    0 -0.18732736319E+02 -0.17080269538E+02  0.96499615312E+02  0.99861399814E+02  0.41800000000E+01 0.  1.
         -5    1    4    4    0  501  0.53715936780E+02  0.53078667892E+02  0.19843392055E+02  0.78191939851E+02  0.41800000000E+01 0.  1.
</event>
<event>
11    1  0.8039394E-009  0.1489335E+03  0.7561462E-02  0.1097974E+00
         22   -1    0    0    0    0  0.00000000000E+00  0.00000000000E+00  0.14355090061E+03  0.14355090061E+03  0.00000000000E+00 0. -1.
         22   -1    0    0    0    0 -0.00000000000E+00 -0.00000000000E+00 -0.45025597415E+03  0.45025597415E+03  0.00000000000E+00 0. -1.
         24    2    1    2    0    0 -0.12261223398E+02 -0.69689515472E+02 -0.21195490187E+03  0.23729179123E+03  0.79847026192E+02 0.  0.
         25    2    1    2    0    0  0.25405521476E+02  0.10426847541E+03 -0.17172810654E+03  0.23802466920E+03  0.12509134696E+03 0.  0.
        -24    2    1    2    0    0 -0.13144298079E+02 -0.34578959936E+02  0.76977934873E+02  0.11849041433E+03  0.82133420657E+02 0.  0.
        -13    1    3    3    0    0  0.24375462444E+02  0.61049964921E+00 -0.28920303650E+02  0.37827501139E+02  0.00000000000E+00 0.  1.
         14    1    3    3    0    0 -0.36636685841E+02 -0.70300015121E+02 -0.18303459822E+03  0.19946429009E+03  0.00000000000E+00 0. -1.
         11    1    5    5    0    0 -0.44397163040E+02 -0.36930729370E+02  0.58020053830E+02  0.81861550830E+02  0.00000000000E+00 0. -1.
        -12    1    5    5    0    0  0.31252864961E+02  0.23517694337E+01  0.18957881042E+02  0.36628863501E+02  0.00000000000E+00 0.  1.
          5    1    4    4  501    0  0.53809476186E+02 -0.27245040181E+01 -0.56051310649E+02  0.77859517562E+02  0.41800000000E+01 0.  1.
         -5    1    4    4    0  501 -0.28403954710E+02  0.10699297943E+03 -0.11567679590E+03  0.16016515164E+03  0.41800000000E+01 0.  1.
</event>
<event>
11    1  0.8039394E-009  0.2987665E+03  0.7561462E-02  0.1000715E+00
         22   -1    0    0    0    0  0.00000000000E+00  0.00000000000E+00  0.67478753989E+03  0.67478753989E+03  0.00000000000E+00 0.  1.
         22   -1    0    0    0    0 -0.00000000000E+00 -0.00000000000E+00 -0.23254022280E+03  0.23254022280E+03  0.00000000000E+00 0.  1.
        -24    2    1    2    0    0 -0.22569145763E+03 -0.15508266701E+03 -0.41095023023E+02  0.28826537520E+03  0.80130256267E+02 0.  0.
         25    2    1    2    0    0  0.22984024069E+03  0.13079921535E+03  0.31460147463E+03  0.42960035134E+03  0.12508958014E+03 0.  0.
         24    2    1    2    0    0 -0.41487830618E+01  0.24283451663E+02  0.16874086548E+03  0.18946203615E+03  0.82555950929E+02 0.  0.
        -11    1    5    5    0    0 -0.85479664853E+01  0.25577648634E+02  0.72765711497E+01  0.27932639123E+02  0.00000000000E+00 0.  1.
         12    1    5    5    0    0  0.43991834234E+01 -0.12941969707E+01  0.16146429433E+03  0.16152939702E+03  0.00000000000E+00 0. -1.
         11    1    3    3    0    0 -0.61749208192E+02 -0.31719643011E+02 -0.45577366693E+02  0.83044547201E+02  0.00000000000E+00 0. -1.
        -12    1    3    3    0    0 -0.16394224943E+03 -0.12336302400E+03  0.44823436704E+01  0.20522082800E+03  0.00000000000E+00 0.  1.
          5    1    4    4  501    0 -0.24548798555E+01 -0.12300422115E+01  0.60962348816E+02  0.61167146510E+02  0.41800000000E+01 0. -1.
         -5    1    4    4    0  501  0.23229512054E+03  0.13202925756E+03  0.25363912581E+03  0.36843320483E+03  0.41800000000E+01 0. -1.
</event>
<event>
11    1  0.8039394E-009  0.2104410E+03  0.7561462E-02  0.1047376E+00
         22   -1    0    0    0    0  0.00000000000E+00  0.00000000000E+00  0.20627032072E+04  0.20627032072E+04  0.00000000000E+00 0. -1.
         22   -1    0    0    0    0 -0.00000000000E+00 -0.00000000000E+00 -0.70882878249E+03  0.70882878249E+03  0.00000000000E+00 0. -1.
        -24    2    1    2    0    0 -0.76857929956E+02 -0.18079127617E+01 -0.67484591345E+03  0.68390082461E+03  0.79955744280E+02 0.  0.
         25    2    1    2    0    0  0.22922501825E+03  0.27946373469E+02  0.70091072246E+03  0.74849772685E+03  0.12509155631E+03 0.  0.
         24    2    1    2    0    0 -0.15236708829E+03 -0.26138460708E+02  0.13278096157E+04  0.13391334382E+04  0.79379097563E+02 0.  0.
        -11    1    5    5    0    0 -0.13997606301E+03 -0.33137444789E+02  0.92903798876E+03  0.94010795817E+03  0.00000000000E+00 0.  1.
         12    1    5    5    0    0 -0.12391025287E+02  0.69989840809E+01  0.39877162693E+03  0.39902548005E+03  0.00000000000E+00 0. -1.
         11    1    3    3    0    0 -0.74881226431E+02 -0.78953827436E+01 -0.67305627785E+03  0.67725496550E+03  0.00000000000E+00 0. -1.
        -12    1    3    3    0    0 -0.19767035243E+01  0.60874699819E+01 -0.17896355997E+01  0.66458591005E+01  0.00000000000E+00 0.  1.
          5    1    4    4  501    0 -0.11163278710E+02 -0.88209876053E+01  0.85347583113E+02  0.86626271749E+02  0.41800000000E+01 0. -1.
         -5    1    4    4    0  501  0.24038829696E+03  0.36767361075E+02  0.61556313935E+03  0.66187145511E+03  0.41800000000E+01 0. -1.
</event>
<event>
11    1  0.8039394E-009  0.1401549E+03  0.7561462E-02  0.1107386E+00
         22   -1    0    0    0    0  0.00000000000E+00  0.00000000000E+00  0.13421246468E+03  0.13421246468E+03  0.00000000000E+00 0.  1.
         22   -1    0    0    0    0 -0.00000000000E+00 -0.00000000000E+00 -0.19469617488E+03  0.19469617488E+03  0.00000000000E+00 0.  1.
        -24    2    1    2    0    0 -0.54512936778E+02  0.32222787864E+02 -0.28188329292E+02  0.10674390007E+03  0.81177028528E+02 0.  0.
         25    2    1    2    0    0  0.50482409213E+02 -0.38197658888E+02 -0.40463584912E+02  0.14591778521E+03  0.12508862279E+03 0.  0.
         24    2    1    2    0    0  0.40305275650E+01  0.59748710244E+01  0.81682039965E+01  0.76246954279E+02  0.75464788107E+02 0.  0.
        -13    1    5    5    0    0  0.35533367728E+02  0.50832636187E+01  0.21705080333E+02  0.41947232369E+02  0.00000000000E+00 0.  1.
         14    1    5    5    0    0 -0.31502840163E+02  0.89160740576E+00 -0.13536876337E+02  0.34299721910E+02  0.00000000000E+00 0. -1.
         13    1    3    3    0    0 -0.33349214788E+02 -0.21782941993E+02  0.46261631763E+01  0.40100724115E+02  0.00000000000E+00 0. -1.
        -14    1    3    3    0    0 -0.21163721990E+02  0.54005729856E+02 -0.32814492469E+02  0.66643175958E+02  0.00000000000E+00 0.  1.
          5    1    4    4  501    0  0.23579405562E+02 -0.59183184120E+02  0.27686436183E+02  0.69589142815E+02  0.41800000000E+01 0. -1.
         -5    1    4    4    0  501  0.26903003651E+02  0.20985525232E+02 -0.68150021094E+02  0.76328642395E+02  0.41800000000E+01 0. -1.
</event>
<event>
11    1  0.8039394E-009  0.1425189E+03  0.7561462E-02  0.1104778E+00
         22   -1    0    0    0    0  0.00000000000E+00  0.00000000000E+00  0.11180331762E+03  0.11180331762E+03  0.00000000000E+00 0.  1.
         22   -1    0    0    0    0 -0.00000000000E+00 -0.00000000000E+00 -0.14949355367E+04  0.14949355367E+04  0.00000000000E+00 0.  1.
         24    2    1    2    0    0 -0.34226326457E+01 -0.68937209104E+02 -0.82113665651E+03  0.82797701884E+03  0.80724728841E+02 0.  0.
         25    2    1    2    0    0 -0.44842106697E+02  0.63864719167E+02 -0.64015535816E+03  0.65691444831E+03  0.12509273733E+03 0.  0.
        -24    2    1    2    0    0  0.48264739342E+02  0.50724899367E+01  0.78159795629E+02  0.12184738714E+03  0.79891281634E+02 0.  0.
        -13    1    3    3    0    0  0.33003723154E+02 -0.53398395022E+02 -0.60447241210E+03  0.60772323579E+03  0.00000000000E+00 0.  1.
         14    1    3    3    0    0 -0.36426355799E+02 -0.15538814082E+02 -0.21666424442E+03  0.22025378305E+03  0.00000000000E+00 0. -1.
         13    1    5    5    0    0  0.48537932751E+02 -0.50695956596E+01  0.62212390961E+01  0.49196905713E+02  0.00000000000E+00 0. -1.
        -14    1    5    5    0    0 -0.27319340847E+00  0.10142085596E+02  0.71938556533E+02  0.72650481422E+02  0.00000000000E+00 0.  1.
          5    1    4    4  501    0 -0.18018889670E+02  0.45897542604E+02 -0.69422235739E+02  0.85253645183E+02  0.41800000000E+01 0. -1.
         -5    1    4    4    0  501 -0.26823217026E+02  0.17967176563E+02 -0.57073312242E+03  0.57166080313E+03  0.41800000000E+01 0. -1.
</event>
<event>
11    1  0.8039394E-009  0.1364872E+03  0.7561462E-02  0.1111546E+00
         22   -1    0    0    0    0  0.00000000000E+00  0.00000000000E+00  0.28539936070E+03  0.28539936070E+03  0.00000000000E+00 0. -1.
         22   -1    0    0    0    0 -0.00000000000E+00 -0.00000000000E+00 -0.12814994110E+03  0.12814994110E+03  0.00000000000E+00 0.  1.
        -24    2    1    2    0    0 -0.47648239780E+02  0.21875077958E+02 -0.46751505929E+02  0.10381361263E+03  0.76437484724E+02 0.  0.
         25    2    1    2    0    0  0.69792466992E+02 -0.42467606817E-01  0.95438404805E+02  0.17212332103E+03  0.12508780228E+03 0.  0.
         24    2    1    2    0    0 -0.22144227212E+02 -0.21832610352E+02  0.10856252073E+03  0.13761236814E+03  0.78640404918E+02 0.  0.
        -11    1    5    5    0    0  0.19903044679E+02  0.15657139341E+02  0.18416545060E+02  0.31312079646E+02  0.00000000000E+00 0.  1.
         12    1    5    5    0    0 -0.42047271890E+02 -0.37489749693E+02  0.90145975668E+02  0.10630028850E+03  0.00000000000E+00 0. -1.
         11    1    3    3    0    0  0.13512562550E+02 -0.56148969835E+01  0.85051444567E+01  0.16924948952E+02  0.00000000000E+00 0. -1.
        -12    1    3    3    0    0 -0.61160802330E+02  0.27489974942E+02 -0.55256650386E+02  0.86888663678E+02  0.00000000000E+00 0.  1.
          5    1    4    4  501    0 -0.41922385687E+01  0.47864953704E+02  0.60126607609E+02  0.77079893616E+02  0.41800000000E+01 0.  1.
         -5    1    4    4    0  501  0.73984705560E+02 -0.47907421311E+02  0.35311797196E+02  0.95043427415E+02  0.41800000000E+01 0.  1.
</event>
<event>
11    1  0.8039394E-009  0.1683054E+03  0.7561462E-02  0.1079516E+00
         22   -1    0    0    0    0  0.00000000000E+00  0.00000000000E+00  0.79955335898E+03  0.79955335898E+03  0.00000000000E+00 0. -1.
         22   -1    0    0    0    0 -0.00000000000E+00 -0.00000000000E+00 -0.61931850906E+03  0.61931850906E+03  0.00000000000E+00 0. -1.
         24    2    1    2    0    0 -0.92509350487E+02  0.62635410848E+02 -0.57173512369E+03  0.58811614224E+03  0.80736425941E+02 0.  0.
         25    2    1    2    0    0  0.12628572241E+03 -0.61561207076E+02  0.21083588689E+03  0.28255529741E+03  0.12509140255E+03 0.  0.
        -24    2    1    2    0    0 -0.33776371926E+02 -0.10742037722E+01  0.54113408672E+03  0.54820042840E+03  0.80966738045E+02 0.  0.
        -13    1    3    3    0    0 -0.65898370938E+02  0.78513746319E+02 -0.36687421127E+03  0.38092478333E+03  0.00000000000E+00 0.  1.
         14    1    3    3    0    0 -0.26610979549E+02 -0.15878335471E+02 -0.20486091242E+03  0.20719135891E+03  0.00000000000E+00 0. -1.
         13    1    5    5    0    0 -0.19104764994E+02 -0.23201062549E+02  0.48680013897E+03  0.48772703088E+03  0.00000000000E+00 0. -1.
        -14    1    5    5    0    0 -0.14671606933E+02  0.22126858776E+02  0.54333947756E+02  0.60473397524E+02  0.00000000000E+00 0.  1.
          5    1    4    4  501    0  0.11673890549E+02 -0.62353143500E+02  0.34860664362E+02  0.72504707052E+02  0.41800000000E+01 0.  1.
         -5    1    4    4    0  501  0.11461183186E+03  0.79193642385E+00  0.17597522252E+03  0.21005059036E+03  0.41800000000E+01 0.  1.
</event>
<event>
11    1  0.8039394E-009  0.1609784E+03  0.7561462E-02  0.1086161E+00
         22   -1    0    0    0    0  0.00000000000E+00  0.00000000000E+00  0.31931165929E+03  0.31931165929E+03  0.00000000000E+00 0. -1.
         22   -1    0    0    0    0 -0.00000000000E+00 -0.00000000000E+00 -0.60672237569E+03  0.60672237569E+03  0.00000000000E+00 0.  1.
        -24    2    1    2    0    0 -0.23052696826E+02  0.39742164739E+02 -0.51432496850E+03  0.52283607109E+03  0.81954362436E+02 0.  0.
         25    2    1    2    0    0 -0.29984080800E+02 -0.12029844574E+03  0.43632347143E+02  0.18144454083E+03  0.12509028153E+03 0.  0.
         24    2    1    2    0    0  0.53036777626E+02  0.80556280997E+02  0.18328190496E+03  0.22175342306E+03  0.79247143565E+02 0.  0.
        -13    1    5    5    0    0  0.16767348219E+02  0.30619619598E+02  0.78500009286E+01  0.35781665489E+02  0.00000000000E+00 0.  1.
         14    1    5    5    0    0  0.36269429406E+02  0.49936661399E+02  0.17543190403E+03  0.18597175757E+03  0.00000000000E+00 0. -1.
         11    1    3    3    0    0  0.19752058620E+02 -0.46376855203E+01 -0.43595351000E+02  0.48085409175E+02  0.00000000000E+00 0. -1.
        -12    1    3    3    0    0 -0.42804755446E+02  0.44379850259E+02 -0.47072961750E+03  0.47475066192E+03  0.00000000000E+00 0.  1.
          5    1    4    4  501    0 -0.78748084457E+02 -0.83533081216E+02  0.30075138071E+02  0.11874772753E+03  0.41800000000E+01 0.  1.
         -5    1    4    4    0  501  0.48764003656E+02 -0.36765364519E+02  0.13557209072E+02  0.62696813305E+02  0.41800000000E+01 0.  1.
</event>
<event>
11    1  0.8039394E-009  0.1367647E+03  0.7561462E-02  0.1111226E+00
         22   -1    0    0    0    0  0.00000000000E+00  0.00000000000E+00  0.10341735176E+04  0.10341735176E+04  0.00000000000E+00 0. -1.
         22   -1    0    0    0    0 -0.00000000000E+00 -0.00000000000E+00 -0.52180904020E+02  0.52180904020E+02  0.00000000000E+00 0.  1.
         24    2    1    2    0    0 -0.33215408864E+02 -0.13373532812E+02  0.19427537396E+02  0.89827988137E+02  0.80059499608E+02 0.  0.
         25    2    1    2    0    0 -0.92344761986E+01  0.53273590173E+02  0.34428576532E+03  0.37027997060E+03  0.12510482589E+03 0.  0.
        -24    2    1    2    0    0  0.42449885063E+02 -0.39900057361E+02  0.61827931090E+03  0.62624646292E+03  0.80754682324E+02 0.  0.
        -11    1    3    3    0    0 -0.16513220926E+02 -0.76818301557E+01 -0.31248053865E+02  0.36168188374E+02  0.00000000000E+00 0.  1.
         12    1    3    3    0    0 -0.16702187937E+02 -0.56917026562E+01  0.50675591260E+02  0.53659799763E+02  0.00000000000E+00 0. -1.
         11    1    5    5    0    0  0.58167884196E+02 -0.39697926524E+02  0.58730074580E+03  0.59150789863E+03  0.00000000000E+00 0. -1.
        -12    1    5    5    0    0 -0.15717999134E+02 -0.20213083681E+00  0.30978565103E+02  0.34738564298E+02  0.00000000000E+00 0.  1.
          5    1    4    4  501    0 -0.51631146734E+02  0.63631571550E+01  0.25799618180E+03  0.26322189747E+03  0.41800000000E+01 0.  1.
         -5    1    4    4    0  501  0.42396670535E+02  0.46910433018E+02  0.86289583522E+02  0.10705807313E+03  0.41800000000E+01 0.  1.
</event>
<event>
11    1  0.8039394E-009  0.1414107E+03  0.7561462E-02  0.1105993E+00
         22   -1    0    0    0    0  0.00000000000E+00  0.00000000000E+00  0.71921659254E+03  0.71921659254E+03  0.00000000000E+00 0. -1.
         22   -1    0    0    0    0 -0.00000000000E+00 -0.00000000000E+00 -0.18921151038E+03  0.18921151038E+03  0.00000000000E+00 0.  1.
         24    2    1    2    0    0 -0.66623442046E+02 -0.67015365050E+01 -0.15253096963E+03  0.18510432458E+03  0.80711341588E+02 0.  0.
         25    2    1    2    0    0  0.46645014191E+02 -0.45174400593E+02  0.36325159072E+03  0.38963508629E+03  0.12508916218E+03 0.  0.
        -24    2    1    2    0    0  0.19978427855E+02  0.51875937098E+02  0.31928446108E+03  0.33368869203E+03  0.79469023381E+02 0.  0.
        -13    1    3    3    0    0 -0.81590688047E+02 -0.64907852005E+00 -0.14683912667E+03  0.16798568630E+03  0.00000000000E+00 0.  1.
         14    1    3    3    0    0  0.14967246001E+02 -0.60524579849E+01 -0.56918429617E+01  0.17118638287E+02  0.00000000000E+00 0. -1.
         13    1    5    5    0    0  0.28602582281E+02  0.69788082557E+02  0.22413701186E+03  0.23648654140E+03  0.00000000000E+00 0. -1.
        -14    1    5    5    0    0 -0.86241544260E+01 -0.17912145459E+02  0.95147449218E+02  0.97202150631E+02  0.00000000000E+00 0.  1.
          5    1    4    4  501    0  0.44740381215E+02  0.29851547453E+01  0.32929743648E+02  0.55789365266E+02  0.41800000000E+01 0.  1.
         -5    1    4    4    0  501  0.19046329761E+01 -0.48159555339E+02  0.33032184707E+03  0.33384572103E+03  0.41800000000E+01 0.  1.
</event>
<event>
11    1  0.8039394E-009  0.1986615E+03  0.7561462E-02  0.1055474E+00
         22   -1    0    0    0    0  0.00000000000E+00  0.00000000000E+00  0.66993904591E+03  0.66993904591E+03  0.00000000000E+00 0.  1.
         22   -1    0    0    0    0 -0.00000000000E+00 -0.00000000000E+00 -0.38756644408E+03  0.38756644408E+03  0.00000000000E+00 0. -1.
         24    2    1    2    0    0  0.12045433320E+03  0.88397699980E+02 -0.24329409461E+03  0.29641522593E+03  0.79665362264E+02 0.  0.
         25    2    1    2    0    0 -0.19549583566E+03 -0.24438985941E+02  0.14012653837E+02  0.23378857465E+03  0.12507940427E+03 0.  0.
        -24    2    1    2    0    0  0.75041502469E+02 -0.63958714039E+02  0.51165404260E+03  0.52730168942E+03  0.80841005401E+02 0.  0.
        -13    1    3    3    0    0  0.10961688802E+03  0.90255466578E+02 -0.16644130483E+03  0.21877984217E+03  0.00000000000E+00 0.  1.
         14    1    3    3    0    0  0.10837445173E+02 -0.18577665983E+01 -0.76852789781E+02  0.77635383761E+02  0.00000000000E+00 0. -1.
         13    1    5    5    0    0  0.20384513668E+02 -0.69630318593E+02  0.29041081665E+03  0.29933651981E+03  0.00000000000E+00 0. -1.
        -14    1    5    5    0    0  0.54656988801E+02  0.56716045548E+01  0.22124322595E+03  0.22796516961E+03  0.00000000000E+00 0.  1.
          5    1    4    4  501    0 -0.28555416297E+02 -0.44256143296E+02  0.36372637740E+02  0.64144050351E+02  0.41800000000E+01 0.  1.
         -5    1    4    4    0  501 -0.16694041937E+03  0.19817157355E+02 -0.22359983903E+02  0.16964452430E+03  0.41800000000E+01 0.  1.
</event>
<event>
11    1  0.8039394E-009  0.7310780E+03  0.7561462E-02  0.8987720E-01
         22   -1    0    0    0    0  0.00000000000E+00  0.00000000000E+00  0.80881909831E+03  0.80881909831E+03  0.00000000000E+00 0.  1.
         22   -1    0    0    0    0 -0.00000000000E+00 -0.00000000000E+00 -0.10864551073E+04  0.10864551073E+04  0.00000000000E+00 0.  1.
        -24    2    1    2    0    0 -0.54707511315E+02  0.31711423084E+02 -0.17895216190E+03  0.20700554934E+03  0.82637128832E+02 0.  0.
         25    2    1    2    0    0 -0.64515118185E+03 -0.24240835884E+03 -0.49048066010E+03  0.85510344365E+03  0.12509501000E+03 0.  0.
         24    2    1    2    0    0  0.69985869317E+03  0.21069693575E+03  0.39179681298E+03  0.83316521265E+03  0.80399874227E+02 0.  0.
        -11    1    5    5    0    0  0.58053327628E+03  0.20145327856E+03  0.31053151590E+03  0.68849991335E+03  0.00000000000E+00 0.  1.
         12    1    5    5    0    0  0.11932541689E+03  0.92436571892E+01  0.81265297080E+02  0.14466529930E+03  0.00000000000E+00 0. -1.
         13    1    3    3    0    0 -0.32806974649E+02  0.59679281123E+02 -0.10844461651E+03  0.12805525773E+03  0.00000000000E+00 0. -1.
        -14    1    3    3    0    0 -0.21900536666E+02 -0.27967858040E+02 -0.70507545388E+02  0.78950291616E+02  0.00000000000E+00 0.  1.
          5    1    4    4  501    0 -0.35629568786E+03 -0.19880676001E+03 -0.29734815477E+03  0.50488032499E+03  0.41800000000E+01 0.  1.
         -5    1    4    4    0  501 -0.28885549399E+03 -0.43601598827E+02 -0.19313250533E+03  0.35022311866E+03  0.41800000000E+01 0.  1.
</event>
<event>
11    1  0.8039394E-009  0.1317624E+03  0.7561462E-02  0.1117122E+00
         22   -1    0    0    0    0  0.00000000000E+00  0.00000000000E+00  0.14571454992E+04  0.14571454992E+04  0.00000000000E+00 0. -1.
         22   -1    0    0    0    0 -0.00000000000E+00 -0.00000000000E+00 -0.95960328044E+03  0.95960328044E+03  0.00000000000E+00 0. -1.
         24    2    1    2    0    0  0.14768838789E+02 -0.25708031858E+02 -0.84966064737E+03  0.85441467271E+03  0.84983502842E+02 0.  0.
         25    2    1    2    0    0 -0.55919598327E+02  0.27142671738E+02 -0.60031895002E+02  0.15203589320E+03  0.12508940122E+03 0.  0.
        -24    2    1    2    0    0  0.41150759538E+02 -0.14346398795E+01  0.14072347612E+04  0.14102982137E+04  0.83282263856E+02 0.  0.
        -11    1    3    3    0    0  0.36103998092E+02  0.17086347915E+02 -0.29411327245E+03  0.29681317187E+03  0.00000000000E+00 0.  1.
         12    1    3    3    0    0 -0.21335159303E+02 -0.42794379773E+02 -0.55554737492E+03  0.55760150084E+03  0.00000000000E+00 0. -1.
         11    1    5    5    0    0 -0.81172376015E+01  0.38248902957E+01  0.10027338823E+04  0.10027740314E+04  0.00000000000E+00 0. -1.
        -12    1    5    5    0    0  0.49267997139E+02 -0.52595301752E+01  0.40450087887E+03  0.40752418236E+03  0.00000000000E+00 0.  1.
          5    1    4    4  501    0 -0.55406308081E+02  0.59421016785E+02  0.26610161120E+01  0.81395759212E+02  0.41800000000E+01 0.  1.
         -5    1    4    4    0  501 -0.51329024596E+00 -0.32278345047E+02 -0.62692911114E+02  0.70640133988E+02  0.41800000000E+01 0.  1.
</event>
<event>
11    1  0.8039394E-009  0.2557595E+03  0.7561462E-02  0.1020875E+00
         22   -1    0    0    0    0  0.00000000000E+00  0.00000000000E+00  0.83268819574E+03  0.83268819574E+03  0.00000000000E+00 0.  1.
         22   -1    0    0    0    0 -0.00000000000E+00 -0.00000000000E+00 -0.38651205274E+03  0.38651205274E+03  0.00000000000E+00 0. -1.
        -24    2    1    2    0    0  0.34764136627E+02 -0.22022554241E+03 -0.30968990269E+03  0.38985832071E+03  0.79836330521E+02 0.  0.
         25    2    1    2    0    0 -0.51160538729E+02  0.21963023470E+03  0.55539208652E+03  0.61234206697E+03  0.12509035331E+03 0.  0.
         24    2    1    2    0    0  0.16396402102E+02  0.59530770987E+00  0.20047395916E+03  0.21699986080E+03  0.81424412132E+02 0.  0.
        -13    1    5    5    0    0 -0.31890695066E+02 -0.94489309369E+01  0.92387206563E+02  0.98192131376E+02  0.00000000000E+00 0.  1.
         14    1    5    5    0    0  0.48287097168E+02  0.10044238647E+02  0.10808675260E+03  0.11880772942E+03  0.00000000000E+00 0. -1.
         13    1    3    3    0    0  0.82149334186E+00 -0.15396391644E+03 -0.25346346296E+03  0.29656245459E+03  0.00000000000E+00 0. -1.
        -14    1    3    3    0    0  0.33942643285E+02 -0.66261625975E+02 -0.56226439725E+02  0.93295866116E+02  0.00000000000E+00 0.  1.
          5    1    4    4  501    0 -0.21036457095E+02  0.50463368225E+02  0.29690904351E+03  0.30192968814E+03  0.41800000000E+01 0.  1.
         -5    1    4    4    0  501 -0.30124081634E+02  0.16916686648E+03  0.25848304301E+03  0.31041237883E+03  0.41800000000E+01 0.  1.
</event>
<event>
11    1  0.8039394E-009  0.1350268E+03  0.7561462E-02  0.1113242E+00
         22   -1    0    0    0    0  0.00000000000E+00  0.00000000000E+00  0.13945255973E+04  0.13945255973E+04  0.00000000000E+00 0.  1.
         22   -1    0    0    0    0 -0.00000000000E+00 -0.00000000000E+00 -0.40881058565E+03  0.40881058565E+03  0.00000000000E+00 0. -1.
         24    2    1    2    0    0 -0.14703972174E+02  0.57679888541E+02 -0.27405204854E+03  0.29093508521E+03  0.77430757193E+02 0.  0.
         25    2    1    2    0    0  0.21258357762E+02 -0.11843399763E+02 -0.92230000245E+02  0.15730901854E+03  0.12509024932E+03 0.  0.
        -24    2    1    2    0    0 -0.65543855888E+01 -0.45836488778E+02  0.13519970604E+04  0.13550920792E+04  0.78959154014E+02 0.  0.
        -13    1    3    3    0    0 -0.22630245669E+02 -0.12049707334E+02 -0.50645577294E+02  0.56765288384E+02  0.00000000000E+00 0.  1.
         14    1    3    3    0    0  0.79262734957E+01  0.69729595875E+02 -0.22340647124E+03  0.23416979683E+03  0.00000000000E+00 0. -1.
         11    1    5    5    0    0  0.22473858808E+02  0.12443065636E+02  0.30978596759E+03  0.31084923987E+03  0.00000000000E+00 0. -1.
        -12    1    5    5    0    0 -0.29028244397E+02 -0.58279554414E+02  0.10422110929E+04  0.10442428393E+04  0.00000000000E+00 0.  1.
          5    1    4    4  501    0 -0.34916721280E+02 -0.29030541572E+02  0.26048063050E+01  0.45675017075E+02  0.41800000000E+01 0.  1.
         -5    1    4    4    0  501  0.56175079043E+02  0.17187141809E+02 -0.94834806550E+02  0.11163400146E+03  0.41800000000E+01 0.  1.
</event>
<event>
11    1  0.8039394E-009  0.2608160E+03  0.7561462E-02  0.1018290E+00
         22   -1    0    0    0    0  0.00000000000E+00  0.00000000000E+00  0.30345281511E+03  0.30345281511E+03  0.00000000000E+00 0. -1.
         22   -1    0    0    0    0 -0.00000000000E+00 -0.00000000000E+00 -0.51379886079E+03  0.51379886079E+03  0.00000000000E+00 0.  1.
        -24    2    1    2    0    0 -0.17389030902E+03 -0.14295197184E+03 -0.34572014880E+03  0.42074463575E+03  0.82646968495E+02 0.  0.
         25    2    1    2    0    0  0.19752721331E+03  0.15518763203E+03  0.13426470852E+03  0.31108658304E+03  0.12509056344E+03 0.  0.
         24    2    1    2    0    0 -0.23636904294E+02 -0.12235660189E+02  0.11093945994E+01  0.85420457114E+02  0.81160391278E+02 0.  0.
        -13    1    5    5    0    0 -0.48019695518E+02  0.12163788283E+02 -0.68833715693E+01  0.50012295560E+02  0.00000000000E+00 0.  1.
         14    1    5    5    0    0  0.24382791224E+02 -0.24399448472E+02  0.79927661687E+01  0.35408161554E+02  0.00000000000E+00 0. -1.
         13    1    3    3    0    0 -0.23195473147E+02 -0.28650556491E+01 -0.87549012439E+02  0.90614944117E+02  0.00000000000E+00 0. -1.
        -14    1    3    3    0    0 -0.15069483587E+03 -0.14008691619E+03 -0.25817113636E+03  0.33012969163E+03  0.00000000000E+00 0.  1.
          5    1    4    4  501    0  0.40060996247E+02 -0.86991739003E+01 -0.92846045982E+01  0.42240209864E+02  0.41800000000E+01 0.  1.
         -5    1    4    4    0  501  0.15746621707E+03  0.16388680593E+03  0.14354931312E+03  0.26884637318E+03  0.41800000000E+01 0.  1.
</event>
<event>
11    1  0.8039394E-009  0.1313014E+03  0.7561462E-02  0.1117680E+00
         22   -1    0    0    0    0  0.00000000000E+00  0.00000000000E+00  0.28141533769E+03  0.28141533769E+03  0.00000000000E+00 0. -1.
         22   -1    0    0    0    0 -0.00000000000E+00 -0.00000000000E+00 -0.95020717798E+03  0.95020717798E+03  0.00000000000E+00 0. -1.
        -24    2    1    2    0    0  0.94203021030E+01 -0.77328586270E+01 -0.87679910924E+03  0.87890935766E+03  0.59635910488E+02 0.  0.
         25    2    1    2    0    0  0.27398904216E+02  0.24766965476E+02  0.51874895899E+01  0.13053786904E+03  0.12509645348E+03 0.  0.
         24    2    1    2    0    0 -0.36819206319E+02 -0.17034106849E+02  0.20281977937E+03  0.22217528897E+03  0.81118317151E+02 0.  0.
        -11    1    5    5    0    0 -0.25866131669E+02  0.17899407462E+02  0.23785020424E+02  0.39435678663E+02  0.00000000000E+00 0.  1.
         12    1    5    5    0    0 -0.10953074650E+02 -0.34933514311E+02  0.17903475894E+03  0.18273961031E+03  0.00000000000E+00 0. -1.
         13    1    3    3    0    0 -0.11695334038E+02  0.20718676869E+02 -0.45646197632E+03  0.45708159035E+03  0.00000000000E+00 0. -1.
        -14    1    3    3    0    0  0.21115636141E+02 -0.28451535496E+02 -0.42033713292E+03  0.42182776731E+03  0.00000000000E+00 0.  1.
          5    1    4    4  501    0  0.59961672132E+02  0.36051551015E+02 -0.34239213564E+02  0.78005849787E+02  0.41800000000E+01 0. -1.
         -5    1    4    4    0  501 -0.32562767916E+02 -0.11284585539E+02  0.39426703154E+02  0.52532019253E+02  0.41800000000E+01 0. -1.
</event>
<event>
11    1  0.8039394E-009  0.1986026E+03  0.7561462E-02  0.1055516E+00
         22   -1    0    0    0    0  0.00000000000E+00  0.00000000000E+00  0.70774290588E+03  0.70774290588E+03  0.00000000000E+00 0. -1.
         22   -1    0    0    0    0 -0.00000000000E+00 -0.00000000000E+00 -0.10000637059E+04  0.10000637059E+04  0.00000000000E+00 0. -1.
        -24    2    1    2    0    0  0.23543916428E+00  0.10899096101E+03 -0.87861768060E+03  0.88913448130E+03  0.81926870815E+02 0.  0.
         25    2    1    2    0    0 -0.80809473293E+02 -0.22857360586E+03  0.76424864043E+02  0.28330236818E+03  0.12507360914E+03 0.  0.
         24    2    1    2    0    0  0.80574034128E+02  0.11958264484E+03  0.50987201655E+03  0.53536976229E+03  0.76544922749E+02 0.  0.
        -11    1    5    5    0    0  0.52981001047E+02  0.15111735177E+02  0.16321482011E+03  0.17226267302E+03  0.00000000000E+00 0.  1.
         12    1    5    5    0    0  0.27593033081E+02  0.10447090967E+03  0.34665719643E+03  0.36310708927E+03  0.00000000000E+00 0. -1.
         11    1    3    3    0    0 -0.26026662047E+02  0.93683158328E+02 -0.77722286589E+03  0.78328111464E+03  0.00000000000E+00 0. -1.
        -12    1    3    3    0    0  0.26262101212E+02  0.15307802686E+02 -0.10139481471E+03  0.10585336666E+03  0.00000000000E+00 0.  1.
          5    1    4    4  501    0 -0.48497749272E+02 -0.61187002605E+02 -0.28337900564E+02  0.83164836202E+02  0.41800000000E+01 0.  1.
         -5    1    4    4    0  501 -0.32311724021E+02 -0.16738660325E+03  0.10476276461E+03  0.20013753198E+03  0.41800000000E+01 0.  1.
</event>
<event>
11    1  0.8039394E-009  0.1352647E+03  0.7561462E-02  0.1112964E+00
         22   -1    0    0    0    0  0.00000000000E+00  0.00000000000E+00  0.47968148921E+02  0.47968148921E+02  0.00000000000E+00 0. -1.
         22   -1    0    0    0    0 -0.00000000000E+00 -0.00000000000E+00 -0.10839162804E+04  0.10839162804E+04  0.00000000000E+00 0.  1.
        -24    2    1    2    0    0 -0.51433150592E+01 -0.49601021929E+02 -0.80039393253E+03  0.80581836514E+03  0.78905483337E+02 0.  0.
         25    2    1    2    0    0  0.35875844293E+01  0.68827732558E+02 -0.14510381721E+03  0.20359738268E+03  0.12508656577E+03 0.  0.
         24    2    1    2    0    0  0.15557306299E+01 -0.19226710629E+02 -0.90450381792E+02  0.12246868155E+03  0.80282125619E+02 0.  0.
        -13    1    5    5    0    0 -0.33850042638E+02 -0.38695024838E+01 -0.14010280665E+02  0.36838653618E+02  0.00000000000E+00 0.  1.
         14    1    5    5    0    0  0.35405773268E+02 -0.15357208145E+02 -0.76440101127E+02  0.85630027928E+02  0.00000000000E+00 0. -1.
         11    1    3    3    0    0  0.27980063540E+02  0.59365239929E+01 -0.26053194819E+03  0.26209735272E+03  0.00000000000E+00 0. -1.
        -12    1    3    3    0    0 -0.33123378599E+02 -0.55537545922E+02 -0.53986198434E+03  0.54372101242E+03  0.00000000000E+00 0.  1.
          5    1    4    4  501    0 -0.45352464474E+02 -0.38018079007E+01 -0.17856984045E+02  0.49067749657E+02  0.41800000000E+01 0. -1.
         -5    1    4    4    0  501  0.48940048904E+02  0.72629540459E+02 -0.12724683316E+03  0.15452963303E+03  0.41800000000E+01 0. -1.
</event>
<event>
11    1  0.8039394E-009  0.1745544E+03  0.7561462E-02  0.1074135E+00
         22   -1    0    0    0    0  0.00000000000E+00  0.00000000000E+00  0.11119417682E+04  0.11119417682E+04  0.00000000000E+00 0.  1.
         22   -1    0    0    0    0 -0.00000000000E+00 -0.00000000000E+00 -0.54196311690E+03  0.54196311690E+03  0.00000000000E+00 0.  1.
        -24    2    1    2    0    0 -0.56431218142E+02 -0.56061991737E+02 -0.50141999818E+03  0.51406033123E+03  0.80675772540E+02 0.  0.
         25    2    1    2    0    0  0.14305892970E+02  0.16271109818E+03  0.35802717491E+03  0.41292915719E+03  0.12508985106E+03 0.  0.
         24    2    1    2    0    0  0.42125325172E+02 -0.10664910644E+03  0.71337147455E+03  0.72691539667E+03  0.79740568627E+02 0.  0.
        -11    1    5    5    0    0  0.14764147514E+02 -0.56758796479E+02  0.56453349074E+03  0.56757167230E+03  0.00000000000E+00 0.  1.
         12    1    5    5    0    0  0.27361177658E+02 -0.49890309961E+02  0.14883798381E+03  0.15934372437E+03  0.00000000000E+00 0. -1.
         13    1    3    3    0    0 -0.21662957355E+01 -0.35520792764E+02 -0.67765629716E+02  0.76541492843E+02  0.00000000000E+00 0. -1.
        -14    1    3    3    0    0 -0.54264922407E+02 -0.20541198973E+02 -0.43365436846E+03  0.43751883839E+03  0.00000000000E+00 0.  1.
          5    1    4    4  501    0  0.42579347782E+02  0.46879900105E+01  0.53586253909E+02  0.68730903645E+02  0.41800000000E+01 0.  1.
         -5    1    4    4    0  501 -0.28273454813E+02  0.15802310817E+03  0.30444092100E+03  0.34419825354E+03  0.41800000000E+01 0.  1.
</event>
<event>
11    1  0.8039394E-009  0.1813958E+03  0.7561462E-02  0.1068519E+00
         22   -1    0    0    0    0  0.00000000000E+00  0.00000000000E+00  0.16031020753E+04  0.16031020753E+04  0.00000000000E+00 0. -1.
         22   -1    0    0    0    0 -0.00000000000E+00 -0.00000000000E+00 -0.40906680141E+03  0.40906680141E+03  0.00000000000E+00 0.  1.
         24    2    1    2    0    0 -0.12600283912E+03  0.21827405469E+02 -0.34821220882E+03  0.37969523042E+03  0.81015890645E+02 0.  0.
         25    2    1    2    0    0  0.22993072058E+03  0.16691730587E+02  0.37666047082E+03  0.45898267105E+03  0.12508090148E+03 0.  0.
        -24    2    1    2    0    0 -0.10392788146E+03 -0.38519136055E+02  0.11655870119E+04  0.11734909752E+04  0.78760766145E+02 0.  0.
        -13    1    3    3    0    0 -0.85402031495E+02  0.39131238277E+02 -0.29985476543E+03  0.31422546227E+03  0.00000000000E+00 0.  1.
         14    1    3    3    0    0 -0.40600807625E+02 -0.17303832808E+02 -0.48357443399E+02  0.65469768151E+02  0.00000000000E+00 0. -1.
         13    1    5    5    0    0 -0.59831697214E+02  0.75757667744E+01  0.80886435345E+03  0.81110958971E+03  0.00000000000E+00 0. -1.
        -14    1    5    5    0    0 -0.44096184243E+02 -0.46094902830E+02  0.35672265841E+03  0.36238138550E+03  0.00000000000E+00 0.  1.
          5    1    4    4  501    0  0.41885880704E+02  0.48078469931E+02  0.51672983176E+02  0.82179899389E+02  0.41800000000E+01 0. -1.
         -5    1    4    4    0  501  0.18804483987E+03 -0.31386739344E+02  0.32498748764E+03  0.37680277167E+03  0.41800000000E+01 0. -1.
</event>
<event>
11    1  0.8039394E-009  0.1286594E+03  0.7561462E-02  0.1120927E+00
         22   -1    0    0    0    0  0.00000000000E+00  0.00000000000E+00  0.76008946485E+02  0.76008946485E+02  0.00000000000E+00 0.  1.
         22   -1    0    0    0    0 -0.00000000000E+00 -0.00000000000E+00 -0.14018521351E+04  0.14018521351E+04  0.00000000000E+00 0. -1.
        -24    2    1    2    0    0 -0.39226593286E+02 -0.12500943302E+02 -0.11729165676E+04  0.11763994657E+04  0.80544579330E+02 0.  0.
         25    2    1    2    0    0  0.17788086353E+02  0.36689235346E+02 -0.16310851347E+03  0.20955752360E+03  0.12508977787E+03 0.  0.
         24    2    1    2    0    0  0.21438506932E+02 -0.24188292044E+02  0.10181892419E+02  0.91904092266E+02  0.85428380475E+02 0.  0.
        -13    1    5    5    0    0  0.97673377909E+01 -0.42997017859E+02  0.36695671547E+02  0.57364769175E+02  0.00000000000E+00 0.  1.
         14    1    5    5    0    0  0.11671169141E+02  0.18808725815E+02 -0.26513779128E+02  0.34539323091E+02  0.00000000000E+00 0. -1.
         13    1    3    3    0    0 -0.33460238150E+02 -0.43289196326E+02 -0.90613096768E+03  0.90778129119E+03  0.00000000000E+00 0. -1.
        -14    1    3    3    0    0 -0.57663551354E+01  0.30788253023E+02 -0.26678559991E+03  0.26861817454E+03  0.00000000000E+00 0.  1.
          5    1    4    4  501    0 -0.52768423095E+02  0.25196985123E+02 -0.88398806451E+02  0.10607174891E+03  0.41800000000E+01 0.  1.
         -5    1    4    4    0  501  0.70556509449E+02  0.11492250223E+02 -0.74709707014E+02  0.10348577469E+03  0.41800000000E+01 0.  1.
</event>
<event>
11    1  0.8039394E-009  0.1375782E+03  0.7561462E-02  0.1110293E+00
         22   -1    0    0    0    0  0.00000000000E+00  0.00000000000E+00  0.10611164788E+04  0.10611164788E+04  0.00000000000E+00 0.  1.
         22   -1    0    0    0    0 -0.00000000000E+00 -0.00000000000E+00 -0.30013079999E+03  0.30013079999E+03  0.00000000000E+00 0.  1.
         24    2    1    2    0    0  0.28881130044E+02 -0.55664678971E+02 -0.23582153323E+03  0.25615389495E+03  0.77912426531E+02 0.  0.
         25    2    1    2    0    0  0.29055142075E+02  0.38475004904E+02  0.39641177492E+02  0.13980073757E+03  0.12509314925E+03 0.  0.
        -24    2    1    2    0    0 -0.57936272120E+02  0.17189674067E+02  0.95716603452E+03  0.96529264624E+03  0.10941196790E+03 0.  0.
        -13    1    3    3    0    0 -0.19216017020E+02 -0.46655659531E+02 -0.10541899766E+03  0.11687245589E+03  0.00000000000E+00 0.  1.
         14    1    3    3    0    0  0.48097147064E+02 -0.90090194400E+01 -0.13040253556E+03  0.13928143907E+03  0.00000000000E+00 0. -1.
         11    1    5    5    0    0  0.22813857695E+02  0.61588002694E+01  0.60824440189E+02  0.65253470773E+02  0.00000000000E+00 0. -1.
        -12    1    5    5    0    0 -0.80750129815E+02  0.11030873798E+02  0.89634159433E+03  0.90003917547E+03  0.00000000000E+00 0.  1.
          5    1    4    4  501    0  0.59600686291E+02 -0.22741125310E+02  0.29883231539E+02  0.70568268463E+02  0.41800000000E+01 0.  1.
         -5    1    4    4    0  501 -0.30545544215E+02  0.61216130214E+02  0.97579459540E+01  0.69232469109E+02  0.41800000000E+01 0.  1.
</event>
<event>
11    1  0.8039394E-009  0.1884036E+03  0.7561462E-02  0.1063041E+00
         22   -1    0    0    0    0  0.00000000000E+00  0.00000000000E+00  0.14572426341E+03  0.14572426341E+03  0.00000000000E+00 0.  1.
         22   -1    0    0    0    0 -0.00000000000E+00 -0.00000000000E+00 -0.65535561848E+03  0.65535561848E+03  0.00000000000E+00 0.  1.
         24    2    1    2    0    0  0.10528940044E+03 -0.97430611964E+02 -0.51681313333E+03  0.54245005431E+03  0.81102802943E+02 0.  0.
         25    2    1    2    0    0 -0.96610017597E+02  0.77684299719E+02 -0.45072030903E+01  0.17616921413E+03  0.12508769406E+03 0.  0.
        -24    2    1    2    0    0 -0.86793828436E+01  0.19746312245E+02  0.11688981355E+02  0.82460613442E+02  0.78726564452E+02 0.  0.
        -13    1    3    3    0    0  0.71656061112E+02 -0.10288861267E+03 -0.45394126153E+03  0.47093877164E+03  0.00000000000E+00 0.  1.
         14    1    3    3    0    0  0.33633339328E+02  0.54580007020E+01 -0.62871871801E+02  0.71511282675E+02  0.00000000000E+00 0. -1.
         13    1    5    5    0    0  0.26154008229E+02 -0.64651520185E+01  0.25129699763E+02  0.36841988915E+02  0.00000000000E+00 0. -1.
        -14    1    5    5    0    0 -0.34833391072E+02  0.26211464263E+02 -0.13440718409E+02  0.45618624527E+02  0.00000000000E+00 0.  1.
          5    1    4    4  501    0 -0.25339050022E+02 -0.29722228846E+02  0.21239023550E+02  0.44654751874E+02  0.41800000000E+01 0.  1.
         -5    1    4    4    0  501 -0.71270967574E+02  0.10740652856E+03 -0.25746226640E+02  0.13151446226E+03  0.41800000000E+01 0.  1.
</event>
<event>
11    1  0.8039394E-009  0.1953572E+03  0.7561462E-02  0.1057856E+00
         22   -1    0    0    0    0  0.00000000000E+00  0.00000000000E+00  0.97329837414E+03  0.97329837414E+03  0.00000000000E+00 0.  1.
         22   -1    0    0    0    0 -0.00000000000E+00 -0.00000000000E+00 -0.90022979490E+02  0.90022979490E+02  0.00000000000E+00 0.  1.
        -24    2    1    2    0    0  0.11620320853E+02  0.15865311639E+03  0.57438699902E+02  0.18678693478E+03  0.79273649862E+02 0.  0.
         25    2    1    2    0    0  0.53837323132E+02 -0.11705156530E+03  0.45142358277E+03  0.48582662313E+03  0.12507889655E+03 0.  0.
         24    2    1    2    0    0 -0.65457643985E+02 -0.41601551086E+02  0.37441311198E+03  0.39070779572E+03  0.80324411003E+02 0.  0.
        -11    1    5    5    0    0 -0.84271747793E+02 -0.31576483281E+02  0.31410512179E+03  0.32674275708E+03  0.00000000000E+00 0.  1.
         12    1    5    5    0    0  0.18814103808E+02 -0.10025067804E+02  0.60307990192E+02  0.63965038635E+02  0.00000000000E+00 0. -1.
         11    1    3    3    0    0  0.73299433503E+01 -0.76060203133E+01 -0.74310793627E+00  0.10589231508E+02  0.00000000000E+00 0. -1.
        -12    1    3    3    0    0  0.42903775026E+01  0.16625913670E+03  0.58181807839E+02  0.17619770327E+03  0.00000000000E+00 0.  1.
          5    1    4    4  501    0  0.72560540317E+02 -0.13797967101E+02  0.16781409891E+03  0.18339700134E+03  0.41800000000E+01 0.  1.
         -5    1    4    4    0  501 -0.18723217185E+02 -0.10325359820E+03  0.28360948386E+03  0.30242962180E+03  0.41800000000E+01 0.  1.
</event>
<event>
11    1  0.8039394E-009  0.2896902E+03  0.7561462E-02  0.1004651E+00
         22   -1    0    0    0    0  0.00000000000E+00  0.00000000000E+00  0.38814827991E+02  0.38814827991E+02  0.00000000000E+00 0.  1.
         22   -1    0    0    0    0 -0.00000000000E+00 -0.00000000000E+00 -0.16497687559E+04  0.16497687559E+04  0.00000000000E+00 0.  1.
         24    2    1    2    0    0  0.63389975955E+02  0.12043818664E+03 -0.84751347871E+03  0.86211251912E+03  0.80220029723E+02 0.  0.
         25    2    1    2    0    0  0.14412155261E+02  0.11242657753E+02 -0.45624254336E+03  0.47343987530E+03  0.12511574472E+03 0.  0.
        -24    2    1    2    0    0 -0.77802131216E+02 -0.13168084439E+03 -0.30719790579E+03  0.35303118943E+03  0.82870084995E+02 0.  0.
        -11    1    3    3    0    0  0.59458549386E+02  0.12451933527E+03 -0.64847413846E+03  0.66299252802E+03  0.00000000000E+00 0.  1.
         12    1    3    3    0    0  0.39314265689E+01 -0.40811486334E+01 -0.19903934025E+03  0.19911999110E+03  0.00000000000E+00 0. -1.
         11    1    5    5    0    0 -0.25020483209E+02 -0.38281519385E+02 -0.27261683069E+02  0.53241888304E+02  0.00000000000E+00 0. -1.
        -12    1    5    5    0    0 -0.52781648007E+02 -0.93399325006E+02 -0.27993622272E+03  0.29978930113E+03  0.00000000000E+00 0.  1.
          5    1    4    4  501    0 -0.60842170022E+01 -0.54520540451E+02 -0.15758979728E+03  0.16691771516E+03  0.41800000000E+01 0. -1.
         -5    1    4    4    0  501  0.20496372264E+02  0.65763198204E+02 -0.29865274608E+03  0.30652216014E+03  0.41800000000E+01 0. -1.
</event>
<event>
11    1  0.8039394E-009  0.1317240E+03  0.7561462E-02  0.1117169E+00
         22   -1    0    0    0    0  0.00000000000E+00  0.00000000000E+00  0.85471333227E+03  0.85471333227E+03  0.00000000000E+00 0.  1.
         22   -1    0    0    0    0 -0.00000000000E+00 -0.00000000000E+00 -0.92387389980E+02  0.92387389980E+02  0.00000000000E+00 0.  1.
         24    2    1    2    0    0  0.11068914643E+02  0.54847009340E+01 -0.54526016446E+02  0.96448744081E+02  0.78591799507E+02 0.  0.
         25    2    1    2    0    0  0.31382407149E+02 -0.13391948454E+02  0.29541923257E+03  0.32262056554E+03  0.12508919448E+03 0.  0.
        -24    2    1    2    0    0 -0.42451321791E+02  0.79072475201E+01  0.52143272617E+03  0.52803141263E+03  0.71136808476E+02 0.  0.
        -13    1    3    3    0    0 -0.19684182658E+02  0.30401813668E+02 -0.40799076265E+02  0.54555494180E+02  0.00000000000E+00 0.  1.
         14    1    3    3    0    0  0.30753097300E+02 -0.24917112734E+02 -0.13726940181E+02  0.41893249901E+02  0.00000000000E+00 0. -1.
         13    1    5    5    0    0  0.66651686899E+01  0.25647357353E+02  0.10306960624E+03  0.10642159153E+03  0.00000000000E+00 0. -1.
        -14    1    5    5    0    0 -0.49116490481E+02 -0.17740109833E+02  0.41836311993E+03  0.42160982110E+03  0.00000000000E+00 0.  1.
          5    1    4    4  501    0  0.12514367718E+02  0.56017003303E+02  0.12631545135E+03  0.13880770767E+03  0.41800000000E+01 0. -1.
         -5    1    4    4    0  501  0.18868039430E+02 -0.69408951757E+02  0.16910378121E+03  0.18381285786E+03  0.41800000000E+01 0. -1.
</event>
<event>
11    1  0.8039394E-009  0.1815351E+03  0.7561462E-02  0.1068408E+00
         22   -1    0    0    0    0  0.00000000000E+00  0.00000000000E+00  0.16836349057E+04  0.16836349057E+04  0.00000000000E+00 0.  1.
         22   -1    0    0    0    0 -0.00000000000E+00 -0.00000000000E+00 -0.75654014745E+02  0.75654014745E+02  0.00000000000E+00 0.  1.
        -24    2    1    2    0    0  0.86476273347E+02  0.98623169140E+02  0.32677897748E+02  0.15777602172E+03  0.81368007752E+02 0.  0.
         25    2    1    2    0    0 -0.90847215370E+02 -0.99513014402E+02  0.75792041865E+03  0.77990181146E+03  0.12508963958E+03 0.  0.
         24    2    1    2    0    0  0.43709420232E+01  0.88984526221E+00  0.81738257451E+03  0.82161108722E+03  0.83130070214E+02 0.  0.
        -13    1    5    5    0    0  0.34878299481E+02  0.16607260207E+02  0.62491651737E+03  0.62610937586E+03  0.00000000000E+00 0.  1.
         14    1    5    5    0    0 -0.30507357458E+02 -0.15717414945E+02  0.19246605714E+03  0.19550171136E+03  0.00000000000E+00 0. -1.
         13    1    3    3    0    0  0.76460287414E+01 -0.13068170677E+02 -0.50442565562E+01  0.15958802103E+02  0.00000000000E+00 0. -1.
        -14    1    3    3    0    0  0.78830244606E+02  0.11169133982E+03  0.37722154304E+02  0.14181721962E+03  0.00000000000E+00 0.  1.
          5    1    4    4  501    0 -0.11871011552E+03 -0.93740750455E+02  0.56773701101E+03  0.58755612999E+03  0.41800000000E+01 0.  1.
         -5    1    4    4    0  501  0.27862900149E+02 -0.57722639473E+01  0.19018340765E+03  0.19234568147E+03  0.41800000000E+01 0.  1.
</event>
<event>
11    1  0.8039394E-009  0.1443696E+03  0.7561462E-02  0.1102775E+00
         22   -1    0    0    0    0  0.00000000000E+00  0.00000000000E+00  0.26535831892E+03  0.26535831892E+03  0.00000000000E+00 0. -1.
         22   -1    0    0    0    0 -0.00000000000E+00 -0.00000000000E+00 -0.21896339009E+04  0.21896339009E+04  0.00000000000E+00 0.  1.
         24    2    1    2    0    0  0.58872236369E+02  0.18927531819E+02 -0.21151079680E+04  0.21175398751E+04  0.80431426937E+02 0.  0.
         25    2    1    2    0    0 -0.18583977534E+02 -0.81555650349E+02  0.48147268975E+02  0.15800806242E+03  0.12510675424E+03 0.  0.
        -24    2    1    2    0    0 -0.40288258835E+02  0.62628118530E+02  0.14268511711E+03  0.17944428229E+03  0.79345968834E+02 0.  0.
        -11    1    3    3    0    0  0.66847373387E+02  0.65873821344E+01 -0.20341924487E+04  0.20353011775E+04  0.00000000000E+00 0.  1.
         12    1    3    3    0    0 -0.79751370180E+01  0.12340149684E+02 -0.80915519333E+02  0.82238697543E+02  0.00000000000E+00 0. -1.
         13    1    5    5    0    0 -0.30616176837E+01  0.59803660591E+02  0.12398627032E+03  0.13768967481E+03  0.00000000000E+00 0. -1.
        -14    1    5    5    0    0 -0.37226641151E+02  0.28244579384E+01  0.18698846798E+02  0.41754607478E+02  0.00000000000E+00 0.  1.
          5    1    4    4  501    0  0.20456044598E+01 -0.17735160196E+02 -0.41849054645E+02  0.45689563135E+02  0.41800000000E+01 0.  1.
         -5    1    4    4    0  501 -0.20629581994E+02 -0.63820490153E+02  0.89996323621E+02  0.11231849929E+03  0.41800000000E+01 0.  1.
</event>
<event>
11    1  0.8039394E-009  0.1320849E+03  0.7561462E-02  0.1116734E+00
         22   -1    0    0    0    0  0.00000000000E+00  0.00000000000E+00  0.62399224063E+03  0.62399224063E+03  0.00000000000E+00 0.  1.
         22   -1    0    0    0    0 -0.00000000000E+00 -0.00000000000E+00 -0.38846159851E+03  0.38846159851E+03  0.00000000000E+00 0.  1.
         24    2    1    2    0    0 -0.20860456553E+02  0.28694268222E+02 -0.28206066420E+03  0.29503109772E+03  0.78908875653E+02 0.  0.
         25    2    1    2    0    0 -0.17718616010E+02 -0.84462271444E+01 -0.54673899368E+02  0.13791799980E+03  0.12508737463E+03 0.  0.
        -24    2    1    2    0    0  0.38579072563E+02 -0.20248041078E+02  0.57226520569E+03  0.57950474161E+03  0.80249310882E+02 0.  0.
        -11    1    3    3    0    0  0.42291593737E+01  0.18502717972E+02 -0.25832360899E+03  0.25901992842E+03  0.00000000000E+00 0.  1.
         12    1    3    3    0    0 -0.25089615927E+02  0.10191550250E+02 -0.23737055214E+02  0.36011169296E+02  0.00000000000E+00 0. -1.
         13    1    5    5    0    0  0.23106307970E+02 -0.46418754939E+02  0.22436506762E+03  0.23027871340E+03  0.00000000000E+00 0. -1.
        -14    1    5    5    0    0  0.15472764593E+02  0.26170713861E+02  0.34790013807E+03  0.34922602821E+03  0.00000000000E+00 0.  1.
          5    1    4    4  501    0  0.41421191145E+02 -0.38963876851E+02 -0.10626627083E+02  0.58002554929E+02  0.41800000000E+01 0. -1.
         -5    1    4    4    0  501 -0.59139807154E+02  0.30517649707E+02 -0.44047272285E+02  0.79915444876E+02  0.41800000000E+01 0. -1.
</event>
<event>
11    1  0.8039394E-009  0.1327745E+03  0.7561462E-02  0.1115906E+00
         22   -1    0    0    0    0  0.00000000000E+00  0.00000000000E+00  0.54978769985E+03  0.54978769985E+03  0.00000000000E+00 0.  1.
         22   -1    0    0    0    0 -0.00000000000E+00 -0.00000000000E+00 -0.49611521278E+03  0.49611521278E+03  0.00000000000E+00 0.  1.
        -24    2    1    2    0    0  0.93494223146E+01 -0.39558743142E+01 -0.38537291577E+03  0.39388559807E+03  0.80811629857E+02 0.  0.
         25    2    1    2    0    0 -0.30097372194E+02 -0.35355585696E+02 -0.58478163589E+02  0.14568944840E+03  0.12509936253E+03 0.  0.
         24    2    1    2    0    0  0.20747949879E+02  0.39311460010E+02  0.49752356642E+03  0.50632786617E+03  0.82839245531E+02 0.  0.
        -11    1    5    5    0    0 -0.61960129748E+01 -0.18697625283E+02  0.24642747311E+03  0.24721345285E+03  0.00000000000E+00 0.  1.
         12    1    5    5    0    0  0.26943962854E+02  0.58009085293E+02  0.25109609331E+03  0.25911441331E+03  0.00000000000E+00 0. -1.
         13    1    3    3    0    0  0.36245070450E+02 -0.26006055219E+02 -0.17168434622E+03  0.17738527216E+03  0.00000000000E+00 0. -1.
        -14    1    3    3    0    0 -0.26895648135E+02  0.22050180905E+02 -0.21368856954E+03  0.21650032591E+03  0.00000000000E+00 0.  1.
          5    1    4    4  501    0 -0.57579486639E+02 -0.60707033305E+02 -0.10065995366E+02  0.84377353816E+02  0.41800000000E+01 0. -1.
         -5    1    4    4    0  501  0.27482114445E+02  0.25351447609E+02 -0.48412168223E+02  0.61312094584E+02  0.41800000000E+01 0. -1.
</event>
<event>
11    1  0.8039394E-009  0.1276615E+03  0.7561462E-02  0.1122176E+00
         22   -1    0    0    0    0  0.00000000000E+00  0.00000000000E+00  0.31685855052E+03  0.31685855052E+03  0.00000000000E+00 0.  1.
         22   -1    0    0    0    0 -0.00000000000E+00 -0.00000000000E+00 -0.50829392153E+03  0.50829392153E+03  0.00000000000E+00 0.  1.
        -24    2    1    2    0    0 -0.29457689524E+02  0.73042453748E+00 -0.38696584841E+03  0.39699176997E+03  0.83615839386E+02 0.  0.
         25    2    1    2    0    0 -0.58926316274E+01 -0.23634593371E+02 -0.71981517546E+02  0.14636323257E+03  0.12509012698E+03 0.  0.
         24    2    1    2    0    0  0.35350321151E+02  0.22904168833E+02  0.26751199494E+03  0.28179746951E+03  0.77928815155E+02 0.  0.
        -11    1    5    5    0    0  0.45492772874E+02 -0.13191247822E+02  0.18820990440E+03  0.19407877143E+03  0.00000000000E+00 0.  1.
         12    1    5    5    0    0 -0.10142451723E+02  0.36095416655E+02  0.79302090538E+02  0.87718698087E+02  0.00000000000E+00 0. -1.
         13    1    3    3    0    0 -0.38289482197E+02  0.23034930995E+02 -0.10639913294E+03  0.11540133441E+03  0.00000000000E+00 0. -1.
        -14    1    3    3    0    0  0.88317926733E+01 -0.22304506457E+02 -0.28056671547E+03  0.28159043556E+03  0.00000000000E+00 0.  1.
          5    1    4    4  501    0 -0.25395325163E+02  0.70823077956E+01 -0.97913894946E+02  0.10148736299E+03  0.41800000000E+01 0.  1.
         -5    1    4    4    0  501  0.19502693536E+02 -0.30716901166E+02  0.25932377400E+02  0.44875869574E+02  0.41800000000E+01 0.  1.
</event>
<event>
11    1  0.8039394E-009  0.2638718E+03  0.7561462E-02  0.1016758E+00
         22   -1    0    0    0    0  0.00000000000E+00  0.00000000000E+00  0.20758288251E+03  0.20758288251E+03  0.00000000000E+00 0. -1.
         22   -1    0    0    0    0 -0.00000000000E+00 -0.00000000000E+00 -0.19983913049E+04  0.19983913049E+04  0.00000000000E+00 0. -1.
        -24    2    1    2    0    0  0.65374091667E+02 -0.22195233983E+03 -0.14926192743E+04  0.15126006586E+04  0.80695980100E+02 0.  0.
         25    2    1    2    0    0 -0.21696336076E+03  0.63605183927E+01 -0.33127879898E+03  0.41533905676E+03  0.12508930135E+03 0.  0.
         24    2    1    2    0    0  0.15158926910E+03  0.21559182143E+03  0.33089650951E+02  0.27803447204E+03  0.82152922448E+02 0.  0.
        -13    1    5    5    0    0  0.16002517028E+02  0.60365823376E+01  0.22438117345E+02  0.28213294518E+02  0.00000000000E+00 0.  1.
         14    1    5    5    0    0  0.13558675207E+03  0.20955523910E+03  0.10651533605E+02  0.24982117752E+03  0.00000000000E+00 0. -1.
         13    1    3    3    0    0  0.63159027316E+02 -0.22655553676E+03 -0.13825233303E+04  0.14023862638E+04  0.00000000000E+00 0. -1.
        -14    1    3    3    0    0  0.22150643507E+01  0.46031969299E+01 -0.11009594401E+03  0.11021439479E+03  0.00000000000E+00 0.  1.
          5    1    4    4  501    0 -0.75007317868E+02 -0.47443836557E+02 -0.69931059523E+02  0.11307007052E+03  0.41800000000E+01 0.  1.
         -5    1    4    4    0  501 -0.14195604290E+03  0.53804354950E+02 -0.26134773946E+03  0.30226898625E+03  0.41800000000E+01 0.  1.
</event>
<event>
11    1  0.8039394E-009  0.1365245E+03  0.7561462E-02  0.1111503E+00
         22   -1    0    0    0    0  0.00000000000E+00  0.00000000000E+00  0.89159669037E+03  0.89159669037E+03  0.00000000000E+00 0. -1.
         22   -1    0    0    0    0 -0.00000000000E+00 -0.00000000000E+00 -0.26431402128E+03  0.26431402128E+03  0.00000000000E+00 0.  1.
        -24    2    1    2    0    0 -0.13894675605E+02  0.30436947615E+01 -0.18321610192E+03  0.20055767931E+03  0.80330048156E+02 0.  0.
         25    2    1    2    0    0 -0.24374279148E+02 -0.42519996775E+02 -0.47988470250E+01  0.13443501607E+03  0.12509072309E+03 0.  0.
         24    2    1    2    0    0  0.38268954754E+02  0.39476302013E+02  0.81529761803E+03  0.82091801627E+03  0.78570300736E+02 0.  0.
        -13    1    5    5    0    0  0.43287059372E+02  0.60405421629E+02  0.61976715313E+03  0.62420662330E+03  0.00000000000E+00 0.  1.
         14    1    5    5    0    0 -0.50181046184E+01 -0.20929119616E+02  0.19553046490E+03  0.19671139298E+03  0.00000000000E+00 0. -1.
         11    1    3    3    0    0  0.13210868884E+02  0.32058132445E+02 -0.45342536409E+02  0.57080614227E+02  0.00000000000E+00 0. -1.
        -12    1    3    3    0    0 -0.27105544490E+02 -0.29014437683E+02 -0.13787356551E+03  0.14347706508E+03  0.00000000000E+00 0.  1.
          5    1    4    4  501    0  0.11515537120E+02 -0.60254626657E+02  0.40662006479E+02  0.73716340113E+02  0.41800000000E+01 0.  1.
         -5    1    4    4    0  501 -0.35889816268E+02  0.17734629882E+02 -0.45460853504E+02  0.60718675959E+02  0.41800000000E+01 0.  1.
</event>
<event>
11    1  0.8039394E-009  0.1391943E+03  0.7561462E-02  0.1108461E+00
         22   -1    0    0    0    0  0.00000000000E+00  0.00000000000E+00  0.14460332973E+03  0.14460332973E+03  0.00000000000E+00 0.  1.
         22   -1    0    0    0    0 -0.00000000000E+00 -0.00000000000E+00 -0.17257956720E+04  0.17257956720E+04  0.00000000000E+00 0. -1.
        -24    2    1    2    0    0  0.41285694612E+02 -0.94422924652E+01 -0.16135492427E+04  0.16161056435E+04  0.80390465310E+02 0.  0.
         25    2    1    2    0    0 -0.81736882349E+01  0.63999917107E+02 -0.15430968314E+02  0.14159071093E+03  0.12508803328E+03 0.  0.
         24    2    1    2    0    0 -0.33112006377E+02 -0.54557624642E+02  0.47787868809E+02  0.11270264722E+03  0.79657183688E+02 0.  0.
        -11    1    5    5    0    0 -0.11801167819E+02 -0.64433170910E+02  0.57619140413E+02  0.87240279787E+02  0.00000000000E+00 0.  1.
         12    1    5    5    0    0 -0.21310838558E+02  0.98755462681E+01 -0.98312716036E+01  0.25462367437E+02  0.00000000000E+00 0. -1.
         13    1    3    3    0    0 -0.22569229405E+01 -0.21788011663E+02 -0.11794595063E+04  0.11796628917E+04  0.00000000000E+00 0. -1.
        -14    1    3    3    0    0  0.43542617552E+02  0.12345719198E+02 -0.43408973644E+03  0.43644275181E+03  0.00000000000E+00 0.  1.
          5    1    4    4  501    0  0.18132188154E+02 -0.30643201494E+02  0.14715352153E+02  0.38753013225E+02  0.41800000000E+01 0. -1.
         -5    1    4    4    0  501 -0.26305876389E+02  0.94643118602E+02 -0.30146320467E+02  0.10283769770E+03  0.41800000000E+01 0. -1.
</event>
<event>
11    1  0.8039394E-009  0.1931865E+03  0.7561462E-02  0.1059449E+00
         22   -1    0    0    0    0  0.00000000000E+00  0.00000000000E+00  0.37262683676E+04  0.37262683676E+04  0.00000000000E+00 0.  1.
         22   -1    0    0    0    0 -0.00000000000E+00 -0.00000000000E+00 -0.10922169092E+03  0.10922169092E+03  0.00000000000E+00 0.  1.
         24    2    1    2    0    0  0.82422715421E+02  0.12957063066E+03 -0.82367695668E+01  0.17281733471E+03  0.78841197720E+02 0.  0.
         25    2    1    2    0    0 -0.37208662729E+02 -0.11255898352E+03  0.39442342620E+03  0.43043155395E+03  0.12508986432E+03 0.  0.
        -24    2    1    2    0    0 -0.45214052691E+02 -0.17011647136E+02  0.32308600200E+04  0.32322411698E+04  0.81196084752E+02 0.  0.
        -13    1    3    3    0    0  0.48598253180E+02  0.12946264532E+03 -0.13053730903E+01  0.13828980709E+03  0.00000000000E+00 0.  1.
         14    1    3    3    0    0  0.33824462241E+02  0.10798533626E+00 -0.69313964765E+01  0.34527527624E+02  0.00000000000E+00 0. -1.
         13    1    5    5    0    0 -0.21488962504E+02 -0.49075211247E+02  0.16126286159E+04  0.16135182691E+04  0.00000000000E+00 0. -1.
        -14    1    5    5    0    0 -0.23725090188E+02  0.32063564112E+02  0.16182314041E+04  0.16187229007E+04  0.00000000000E+00 0.  1.
          5    1    4    4  501    0 -0.35122501634E+02 -0.16441130534E+02  0.27166335734E+03  0.27444918112E+03  0.41800000000E+01 0. -1.
         -5    1    4    4    0  501 -0.20861610954E+01 -0.96117852987E+02  0.12276006885E+03  0.15598237284E+03  0.41800000000E+01 0. -1.
</event>
<event>
11    1  0.8039394E-009  0.1289997E+03  0.7561462E-02  0.1120504E+00
         22   -1    0    0    0    0  0.00000000000E+00  0.00000000000E+00  0.67829017546E+03  0.67829017546E+03  0.00000000000E+00 0. -1.
         22   -1    0    0    0    0 -0.00000000000E+00 -0.00000000000E+00 -0.14683919064E+04  0.14683919064E+04  0.00000000000E+00 0.  1.
         24    2    1    2    0    0  0.39821852373E+01  0.27667290405E+02 -0.14002503546E+04  0.14027635596E+04  0.79140456479E+02 0.  0.
         25    2    1    2    0    0  0.95767866387E+01 -0.54581786401E+02  0.11488790252E+02  0.13729740406E+03  0.12509076149E+03 0.  0.
        -24    2    1    2    0    0 -0.13558971876E+02  0.26914495995E+02  0.59865983338E+03  0.60662111823E+03  0.93205950310E+02 0.  0.
        -13    1    3    3    0    0  0.34241861442E+02  0.38744065507E+02 -0.85851444259E+03  0.86007014587E+03  0.00000000000E+00 0.  1.
         14    1    3    3    0    0 -0.30259676205E+02 -0.11076775102E+02 -0.54173591201E+03  0.54269341373E+03  0.00000000000E+00 0. -1.
         11    1    5    5    0    0 -0.45610439895E+02  0.81161075570E+01  0.48118282151E+03  0.48340778970E+03  0.00000000000E+00 0. -1.
        -12    1    5    5    0    0  0.32051468019E+02  0.18798388438E+02  0.11747701187E+03  0.12321332853E+03  0.00000000000E+00 0.  1.
          5    1    4    4  501    0  0.20912178573E+02 -0.37254873151E+02 -0.53713212570E+02  0.68759191318E+02  0.41800000000E+01 0.  1.
         -5    1    4    4    0  501 -0.11335391935E+02 -0.17326913250E+02  0.65202002823E+02  0.68538212737E+02  0.41800000000E+01 0.  1.
</event>
<event>
11    1  0.8039394E-009  0.1386574E+03  0.7561462E-02  0.1109067E+00
         22   -1    0    0    0    0  0.00000000000E+00  0.00000000000E+00  0.48861234691E+02  0.48861234691E+02  0.00000000000E+00 0.  1.
         22   -1    0    0    0    0 -0.00000000000E+00 -0.00000000000E+00 -0.15231936075E+04  0.15231936075E+04  0.00000000000E+00 0. -1.
         24    2    1    2    0    0  0.53722256215E+02 -0.60680956435E+01 -0.95583755503E+03  0.96053679024E+03  0.77990968710E+02 0.  0.
         25    2    1    2    0    0 -0.86385207424E+02  0.17093898263E+02 -0.50017252118E+03  0.52304362796E+03  0.12508988923E+03 0.  0.
        -24    2    1    2    0    0  0.32662951209E+02 -0.11025802619E+02 -0.18322296554E+02  0.88474423947E+02  0.79395090760E+02 0.  0.
        -13    1    3    3    0    0  0.38159348575E+02 -0.48708692308E+01 -0.16048908393E+03  0.16503516992E+03  0.00000000000E+00 0.  1.
         14    1    3    3    0    0  0.15562907640E+02 -0.11972264127E+01 -0.79534847110E+03  0.79550162032E+03  0.00000000000E+00 0. -1.
         13    1    5    5    0    0 -0.23427800719E+02  0.19597544898E+01 -0.20014514057E+02  0.30875285539E+02  0.00000000000E+00 0. -1.
        -14    1    5    5    0    0  0.56090751928E+02 -0.12985557109E+02  0.16922175027E+01  0.57599138408E+02  0.00000000000E+00 0.  1.
          5    1    4    4  501    0  0.14162820516E+00  0.46151731399E+02 -0.74982370284E+02  0.88146642722E+02  0.41800000000E+01 0.  1.
         -5    1    4    4    0  501 -0.86526835629E+02 -0.29057833137E+02 -0.42519015089E+03  0.43489698524E+03  0.41800000000E+01 0.  1.
</event>
<event>
11    1  0.8039394E-009  0.1471480E+03  0.7561462E-02  0.1099829E+00
         22   -1    0    0    0    0  0.00000000000E+00  0.00000000000E+00  0.64312675873E+03  0.64312675873E+03  0.00000000000E+00 0. -1.
         22   -1    0    0    0    0 -0.00000000000E+00 -0.00000000000E+00 -0.81057046749E+03  0.81057046749E+03  0.00000000000E+00 0.  1.
         24    2    1    2    0    0  0.79078119401E+02  0.48737146448E+01 -0.74917866994E+03  0.75759289764E+03  0.80007605871E+02 0.  0.
         25    2    1    2    0    0 -0.43577578302E+02 -0.18965258456E+01  0.28298958952E+02  0.13546819217E+03  0.12509275707E+03 0.  0.
        -24    2    1    2    0    0 -0.35500541099E+02 -0.29771887992E+01  0.55343600223E+03  0.56063613641E+03  0.82172482133E+02 0.  0.
        -13    1    3    3    0    0  0.85533496892E+02 -0.17859907883E+02 -0.63591477592E+03  0.64188983295E+03  0.00000000000E+00 0.  1.
         14    1    3    3    0    0 -0.64553774911E+01  0.22733622527E+02 -0.11326389401E+03  0.11570306469E+03  0.00000000000E+00 0. -1.
         13    1    5    5    0    0 -0.16301604813E+02  0.10311698692E+02  0.51700534568E+03  0.51736505575E+03  0.00000000000E+00 0. -1.
        -14    1    5    5    0    0 -0.19198936287E+02 -0.13288887492E+02  0.36430656545E+02  0.43271080661E+02  0.00000000000E+00 0.  1.
          5    1    4    4  501    0  0.20395497604E+01  0.24205554905E+02  0.66131667372E+02  0.70575764118E+02  0.41800000000E+01 0. -1.
         -5    1    4    4    0  501 -0.45617128062E+02 -0.26102080750E+02 -0.37832708420E+02  0.64892428052E+02  0.41800000000E+01 0. -1.
</event>
<event>
11    1  0.8039394E-009  0.2986574E+03  0.7561462E-02  0.1000761E+00
         22   -1    0    0    0    0  0.00000000000E+00  0.00000000000E+00  0.22306644501E+04  0.22306644501E+04  0.00000000000E+00 0.  1.
         22   -1    0    0    0    0 -0.00000000000E+00 -0.00000000000E+00 -0.68091784920E+02  0.68091784920E+02  0.00000000000E+00 0.  1.
         24    2    1    2    0    0  0.68236539533E+02  0.63585736282E+02  0.23793914396E+03  0.26808215444E+03  0.80954518813E+02 0.  0.
         25    2    1    2    0    0  0.89405048953E+02 -0.27895750085E+03  0.62510086879E+03  0.70157506380E+03  0.12508366770E+03 0.  0.
        -24    2    1    2    0    0 -0.15764158849E+03  0.21537176457E+03  0.12995326525E+04  0.13290990168E+04  0.80518409520E+02 0.  0.
        -11    1    3    3    0    0  0.13192678342E+02 -0.13403827722E+02  0.93673900577E+02  0.95543231098E+02  0.00000000000E+00 0.  1.
         12    1    3    3    0    0  0.55043861191E+02  0.76989564004E+02  0.14426524338E+03  0.17253892334E+03  0.00000000000E+00 0. -1.
         13    1    5    5    0    0 -0.48237279516E+02  0.16172658379E+02  0.20474926463E+03  0.21097547578E+03  0.00000000000E+00 0. -1.
        -14    1    5    5    0    0 -0.10940430897E+03  0.19919910619E+03  0.10947833878E+04  0.11181235410E+04  0.00000000000E+00 0.  1.
          5    1    4    4  501    0  0.57839151629E+02 -0.13833230185E+03  0.45228857326E+03  0.47651192965E+03  0.41800000000E+01 0.  1.
         -5    1    4    4    0  501  0.31565897324E+02 -0.14062519900E+03  0.17281229553E+03  0.22506313415E+03  0.41800000000E+01 0.  1.
</event>
<event>
11    1  0.8039394E-009  0.1423514E+03  0.7561462E-02  0.1104961E+00
         22   -1    0    0    0    0  0.00000000000E+00  0.00000000000E+00  0.26705392309E+03  0.26705392309E+03  0.00000000000E+00 0.  1.
         22   -1    0    0    0    0 -0.00000000000E+00 -0.00000000000E+00 -0.11391955647E+04  0.11391955647E+04  0.00000000000E+00 0.  1.
         24    2    1    2    0    0 -0.48632621137E+02  0.44896036761E+02 -0.58097164800E+03  0.59014627662E+03  0.79773341861E+02 0.  0.
         25    2    1    2    0    0  0.33977297162E+02 -0.66529922211E+02 -0.53580078514E+03  0.55525712794E+03  0.12508920616E+03 0.  0.
        -24    2    1    2    0    0  0.14655323975E+02  0.21633885451E+02  0.24463079148E+03  0.26084608328E+03  0.86681321521E+02 0.  0.
        -11    1    3    3    0    0 -0.26267170943E+02  0.11876362860E+02 -0.48962881810E+03  0.49047669850E+03  0.00000000000E+00 0.  1.
         12    1    3    3    0    0 -0.22365450194E+02  0.33019673901E+02 -0.91342829901E+02  0.99669578113E+02  0.00000000000E+00 0. -1.
         13    1    5    5    0    0 -0.24226587926E+02 -0.19676809412E+02  0.11855762054E+03  0.12259695665E+03  0.00000000000E+00 0. -1.
        -14    1    5    5    0    0  0.38881911901E+02  0.41310694862E+02  0.12607317094E+03  0.13824912663E+03  0.00000000000E+00 0.  1.
          5    1    4    4  501    0 -0.20961505267E+02 -0.21070714458E+02 -0.40593506902E+03  0.40704313331E+03  0.41800000000E+01 0. -1.
         -5    1    4    4    0  501  0.54938802429E+02 -0.45459207753E+02 -0.12986571612E+03  0.14821399463E+03  0.41800000000E+01 0. -1.
</event>
<event>
11    1  0.8039394E-009  0.4283392E+03  0.7561462E-02  0.9569654E-01
         22   -1    0    0    0    0  0.00000000000E+00  0.00000000000E+00  0.50031986228E+03  0.50031986228E+03  0.00000000000E+00 0.  1.
         22   -1    0    0    0    0 -0.00000000000E+00 -0.00000000000E+00 -0.32240358944E+04  0.32240358944E+04  0.00000000000E+00 0.  1.
         24    2    1    2    0    0  0.30390754789E+03 -0.92676092151E+02 -0.24862517749E+04  0.25077901790E+04  0.81332883943E+02 0.  0.
         25    2    1    2    0    0 -0.59647873833E+03  0.30573453773E+03 -0.42235723938E+03  0.80205522337E+03  0.12508577391E+03 0.  0.
        -24    2    1    2    0    0  0.29257119044E+03 -0.21305844558E+03  0.18489298215E+03  0.41451035430E+03  0.81496111953E+02 0.  0.
        -13    1    3    3    0    0  0.26058563240E+03 -0.78247181970E+02 -0.22993483965E+04  0.23153899329E+04  0.00000000000E+00 0.  1.
         14    1    3    3    0    0  0.43321915491E+02 -0.14428910181E+02 -0.18690337843E+03  0.19240024604E+03  0.00000000000E+00 0. -1.
         13    1    5    5    0    0  0.59397364449E+02 -0.38673887490E+02  0.75266917542E+02  0.10338677552E+03  0.00000000000E+00 0. -1.
        -14    1    5    5    0    0  0.23317382599E+03 -0.17438455809E+03  0.10962606461E+03  0.31112357878E+03  0.00000000000E+00 0.  1.
          5    1    4    4  501    0 -0.24112990781E+03  0.19074751711E+03 -0.17089309319E+03  0.35178142279E+03  0.41800000000E+01 0.  1.
         -5    1    4    4    0  501 -0.35534883052E+03  0.11498702062E+03 -0.25146414619E+03  0.45027380057E+03  0.41800000000E+01 0.  1.
</event>
<event>
11    1  0.8039394E-009  0.1518887E+03  0.7561462E-02  0.1094964E+00
         22   -1    0    0    0    0  0.00000000000E+00  0.00000000000E+00  0.25075104724E+04  0.25075104724E+04  0.00000000000E+00 0. -1.
         22   -1    0    0    0    0 -0.00000000000E+00 -0.00000000000E+00 -0.16151856865E+04  0.16151856865E+04  0.00000000000E+00 0.  1.
        -24    2    1    2    0    0 -0.54358118920E+02 -0.28788699779E+02 -0.15342547121E+04  0.15375830783E+04  0.80253392542E+02 0.  0.
         25    2    1    2    0    0  0.10936753674E+03  0.93774866272E+02  0.39032552805E+02  0.19474391410E+03  0.12508664302E+03 0.  0.
         24    2    1    2    0    0 -0.55009417824E+02 -0.64986166493E+02  0.23875469451E+04  0.23903691665E+04  0.78962642641E+02 0.  0.
        -11    1    5    5    0    0 -0.12792818958E+02  0.98725241067E+00  0.53823570882E+02  0.55331796163E+02  0.00000000000E+00 0.  1.
         12    1    5    5    0    0 -0.42216598866E+02 -0.65973418904E+02  0.23337233743E+04  0.23350373703E+04  0.00000000000E+00 0. -1.
         11    1    3    3    0    0 -0.90270177699E+01  0.13664005472E+02 -0.93018115160E+03  0.93032530165E+03  0.00000000000E+00 0. -1.
        -12    1    3    3    0    0 -0.45331101150E+02 -0.42452705250E+02 -0.60407356045E+03  0.60725777669E+03  0.00000000000E+00 0.  1.
          5    1    4    4  501    0  0.13668078261E+03  0.83994636284E+02  0.40093279506E+02  0.16541365942E+03  0.41800000000E+01 0.  1.
         -5    1    4    4    0  501 -0.27313245869E+02  0.97802299882E+01 -0.10607267002E+01  0.29330254681E+02  0.41800000000E+01 0.  1.
</event>
<event>
11    1  0.8039394E-009  0.2280166E+03  0.7561462E-02  0.1036309E+00
         22   -1    0    0    0    0  0.00000000000E+00  0.00000000000E+00  0.11666614684E+03  0.11666614684E+03  0.00000000000E+00 0.  1.
         22   -1    0    0    0    0 -0.00000000000E+00 -0.00000000000E+00 -0.21073032763E+04  0.21073032763E+04  0.00000000000E+00 0. -1.
         24    2    1    2    0    0 -0.12543203194E+03  0.10957593121E+03 -0.93391673519E+03  0.95261888730E+03  0.86845822208E+02 0.  0.
         25    2    1    2    0    0 -0.19967592461E+02 -0.23533900062E+03 -0.10306877076E+04  0.10647761308E+04  0.12509159856E+03 0.  0.
        -24    2    1    2    0    0  0.14539962440E+03  0.12576306941E+03 -0.26032686585E+02  0.20657440501E+03  0.70978050367E+02 0.  0.
        -11    1    3    3    0    0 -0.11484228915E+03  0.12303197265E+03 -0.88310529063E+03  0.89899976197E+03  0.00000000000E+00 0.  1.
         12    1    3    3    0    0 -0.10589742791E+02 -0.13456041438E+02 -0.50811444553E+02  0.53619125330E+02  0.00000000000E+00 0. -1.
         11    1    5    5    0    0  0.37137797928E+02  0.35613810439E+02 -0.39759603666E+02  0.65026037959E+02  0.00000000000E+00 0. -1.
        -12    1    5    5    0    0  0.10826182647E+03  0.90149258969E+02  0.13726917081E+02  0.14154836705E+03  0.00000000000E+00 0.  1.
          5    1    4    4  501    0 -0.58748172121E+02 -0.50504248232E+02 -0.33814965681E+03  0.34693614631E+03  0.41800000000E+01 0.  1.
         -5    1    4    4    0  501  0.38780579661E+02 -0.18483475238E+03 -0.69253805083E+03  0.71783998447E+03  0.41800000000E+01 0.  1.
</event>
<event>
11    1  0.8039394E-009  0.1687553E+03  0.7561462E-02  0.1079120E+00
         22   -1    0    0    0    0  0.00000000000E+00  0.00000000000E+00  0.98753975989E+03  0.98753975989E+03  0.00000000000E+00 0. -1.
         22   -1    0    0    0    0 -0.00000000000E+00 -0.00000000000E+00 -0.29838902117E+04  0.29838902117E+04  0.00000000000E+00 0. -1.
        -24    2    1    2    0    0 -0.11077344297E+03 -0.22135595947E+02 -0.29357371921E+04  0.29389756209E+04  0.79146059886E+02 0.  0.
         25    2    1    2    0    0  0.15719028976E+03  0.19983923666E+02  0.18992664155E+03  0.27717797424E+03  0.12508939136E+03 0.  0.
         24    2    1    2    0    0 -0.46416846783E+02  0.21516722810E+01  0.74946009877E+03  0.75527637643E+03  0.81196131588E+02 0.  0.
        -13    1    5    5    0    0 -0.66019916608E+00  0.32700305887E+02  0.16351371162E+03  0.16675275037E+03  0.00000000000E+00 0.  1.
         14    1    5    5    0    0 -0.45756647617E+02 -0.30548633606E+02  0.58594638715E+03  0.58852362606E+03  0.00000000000E+00 0. -1.
         11    1    3    3    0    0 -0.11203342562E+02  0.48835352908E+01 -0.12633442550E+04  0.12634033680E+04  0.00000000000E+00 0. -1.
        -12    1    3    3    0    0 -0.99570100413E+02 -0.27019131237E+02 -0.16723929372E+04  0.16755722529E+04  0.00000000000E+00 0.  1.
          5    1    4    4  501    0  0.16782076884E+03 -0.70628173409E+01  0.17988105620E+03  0.24614703049E+03  0.41800000000E+01 0. -1.
         -5    1    4    4    0  501 -0.10630479079E+02  0.27046741007E+02  0.10045585355E+02  0.31030943744E+02  0.41800000000E+01 0. -1.
</event>
<event>
11    1  0.8039394E-009  0.1451856E+03  0.7561462E-02  0.1101902E+00
         22   -1    0    0    0    0  0.00000000000E+00  0.00000000000E+00  0.37204840486E+03  0.37204840486E+03  0.00000000000E+00 0. -1.
         22   -1    0    0    0    0 -0.00000000000E+00 -0.00000000000E+00 -0.59039638130E+03  0.59039638130E+03  0.00000000000E+00 0. -1.
         24    2    1    2    0    0  0.16248585732E+01 -0.79501431825E+02 -0.49651135723E+03  0.50930097313E+03  0.80875432253E+02 0.  0.
         25    2    1    2    0    0 -0.12984967185E+02  0.26355371541E+02 -0.28187635268E+02  0.13154515101E+03  0.12508544676E+03 0.  0.
        -24    2    1    2    0    0  0.11360108612E+02  0.53146060284E+02  0.30635101605E+03  0.32159866202E+03  0.81370747726E+02 0.  0.
        -11    1    3    3    0    0  0.25812304229E+00 -0.67791744932E+02 -0.17648450509E+03  0.18905704918E+03  0.00000000000E+00 0.  1.
         12    1    3    3    0    0  0.13667355310E+01 -0.11709686894E+02 -0.32002685214E+03  0.32024392395E+03  0.00000000000E+00 0. -1.
         11    1    5    5    0    0  0.11198407831E+02  0.53522911615E+02  0.31158591085E+03  0.31634772995E+03  0.00000000000E+00 0. -1.
        -12    1    5    5    0    0  0.16170078070E+00 -0.37685133082E+00 -0.52348947963E+01  0.52509320693E+01  0.00000000000E+00 0.  1.
          5    1    4    4  501    0  0.45032656298E+02 -0.22075494726E+02 -0.23953890117E+02  0.55736243616E+02  0.41800000000E+01 0.  1.
         -5    1    4    4    0  501 -0.58017623483E+02  0.48430866268E+02 -0.42337451514E+01  0.75808907393E+02  0.41800000000E+01 0.  1.
</event>
<event>
11    1  0.8039394E-009  0.1321301E+03  0.7561462E-02  0.1116679E+00
         22   -1    0    0    0    0  0.00000000000E+00  0.00000000000E+00  0.82350473268E+02  0.82350473268E+02  0.00000000000E+00 0.  1.
         22   -1    0    0    0    0 -0.00000000000E+00 -0.00000000000E+00 -0.32136425863E+04  0.32136425863E+04  0.00000000000E+00 0.  1.
         24    2    1    2    0    0 -0.27613767981E+02 -0.32678364561E+02 -0.27170361301E+04  0.27185588004E+04  0.80288375602E+02 0.  0.
         25    2    1    2    0    0  0.10799159742E+02  0.42069841669E+02 -0.46239849351E+03  0.48098704938E+03  0.12509868684E+03 0.  0.
        -24    2    1    2    0    0  0.16814608238E+02 -0.93914771080E+01  0.48142510578E+02  0.96447209783E+02  0.81323010628E+02 0.  0.
        -13    1    3    3    0    0  0.13161778880E+02 -0.42946928349E+02 -0.17983374739E+04  0.17988983688E+04  0.00000000000E+00 0.  1.
         14    1    3    3    0    0 -0.40775546861E+02  0.10268563789E+02 -0.91869865614E+03  0.91966043158E+03  0.00000000000E+00 0. -1.
         11    1    5    5    0    0  0.29976456175E+02  0.14206201483E+02 -0.80155096066E+01  0.34127005137E+02  0.00000000000E+00 0. -1.
        -12    1    5    5    0    0 -0.13161847937E+02 -0.23597678591E+02  0.56158020185E+02  0.62320204646E+02  0.00000000000E+00 0.  1.
          5    1    4    4  501    0 -0.34660439607E+01 -0.57979951864E+01 -0.40379199834E+03  0.40387012830E+03  0.41800000000E+01 0.  1.
         -5    1    4    4    0  501  0.14265203703E+02  0.47867836855E+02 -0.58606495167E+02  0.77116921085E+02  0.41800000000E+01 0.  1.
</event>
<event>
11    1  0.8039394E-009  0.1411774E+03  0.7561462E-02  0.1106251E+00
         22   -1    0    0    0    0  0.00000000000E+00  0.00000000000E+00  0.76010402933E+03  0.76010402933E+03  0.00000000000E+00 0. -1.
         22   -1    0    0    0    0 -0.00000000000E+00 -0.00000000000E+00 -0.56781623392E+03  0.56781623392E+03  0.00000000000E+00 0. -1.
         24    2    1    2    0    0 -0.17484048954E+02  0.63731351327E+02 -0.47328471321E+03  0.48499040431E+03  0.82764094870E+02 0.  0.
         25    2    1    2    0    0  0.16058384386E+02 -0.57256843387E+02 -0.30942089864E+02  0.14191691982E+03  0.12508709519E+03 0.  0.
        -24    2    1    2    0    0  0.14256645679E+01 -0.64745079401E+01  0.69651459849E+03  0.70101293913E+03  0.79010145832E+02 0.  0.
        -11    1    3    3    0    0  0.18629470948E+02  0.64685961858E+02 -0.25494396430E+03  0.26368116312E+03  0.00000000000E+00 0.  1.
         12    1    3    3    0    0 -0.36113519902E+02 -0.95461053072E+00 -0.21834074891E+03  0.22130924119E+03  0.00000000000E+00 0. -1.
         11    1    5    5    0    0 -0.32620462785E+02  0.18069814614E+02  0.31876439972E+03  0.32093824222E+03  0.00000000000E+00 0. -1.
        -12    1    5    5    0    0  0.34046127353E+02 -0.24544322554E+02  0.37775019877E+03  0.38007469690E+03  0.00000000000E+00 0.  1.
          5    1    4    4  501    0  0.58780614137E+02 -0.13307119503E+02 -0.49106004257E+02  0.77853144329E+02  0.41800000000E+01 0.  1.
         -5    1    4    4    0  501 -0.42722229752E+02 -0.43949723883E+02  0.18163914393E+02  0.64063775493E+02  0.41800000000E+01 0.  1.
</event>
<event>
11    1  0.8039394E-009  0.1404610E+03  0.7561462E-02  0.1107045E+00
         22   -1    0    0    0    0  0.00000000000E+00  0.00000000000E+00  0.69382994268E+02  0.69382994268E+02  0.00000000000E+00 0. -1.
         22   -1    0    0    0    0 -0.00000000000E+00 -0.00000000000E+00 -0.16938274437E+04  0.16938274437E+04  0.00000000000E+00 0.  1.
         24    2    1    2    0    0  0.88467446422E+01  0.81104965159E+01 -0.10601453437E+04  0.10631684985E+04  0.79215283737E+02 0.  0.
         25    2    1    2    0    0  0.54490264893E+02  0.45597703522E+01 -0.58068782932E+03  0.59652009626E+03  0.12509152509E+03 0.  0.
        -24    2    1    2    0    0 -0.63337009535E+02 -0.12670266868E+02  0.16388723638E+02  0.10352184326E+03  0.79221646850E+02 0.  0.
        -13    1    3    3    0    0 -0.12137358741E+02 -0.16114172609E+01 -0.97084146919E+03  0.97091867344E+03  0.00000000000E+00 0.  1.
         14    1    3    3    0    0  0.20984103383E+02  0.97219137768E+01 -0.89303874561E+02  0.92249825007E+02  0.00000000000E+00 0. -1.
         13    1    5    5    0    0  0.18396798586E+02  0.22113051813E+01  0.74272821490E+01  0.19962379340E+02  0.00000000000E+00 0. -1.
        -14    1    5    5    0    0 -0.81733808121E+02 -0.14881572049E+02  0.89614414889E+01  0.83559463917E+02  0.00000000000E+00 0.  1.
          5    1    4    4  501    0  0.43999670769E+02  0.21835430807E+02 -0.57201081393E+03  0.57413117031E+03  0.41800000000E+01 0. -1.
         -5    1    4    4    0  501  0.10490594124E+02 -0.17275660455E+02 -0.86770153895E+01  0.22388925952E+02  0.41800000000E+01 0. -1.
</event>
<event>
11    1  0.8039394E-009  0.1495647E+03  0.7561462E-02  0.1097324E+00
         22   -1    0    0    0    0  0.00000000000E+00  0.00000000000E+00  0.58683851802E+03  0.58683851802E+03  0.00000000000E+00 0.  1.
         22   -1    0    0    0    0 -0.00000000000E+00 -0.00000000000E+00 -0.18082584729E+03  0.18082584729E+03  0.00000000000E+00 0. -1.
        -24    2    1    2    0    0  0.53293394278E+02  0.26283065720E+02 -0.10200025238E+03  0.14259040054E+03  0.79981156666E+02 0.  0.
         25    2    1    2    0    0 -0.11838121991E+03 -0.62149875350E+02  0.11347254118E+03  0.21540771798E+03  0.12509095543E+03 0.  0.
         24    2    1    2    0    0  0.65087825627E+02  0.35866809631E+02  0.39454038194E+03  0.40966624679E+03  0.81495200489E+02 0.  0.
        -13    1    5    5    0    0  0.37434217690E+02 -0.68266346784E+01  0.29915452404E+03  0.30156484020E+03  0.00000000000E+00 0.  1.
         14    1    5    5    0    0  0.27653607937E+02  0.42693444309E+02  0.95385857903E+02  0.10810140659E+03  0.00000000000E+00 0. -1.
         13    1    3    3    0    0  0.10971626184E+02  0.31510499518E+02 -0.93275476026E+02  0.99063628991E+02  0.00000000000E+00 0. -1.
        -14    1    3    3    0    0  0.42321768094E+02 -0.52274337983E+01 -0.87247763573E+01  0.43526771546E+02  0.00000000000E+00 0.  1.
          5    1    4    4  501    0  0.16530184276E+02 -0.18279485761E+02 -0.10353816579E+02  0.27056616744E+02  0.41800000000E+01 0. -1.
         -5    1    4    4    0  501 -0.13491140418E+03 -0.43870389589E+02  0.12382635775E+03  0.18835110123E+03  0.41800000000E+01 0. -1.
</event>
<event>
11    1  0.8039394E-009  0.1484089E+03  0.7561462E-02  0.1098516E+00
         22   -1    0    0    0    0  0.00000000000E+00  0.00000000000E+00  0.71282396208E+03  0.71282396208E+03  0.00000000000E+00 0.  1.
         22   -1    0    0    0    0 -0.00000000000E+00 -0.00000000000E+00 -0.66580511134E+03  0.66580511134E+03  0.00000000000E+00 0. -1.
         24    2    1    2    0    0 -0.80081706596E+02  0.59520490148E+01 -0.60607308966E+03  0.61663492808E+03  0.80408568558E+02 0.  0.
         25    2    1    2    0    0  0.71899607376E+02  0.57538679367E+01  0.48509058364E+02  0.15232995372E+03  0.12509446639E+03 0.  0.
        -24    2    1    2    0    0  0.81820992199E+01 -0.11705916952E+02  0.60458288204E+03  0.60966419161E+03  0.77239821577E+02 0.  0.
        -11    1    3    3    0    0 -0.24677265279E+02 -0.35840617143E+02 -0.26833261682E+03  0.27183802256E+03  0.00000000000E+00 0.  1.
         12    1    3    3    0    0 -0.55404441317E+02  0.41792666157E+02 -0.33774047284E+03  0.34479690552E+03  0.00000000000E+00 0. -1.
         13    1    5    5    0    0  0.29914673473E+01 -0.30561167128E+02  0.97873696849E+02  0.10257774782E+03  0.00000000000E+00 0. -1.
        -14    1    5    5    0    0  0.51906318726E+01  0.18855250177E+02  0.50670918519E+03  0.50708644379E+03  0.00000000000E+00 0.  1.
          5    1    4    4  501    0  0.10574582474E+03  0.16586223186E+02  0.45623715404E+02  0.11643143071E+03  0.41800000000E+01 0. -1.
         -5    1    4    4    0  501 -0.33846217368E+02 -0.10832355249E+02  0.28853429592E+01  0.35898523011E+02  0.41800000000E+01 0. -1.
</event>
<event>
11    1  0.8039394E-009  0.1335409E+03  0.7561462E-02  0.1114993E+00
         22   -1    0    0    0    0  0.00000000000E+00  0.00000000000E+00  0.11521574805E+03  0.11521574805E+03  0.00000000000E+00 0. -1.
         22   -1    0    0    0    0 -0.00000000000E+00 -0.00000000000E+00 -0.99813243921E+03  0.99813243921E+03  0.00000000000E+00 0.  1.
         24    2    1    2    0    0  0.23057754771E+02  0.22753156906E+02 -0.87761359919E+03  0.88186013280E+03  0.80139242216E+02 0.  0.
         25    2    1    2    0    0 -0.48815273471E+02 -0.45870683810E+02 -0.59550971756E+01  0.14202147244E+03  0.12509030696E+03 0.  0.
        -24    2    1    2    0    0  0.25757518700E+02  0.23117526904E+02  0.65200520744E+00  0.89466582014E+02  0.82498329478E+02 0.  0.
        -13    1    3    3    0    0  0.69491543755E+01 -0.21215536932E+02 -0.59300427192E+03  0.59342434755E+03  0.00000000000E+00 0.  1.
         14    1    3    3    0    0  0.16108600396E+02  0.43968693838E+02 -0.28460932727E+03  0.28843578525E+03  0.00000000000E+00 0. -1.
         13    1    5    5    0    0  0.33073869829E+02  0.47807709354E+02  0.14932878545E+02  0.60020403204E+02  0.00000000000E+00 0. -1.
        -14    1    5    5    0    0 -0.73163511294E+01 -0.24690182450E+02 -0.14280873337E+02  0.29446178810E+02  0.00000000000E+00 0.  1.
          5    1    4    4  501    0 -0.68612377403E+02 -0.15391589590E+02 -0.48791449769E+02  0.85689190295E+02  0.41800000000E+01 0. -1.
         -5    1    4    4    0  501  0.19797103932E+02 -0.30479094221E+02  0.42836352593E+02  0.56332282149E+02  0.41800000000E+01 0. -1.
</event>
<event>
11    1  0.1110242E-008  0.1796077E+03  0.7561462E-02  0.1069961E+00
         22   -1    0    0    0    0  0.00000000000E+00  0.00000000000E+00  0.93066415540E+03  0.93066415540E+03  0.00000000000E+00 0.  1.
         22   -1    0    0    0    0 -0.00000000000E+00 -0.00000000000E+00 -0.56033893936E+03  0.56033893936E+03  0.00000000000E+00 0.  1.
        -24    2    1    2    0    0 -0.55133195797E+02  0.19298960548E+01 -0.33628414946E+03  0.35046181368E+03  0.81811123285E+02 0.  0.
         25    2    1    2    0    0 -0.22284831465E+02  0.10240111253E+03 -0.17875372299E+03  0.24204080620E+03  0.12509299269E+03 0.  0.
         24    2    1    2    0    0  0.77418027262E+02 -0.10433100859E+03  0.88536308849E+03  0.89850047488E+03  0.80974036580E+02 0.  0.
        -13    1    5    5    0    0  0.18928795499E+02 -0.90113488336E+02  0.57963814059E+03  0.58690639297E+03  0.00000000000E+00 0.  1.
         14    1    5    5    0    0  0.58489231763E+02 -0.14217520251E+02  0.30572494790E+03  0.31159408192E+03  0.00000000000E+00 0. -1.
         11    1    3    3    0    0 -0.48170199030E+02  0.38363507772E+02 -0.20951602977E+03  0.21837832661E+03  0.00000000000E+00 0. -1.
        -12    1    3    3    0    0 -0.69629967666E+01 -0.36433611717E+02 -0.12676811969E+03  0.13208348707E+03  0.00000000000E+00 0.  1.
          5    1    4    4  501    0  0.18244275734E+02  0.10487834063E+03 -0.16947713911E+03  0.20018065094E+03  0.41800000000E+01 0.  1.
         -5    1    4    4    0  501 -0.40529107199E+02 -0.24772281012E+01 -0.92765838790E+01  0.41860155254E+02  0.41800000000E+01 0. -1.
</event>
<event>
11    1  0.8039394E-009  0.1445956E+03  0.7561462E-02  0.1102533E+00
         22   -1    0    0    0    0  0.00000000000E+00  0.00000000000E+00  0.19075851778E+03  0.19075851778E+03  0.00000000000E+00 0. -1.
         22   -1    0    0    0    0 -0.00000000000E+00 -0.00000000000E+00 -0.82379674104E+03  0.82379674104E+03  0.00000000000E+00 0. -1.
         24    2    1    2    0    0  0.30407603107E+02  0.63185586952E+02 -0.59042385741E+03  0.59984045696E+03  0.79317095793E+02 0.  0.
         25    2    1    2    0    0  0.22794426524E+02 -0.10548185231E+03 -0.17881801536E+03  0.24345385994E+03  0.12509153549E+03 0.  0.
        -24    2    1    2    0    0 -0.53202029631E+02  0.42296265361E+02  0.13620364951E+03  0.17126094192E+03  0.78482138513E+02 0.  0.
        -11    1    3    3    0    0 -0.26350417252E+02  0.11187177760E+02 -0.14182506224E+03  0.14468533345E+03  0.00000000000E+00 0.  1.
         12    1    3    3    0    0  0.56758020359E+02  0.51998409193E+02 -0.44859879517E+03  0.45515512351E+03  0.00000000000E+00 0. -1.
         11    1    5    5    0    0 -0.18914435023E+02  0.82508237704E+01  0.11773951761E+03  0.11953420411E+03  0.00000000000E+00 0. -1.
        -12    1    5    5    0    0 -0.34287594608E+02  0.34045441591E+02  0.18464131899E+02  0.51726737804E+02  0.00000000000E+00 0.  1.
          5    1    4    4  501    0 -0.33567620072E+01 -0.61552014582E+02 -0.47297457074E+01  0.61965807061E+02  0.41800000000E+01 0.  1.
         -5    1    4    4    0  501  0.26151188532E+02 -0.43929837731E+02 -0.17408826966E+03  0.18148805288E+03  0.41800000000E+01 0.  1.
</event>
<event>
11    1  0.1748258E-008  0.1558002E+03  0.7561462E-02  0.1091095E+00
         22   -1    0    0    0    0  0.00000000000E+00  0.00000000000E+00  0.17637989980E+04  0.17637989980E+04  0.00000000000E+00 0.  1.
         22   -1    0    0    0    0 -0.00000000000E+00 -0.00000000000E+00 -0.12754058562E+04  0.12754058562E+04  0.00000000000E+00 0.  1.
         24    2    1    2    0    0 -0.42551426592E+02  0.14150853599E+01 -0.82383825196E+03  0.82889792405E+03  0.80930073111E+02 0.  0.
         25    2    1    2    0    0 -0.48535760868E+02  0.17791110944E+02 -0.43667377362E+03  0.45716622109E+03  0.12507887680E+03 0.  0.
        -24    2    1    2    0    0  0.91087187461E+02 -0.19206196304E+02  0.17489051674E+04  0.17531407091E+04  0.78532207388E+02 0.  0.
        -11    1    3    3    0    0 -0.41465432471E+02 -0.35439624332E+02 -0.48142579139E+03  0.48450608012E+03  0.00000000000E+00 0.  1.
         12    1    3    3    0    0 -0.10859941212E+01  0.36854709692E+02 -0.34241246057E+03  0.34439184393E+03  0.00000000000E+00 0. -1.
         11    1    5    5    0    0  0.34287728903E+02  0.21023336474E+02  0.31646950635E+03  0.31901501137E+03  0.00000000000E+00 0. -1.
        -12    1    5    5    0    0  0.56799458557E+02 -0.40229532777E+02  0.14324356611E+04  0.14341256977E+04  0.00000000000E+00 0.  1.
          5    1    4    4  501    0 -0.57214255665E+02 -0.43797501462E+02 -0.20892560493E+03  0.22104088532E+03  0.41800000000E+01 0. -1.
         -5    1    4    4    0  501  0.86784947967E+01  0.61588612406E+02 -0.22774816869E+03  0.23612533577E+03  0.41800000000E+01 0. -1.
</event>
<event>
11    1  0.8039394E-009  0.1337192E+03  0.7561462E-02  0.1114782E+00
         22   -1    0    0    0    0  0.00000000000E+00  0.00000000000E+00  0.12735059747E+03  0.12735059747E+03  0.00000000000E+00 0. -1.
         22   -1    0    0    0    0 -0.00000000000E+00 -0.00000000000E+00 -0.39147520331E+03  0.39147520331E+03  0.00000000000E+00 0. -1.
         24    2    1    2    0    0 -0.22940714539E+02 -0.41306524734E+02 -0.28011760649E+03  0.29511958502E+03  0.79982439510E+02 0.  0.
         25    2    1    2    0    0  0.33437701118E+02  0.35304506896E+02 -0.23231804790E+02  0.13620634928E+03  0.12509182534E+03 0.  0.
        -24    2    1    2    0    0 -0.10496986578E+02  0.60020178381E+01  0.39224805439E+02  0.87499866485E+02  0.77275030428E+02 0.  0.
        -11    1    3    3    0    0 -0.24187767764E+02  0.17885265223E+02 -0.13653433302E+03  0.13980899440E+03  0.00000000000E+00 0.  1.
         12    1    3    3    0    0  0.12470532247E+01 -0.59191789957E+02 -0.14358327347E+03  0.15531059062E+03  0.00000000000E+00 0. -1.
         11    1    5    5    0    0  0.28139317052E+02 -0.69803301466E+01  0.36550914649E+02  0.46653140674E+02  0.00000000000E+00 0. -1.
        -12    1    5    5    0    0 -0.38636303631E+02  0.12982347985E+02  0.26738907908E+01  0.40846725810E+02  0.00000000000E+00 0.  1.
          5    1    4    4  501    0  0.79629258568E+02  0.36016346107E+02 -0.10627406021E+02  0.88138585000E+02  0.41800000000E+01 0.  1.
         -5    1    4    4    0  501 -0.46191557450E+02 -0.71183921096E+00 -0.12604398770E+02  0.48067764282E+02  0.41800000000E+01 0.  1.
</event>
<event>
11    1  0.8039394E-009  0.1753529E+03  0.7561462E-02  0.1073465E+00
         22   -1    0    0    0    0  0.00000000000E+00  0.00000000000E+00  0.12074069408E+04  0.12074069408E+04  0.00000000000E+00 0. -1.
         22   -1    0    0    0    0 -0.00000000000E+00 -0.00000000000E+00 -0.88239780533E+02  0.88239780533E+02  0.00000000000E+00 0. -1.
         24    2    1    2    0    0 -0.10371595121E+03  0.59173485977E+02  0.80267330069E+01  0.14416826839E+03  0.80383836619E+02 0.  0.
         25    2    1    2    0    0  0.14375300200E+03 -0.50056081727E+02  0.57853332801E+03  0.61116302519E+03  0.12509554284E+03 0.  0.
        -24    2    1    2    0    0 -0.40037050790E+02 -0.91174042507E+01  0.53260709923E+03  0.54031542773E+03  0.81143988089E+02 0.  0.
        -11    1    3    3    0    0 -0.48882812027E+02 -0.79532863654E+01  0.25567013787E+02  0.55735592485E+02  0.00000000000E+00 0.  1.
         12    1    3    3    0    0 -0.54833139182E+02  0.67126772343E+02 -0.17540280780E+02  0.88432675904E+02  0.00000000000E+00 0. -1.
         13    1    5    5    0    0 -0.36018009919E+02 -0.91663200176E+01  0.53455742955E+03  0.53584789254E+03  0.00000000000E+00 0. -1.
        -14    1    5    5    0    0 -0.40190408713E+01  0.48915766893E-01 -0.19503303215E+01  0.44675351862E+01  0.00000000000E+00 0.  1.
          5    1    4    4  501    0  0.81504088051E+02 -0.43255926567E+02  0.13722845578E+03  0.16541799488E+03  0.41800000000E+01 0. -1.
         -5    1    4    4    0  501  0.62248913948E+02 -0.68001551600E+01  0.44130487223E+03  0.44574503032E+03  0.41800000000E+01 0. -1.
</event>
<event>
11    1  0.8039394E-009  0.2041853E+03  0.7561462E-02  0.1051603E+00
         22   -1    0    0    0    0  0.00000000000E+00  0.00000000000E+00  0.69995986419E+03  0.69995986419E+03  0.00000000000E+00 0. -1.
         22   -1    0    0    0    0 -0.00000000000E+00 -0.00000000000E+00 -0.66955514743E+03  0.66955514743E+03  0.00000000000E+00 0.  1.
        -24    2    1    2    0    0 -0.86342837217E+01 -0.16279950696E+03 -0.59045210481E+03  0.61526263329E+03  0.57759756962E+02 0.  0.
         25    2    1    2    0    0  0.89168681519E+02  0.13270949215E+03  0.11117837817E+03  0.23145375571E+03  0.12508935283E+03 0.  0.
         24    2    1    2    0    0 -0.80534397797E+02  0.30090014810E+02  0.50967844340E+03  0.52279862262E+03  0.78454355698E+02 0.  0.
        -11    1    5    5    0    0 -0.93867523869E+02  0.24864172039E+02  0.37528665516E+03  0.38764598879E+03  0.00000000000E+00 0.  1.
         12    1    5    5    0    0  0.13333126072E+02  0.52258427712E+01  0.13439178824E+03  0.13515263382E+03  0.00000000000E+00 0. -1.
         13    1    3    3    0    0 -0.29297648269E+02 -0.81620601566E+02 -0.24838698474E+03  0.26309003968E+03  0.00000000000E+00 0. -1.
        -14    1    3    3    0    0  0.20663364547E+02 -0.81178905390E+02 -0.34206512007E+03  0.35217259360E+03  0.00000000000E+00 0.  1.
          5    1    4    4  501    0  0.97277571902E+02  0.61185711106E+02  0.22525847802E+02  0.11718149793E+03  0.41800000000E+01 0.  1.
         -5    1    4    4    0  501 -0.81088903835E+01  0.71523781040E+02  0.88652530366E+02  0.11427225778E+03  0.41800000000E+01 0.  1.
</event>
<event>
11    1  0.8039394E-009  0.1615888E+03  0.7561462E-02  0.1085592E+00
         22   -1    0    0    0    0  0.00000000000E+00  0.00000000000E+00  0.13844743992E+04  0.13844743992E+04  0.00000000000E+00 0.  1.
         22   -1    0    0    0    0 -0.00000000000E+00 -0.00000000000E+00 -0.66225812698E+03  0.66225812698E+03  0.00000000000E+00 0.  1.
        -24    2    1    2    0    0  0.37680366231E+01  0.55778974664E+02 -0.62757155635E+03  0.63511955194E+03  0.80033085669E+02 0.  0.
         25    2    1    2    0    0  0.95975361830E+02 -0.24546931961E+02  0.20660370669E+03  0.26104931889E+03  0.12509129997E+03 0.  0.
         24    2    1    2    0    0 -0.99743398453E+02 -0.31232042703E+02  0.11431841219E+04  0.11505636554E+04  0.77476463733E+02 0.  0.
        -11    1    5    5    0    0 -0.23145729967E+02 -0.45215037686E+02  0.53760797548E+03  0.54000227754E+03  0.00000000000E+00 0.  1.
         12    1    5    5    0    0 -0.76597668487E+02  0.13982994983E+02  0.60557614644E+03  0.61056137784E+03  0.00000000000E+00 0. -1.
         13    1    3    3    0    0 -0.11279406945E+02  0.15800415522E+02 -0.28248827921E+02  0.34276441335E+02  0.00000000000E+00 0. -1.
        -14    1    3    3    0    0  0.15047443568E+02  0.39978559142E+02 -0.59932272843E+03  0.60084311061E+03  0.00000000000E+00 0.  1.
          5    1    4    4  501    0  0.12050515481E+03 -0.35014255731E+02  0.13420916890E+03  0.18378537444E+03  0.41800000000E+01 0. -1.
         -5    1    4    4    0  501 -0.24529792979E+02  0.10467323770E+02  0.72394537792E+02  0.77263944455E+02  0.41800000000E+01 0. -1.
</event>
<event>
11    1  0.8039394E-009  0.1735052E+03  0.7561462E-02  0.1075021E+00
         22   -1    0    0    0    0  0.00000000000E+00  0.00000000000E+00  0.20402025597E+03  0.20402025597E+03  0.00000000000E+00 0.  1.
         22   -1    0    0    0    0 -0.00000000000E+00 -0.00000000000E+00 -0.35760905713E+04  0.35760905713E+04  0.00000000000E+00 0.  1.
        -24    2    1    2    0    0  0.39929838860E+02  0.40960444431E+02 -0.33587679926E+04  0.33602242199E+04  0.80698386247E+02 0.  0.
         25    2    1    2    0    0 -0.12888984568E+03  0.38930701670E+02 -0.13816783358E+03  0.22993080272E+03  0.12509848900E+03 0.  0.
         24    2    1    2    0    0  0.88960006822E+02 -0.79891146101E+02  0.12486551088E+03  0.18995580467E+03  0.78710443292E+02 0.  0.
        -13    1    5    5    0    0  0.75399972740E+02 -0.79674156249E+02  0.13432172611E+03  0.17342275851E+03  0.00000000000E+00 0.  1.
         14    1    5    5    0    0  0.13560034082E+02 -0.21698985139E+00 -0.94562152341E+01  0.16533046164E+02  0.00000000000E+00 0. -1.
         13    1    3    3    0    0 -0.95332017102E+01  0.29466583156E+02 -0.47470342910E+03  0.47571263075E+03  0.00000000000E+00 0. -1.
        -14    1    3    3    0    0  0.49463040570E+02  0.11493861274E+02 -0.28840645635E+04  0.28845115891E+04  0.00000000000E+00 0.  1.
          5    1    4    4  501    0 -0.37228207151E+02 -0.35584067592E+02 -0.86876099665E+02  0.10107964368E+03  0.41800000000E+01 0. -1.
         -5    1    4    4    0  501 -0.91661638530E+02  0.74514769262E+02 -0.51291733917E+02  0.12885115903E+03  0.41800000000E+01 0. -1.
</event>
<event>
11    1  0.8039394E-009  0.1691520E+03  0.7561462E-02  0.1078772E+00
         22   -1    0    0    0    0  0.00000000000E+00  0.00000000000E+00  0.79087094252E+03  0.79087094252E+03  0.00000000000E+00 0.  1.
         22   -1    0    0    0    0 -0.00000000000E+00 -0.00000000000E+00 -0.18688346113E+03  0.18688346113E+03  0.00000000000E+00 0. -1.
         24    2    1    2    0    0 -0.45293332948E+02  0.10242078438E+03 -0.91546683174E+02  0.16644457845E+03  0.82349859822E+02 0.  0.
         25    2    1    2    0    0 -0.18594877267E+02 -0.13701197634E+03  0.11157275151E+03  0.21729002464E+03  0.12509366415E+03 0.  0.
        -24    2    1    2    0    0  0.63888210215E+02  0.34591191959E+02  0.58396141306E+03  0.59401980056E+03  0.81057618711E+02 0.  0.
        -13    1    3    3    0    0  0.23149237010E+02  0.34738667173E+02 -0.37146242800E+02  0.55879383723E+02  0.00000000000E+00 0.  1.
         14    1    3    3    0    0 -0.68442569958E+02  0.67682117203E+02 -0.54400440374E+02  0.11056519473E+03  0.00000000000E+00 0. -1.
         11    1    5    5    0    0  0.33987543557E+02 -0.21404205184E+02  0.14378335295E+03  0.14928812981E+03  0.00000000000E+00 0. -1.
        -12    1    5    5    0    0  0.29900666658E+02  0.55995397143E+02  0.44017806011E+03  0.44473167075E+03  0.00000000000E+00 0.  1.
          5    1    4    4  501    0 -0.47874450595E+02 -0.12190894234E+03  0.12534732222E+03  0.18133719098E+03  0.41800000000E+01 0.  1.
         -5    1    4    4    0  501  0.29279573329E+02 -0.15103033995E+02 -0.13774570717E+02  0.35952833666E+02  0.41800000000E+01 0.  1.
</event>
<event>
11    1  0.8039394E-009  0.1420376E+03  0.7561462E-02  0.1105304E+00
         22   -1    0    0    0    0  0.00000000000E+00  0.00000000000E+00  0.21307642022E+03  0.21307642022E+03  0.00000000000E+00 0.  1.
         22   -1    0    0    0    0 -0.00000000000E+00 -0.00000000000E+00 -0.69336343644E+03  0.69336343644E+03  0.00000000000E+00 0. -1.
        -24    2    1    2    0    0  0.87298034465E+01  0.63637033264E+02 -0.46287041234E+03  0.47366034363E+03  0.77325422949E+02 0.  0.
         25    2    1    2    0    0 -0.27233615548E+02 -0.78947330037E+02 -0.18914388152E+03  0.24164965620E+03  0.12507916569E+03 0.  0.
         24    2    1    2    0    0  0.18503812101E+02  0.15310296773E+02  0.17172727764E+03  0.19112985683E+03  0.80396318557E+02 0.  0.
        -13    1    5    5    0    0  0.33922649123E+02 -0.23793825035E+02  0.75510387602E+02  0.86131938729E+02  0.00000000000E+00 0.  1.
         14    1    5    5    0    0 -0.15418837022E+02  0.39104121808E+02  0.96216890036E+02  0.10499791810E+03  0.00000000000E+00 0. -1.
         11    1    3    3    0    0 -0.88696772919E+00  0.76626845584E+02 -0.43270134264E+03  0.43943476432E+03  0.00000000000E+00 0. -1.
        -12    1    3    3    0    0  0.96167711757E+01 -0.12989812320E+02 -0.30169069703E+02  0.34225579304E+02  0.00000000000E+00 0.  1.
          5    1    4    4  501    0 -0.75490734541E+02 -0.58434247318E+02 -0.10127554347E+03  0.13923943538E+03  0.41800000000E+01 0. -1.
         -5    1    4    4    0  501  0.48257118993E+02 -0.20513082719E+02 -0.87868338052E+02  0.10241022082E+03  0.41800000000E+01 0. -1.
</event>
<event>
11    1  0.8039394E-009  0.1727868E+03  0.7561462E-02  0.1075632E+00
         22   -1    0    0    0    0  0.00000000000E+00  0.00000000000E+00  0.11074960136E+04  0.11074960136E+04  0.00000000000E+00 0.  1.
         22   -1    0    0    0    0 -0.00000000000E+00 -0.00000000000E+00 -0.73593241348E+02  0.73593241348E+02  0.00000000000E+00 0.  1.
         24    2    1    2    0    0 -0.45023085939E+02 -0.57031397568E+02  0.17799477057E+03  0.20370215565E+03  0.67325858983E+02 0.  0.
         25    2    1    2    0    0  0.15908862698E+03  0.46871892418E+02  0.14626369589E+03  0.25406122013E+03  0.12509144377E+03 0.  0.
        -24    2    1    2    0    0 -0.11406554105E+03  0.10159505150E+02  0.70964430577E+03  0.72332587915E+03  0.80567509203E+02 0.  0.
        -13    1    3    3    0    0  0.73658358182E+01 -0.27675964608E+02  0.20709927376E+02  0.35342830195E+02  0.00000000000E+00 0.  1.
         14    1    3    3    0    0 -0.52388921757E+02 -0.29355432961E+02  0.15728484320E+03  0.16835932545E+03  0.00000000000E+00 0. -1.
         11    1    5    5    0    0  0.83711788580E+01 -0.14920078674E+01  0.10820413270E+02  0.13761688351E+02  0.00000000000E+00 0. -1.
        -12    1    5    5    0    0 -0.12243671990E+03  0.11651513017E+02  0.69882389250E+03  0.70956419080E+03  0.00000000000E+00 0.  1.
          5    1    4    4  501    0  0.57082545445E+02  0.77220316261E+02  0.41599098887E+02  0.10473467270E+03  0.41800000000E+01 0. -1.
         -5    1    4    4    0  501  0.10200608154E+03 -0.30348423843E+02  0.10466459700E+03  0.14932654742E+03  0.41800000000E+01 0. -1.
</event>
<event>
11    1  0.8039394E-009  0.1742463E+03  0.7561462E-02  0.1074394E+00
         22   -1    0    0    0    0  0.00000000000E+00  0.00000000000E+00  0.10239555190E+03  0.10239555190E+03  0.00000000000E+00 0. -1.
         22   -1    0    0    0    0 -0.00000000000E+00 -0.00000000000E+00 -0.22634867747E+04  0.22634867747E+04  0.00000000000E+00 0.  1.
        -24    2    1    2    0    0  0.76889910020E+02 -0.32171732759E+02 -0.16947940016E+04  0.16989102950E+04  0.83799785333E+02 0.  0.
         25    2    1    2    0    0 -0.17113320011E+03  0.92813570283E+02 -0.47636634565E+03  0.52959831073E+03  0.12509414235E+03 0.  0.
         24    2    1    2    0    0  0.94243290087E+02 -0.60641837524E+02  0.10069124464E+02  0.13737372083E+03  0.78809401237E+02 0.  0.
        -13    1    5    5    0    0  0.90675276714E+02 -0.27965685687E+02 -0.14956003804E+02  0.96061269162E+02  0.00000000000E+00 0.  1.
         14    1    5    5    0    0  0.35680133730E+01 -0.32676151837E+02  0.25025128268E+02  0.41312451672E+02  0.00000000000E+00 0. -1.
         11    1    3    3    0    0  0.18216790232E+02 -0.39143081586E+02 -0.32663438126E+03  0.32947541836E+03  0.00000000000E+00 0. -1.
        -12    1    3    3    0    0  0.58673119788E+02  0.69713488271E+01 -0.13681596203E+04  0.13694348766E+04  0.00000000000E+00 0.  1.
          5    1    4    4  501    0  0.32861639069E+01  0.25783960937E+02 -0.11810780603E+02  0.28854435591E+02  0.41800000000E+01 0. -1.
         -5    1    4    4    0  501 -0.17441936401E+03  0.67029609346E+02 -0.46455556505E+03  0.50074387514E+03  0.41800000000E+01 0. -1.
</event>
<event>
11    1  0.8039394E-009  0.1309793E+03  0.7561462E-02  0.1118072E+00
         22   -1    0    0    0    0  0.00000000000E+00  0.00000000000E+00  0.46694791428E+03  0.46694791428E+03  0.00000000000E+00 0.  1.
         22   -1    0    0    0    0 -0.00000000000E+00 -0.00000000000E+00 -0.43783255827E+03  0.43783255827E+03  0.00000000000E+00 0.  1.
        -24    2    1    2    0    0 -0.28396611757E+02  0.28381696676E+02 -0.39994943575E+03  0.41003988100E+03  0.81001633234E+02 0.  0.
         25    2    1    2    0    0  0.27314914843E+02  0.16310211496E+02  0.13653369366E+03  0.18788469288E+03  0.12508829179E+03 0.  0.
         24    2    1    2    0    0  0.10816969141E+01 -0.44691908172E+02  0.29253109809E+03  0.30685589866E+03  0.81163800238E+02 0.  0.
        -11    1    5    5    0    0 -0.25695667795E+02 -0.39812780495E+02  0.26071405861E+03  0.26498517919E+03  0.00000000000E+00 0.  1.
         12    1    5    5    0    0  0.26777364709E+02 -0.48791276767E+01  0.31817039482E+02  0.41870719471E+02  0.00000000000E+00 0. -1.
         13    1    3    3    0    0 -0.36906511561E+02  0.25401206211E+02 -0.95822542958E+02  0.10577935343E+03  0.00000000000E+00 0. -1.
        -14    1    3    3    0    0  0.85098998041E+01  0.29804904650E+01 -0.30412689280E+03  0.30426052757E+03  0.00000000000E+00 0.  1.
          5    1    4    4  501    0 -0.15104555421E+02 -0.37498704794E+02  0.69366335381E+01  0.41229719142E+02  0.41800000000E+01 0. -1.
         -5    1    4    4    0  501  0.42419470264E+02  0.53808916290E+02  0.12959706013E+03  0.14665497374E+03  0.41800000000E+01 0. -1.
</event>
<event>
11    1  0.8039394E-009  0.1448452E+03  0.7561462E-02  0.1102265E+00
         22   -1    0    0    0    0  0.00000000000E+00  0.00000000000E+00  0.33947196471E+03  0.33947196471E+03  0.00000000000E+00 0.  1.
         22   -1    0    0    0    0 -0.00000000000E+00 -0.00000000000E+00 -0.28610704883E+04  0.28610704883E+04  0.00000000000E+00 0. -1.
         24    2    1    2    0    0  0.57630442557E+02 -0.44280400170E+02 -0.27824167800E+04  0.27846035841E+04  0.83017835191E+02 0.  0.
         25    2    1    2    0    0 -0.92150530638E+02  0.50418670772E+02  0.26189423579E+02  0.16542843525E+03  0.12508764376E+03 0.  0.
        -24    2    1    2    0    0  0.34520088080E+02 -0.61382706021E+01  0.23462883286E+03  0.25051043368E+03  0.80470325748E+02 0.  0.
        -13    1    3    3    0    0  0.20599684252E+01  0.15299631126E+02 -0.12665126027E+03  0.12758865118E+03  0.00000000000E+00 0.  1.
         14    1    3    3    0    0  0.55570474132E+02 -0.59580031296E+02 -0.26557655197E+04  0.26570149329E+04  0.00000000000E+00 0. -1.
         11    1    5    5    0    0  0.94317032016E+01  0.12179217601E+00 -0.41718517624E+01  0.10313884125E+02  0.00000000000E+00 0. -1.
        -12    1    5    5    0    0  0.25088384879E+02 -0.62600627782E+01  0.23880068462E+03  0.24019654955E+03  0.00000000000E+00 0.  1.
          5    1    4    4  501    0 -0.44485837548E+02  0.90202766014E+02  0.22148272646E+02  0.10307059290E+03  0.41800000000E+01 0.  1.
         -5    1    4    4    0  501 -0.47664693090E+02 -0.39784095242E+02  0.40411509332E+01  0.62357842349E+02  0.41800000000E+01 0.  1.
</event>
<event>
11    1  0.8039394E-009  0.1495419E+03  0.7561462E-02  0.1097348E+00
         22   -1    0    0    0    0  0.00000000000E+00  0.00000000000E+00  0.36031205363E+03  0.36031205363E+03  0.00000000000E+00 0. -1.
         22   -1    0    0    0    0 -0.00000000000E+00 -0.00000000000E+00 -0.63011324354E+03  0.63011324354E+03  0.00000000000E+00 0. -1.
        -24    2    1    2    0    0  0.15827964438E+02  0.38125036580E+02 -0.52823161820E+03  0.53591465234E+03  0.80447680232E+02 0.  0.
         25    2    1    2    0    0 -0.95483520162E+02 -0.42590239813E+02 -0.10280565106E+02  0.16335422867E+03  0.12509149793E+03 0.  0.
         24    2    1    2    0    0  0.79655555724E+02  0.44652032323E+01  0.26871099339E+03  0.29115641617E+03  0.78749699085E+02 0.  0.
        -11    1    5    5    0    0  0.59126683559E+01  0.32630321964E+02  0.79594785724E+02  0.86226605367E+02  0.00000000000E+00 0.  1.
         12    1    5    5    0    0  0.73742887368E+02 -0.28165118732E+02  0.18911620767E+03  0.20492981080E+03  0.00000000000E+00 0. -1.
         11    1    3    3    0    0  0.39721451731E+02  0.47497427598E+02 -0.30567617183E+03  0.31188414737E+03  0.00000000000E+00 0. -1.
        -12    1    3    3    0    0 -0.23893487293E+02 -0.93723910179E+01 -0.22255544637E+03  0.22403050497E+03  0.00000000000E+00 0.  1.
          5    1    4    4  501    0 -0.62182181577E+02 -0.16157487120E+02  0.55443468119E+02  0.84965514492E+02  0.41800000000E+01 0.  1.
         -5    1    4    4    0  501 -0.33301338585E+02 -0.26432752693E+02 -0.65724033225E+02  0.78388714174E+02  0.41800000000E+01 0.  1.
</event>
<event>
11    1  0.8039394E-009  0.1314011E+03  0.7561462E-02  0.1117559E+00
         22   -1    0    0    0    0  0.00000000000E+00  0.00000000000E+00  0.88885955491E+03  0.88885955491E+03  0.00000000000E+00 0. -1.
         22   -1    0    0    0    0 -0.00000000000E+00 -0.00000000000E+00 -0.97188580400E+02  0.97188580400E+02  0.00000000000E+00 0. -1.
        -24    2    1    2    0    0  0.50127813563E+01 -0.12463207243E+02 -0.59162085945E+02  0.10149581434E+03  0.81368227235E+02 0.  0.
         25    2    1    2    0    0 -0.41642993746E+02 -0.42659000838E+01  0.31517922340E+03  0.34166835582E+03  0.12508791179E+03 0.  0.
         24    2    1    2    0    0  0.36630212390E+02  0.16729107327E+02  0.53565383706E+03  0.54288396515E+03  0.78589636521E+02 0.  0.
        -13    1    5    5    0    0  0.85560127196E+01  0.28332492437E+01  0.32828307407E+01  0.95921651678E+01  0.00000000000E+00 0.  1.
         14    1    5    5    0    0  0.28074199670E+02  0.13895858083E+02  0.53237100632E+03  0.53329179998E+03  0.00000000000E+00 0. -1.
         11    1    3    3    0    0  0.33012155232E+02  0.97043519629E+00 -0.62065090317E+02  0.70305188809E+02  0.00000000000E+00 0. -1.
        -12    1    3    3    0    0 -0.27999373876E+02 -0.13433642439E+02  0.29030043713E+01  0.31190625531E+02  0.00000000000E+00 0.  1.
          5    1    4    4  501    0 -0.34546968335E+02 -0.21512795910E+02  0.19410589573E+02  0.45282853229E+02  0.41800000000E+01 0. -1.
         -5    1    4    4    0  501 -0.70960254116E+01  0.17246895827E+02  0.29576863383E+03  0.29638550259E+03  0.41800000000E+01 0. -1.
</event>
<event>
11    1  0.8039394E-009  0.2022548E+03  0.7561462E-02  0.1052941E+00
         22   -1    0    0    0    0  0.00000000000E+00  0.00000000000E+00  0.18064316433E+04  0.18064316433E+04  0.00000000000E+00 0. -1.
         22   -1    0    0    0    0 -0.00000000000E+00 -0.00000000000E+00 -0.37677964330E+03  0.37677964330E+03  0.00000000000E+00 0. -1.
         24    2    1    2    0    0 -0.10630135199E+02 -0.54319093719E+02 -0.31385207638E+03  0.32854513155E+03  0.79844936613E+02 0.  0.
         25    2    1    2    0    0  0.10706020676E+03  0.17497923974E+03  0.23505900856E+03  0.33612446132E+03  0.12508914335E+03 0.  0.
        -24    2    1    2    0    0 -0.96430071556E+02 -0.12066014602E+03  0.15084450679E+04  0.15185416938E+04  0.81882375294E+02 0.  0.
        -13    1    3    3    0    0 -0.44465097117E+02 -0.19466806250E+02 -0.16153200210E+03  0.16866739196E+03  0.00000000000E+00 0.  1.
         14    1    3    3    0    0  0.33834961918E+02 -0.34852287469E+02 -0.15232007428E+03  0.15987773960E+03  0.00000000000E+00 0. -1.
         11    1    5    5    0    0 -0.95121553904E+02 -0.11969261675E+03  0.15090726449E+04  0.15167975079E+04  0.00000000000E+00 0. -1.
        -12    1    5    5    0    0 -0.13085176525E+01 -0.96752927408E+00 -0.62757701009E+00  0.17441858407E+01  0.00000000000E+00 0.  1.
          5    1    4    4  501    0  0.64992955391E+02  0.33422907660E+02  0.21220810735E+02  0.76216600653E+02  0.41800000000E+01 0.  1.
         -5    1    4    4    0  501  0.42067251365E+02  0.14155633208E+03  0.21383819782E+03  0.25990786067E+03  0.41800000000E+01 0.  1.
</event>
<event>
11    1  0.8039394E-009  0.1670493E+03  0.7561462E-02  0.1080628E+00
         22   -1    0    0    0    0  0.00000000000E+00  0.00000000000E+00  0.31702138541E+03  0.31702138541E+03  0.00000000000E+00 0. -1.
         22   -1    0    0    0    0 -0.00000000000E+00 -0.00000000000E+00 -0.55067145415E+03  0.55067145415E+03  0.00000000000E+00 0. -1.
        -24    2    1    2    0    0 -0.77990439672E+02  0.52044523869E+02 -0.23126214772E+03  0.26271701852E+03  0.82139574531E+02 0.  0.
         25    2    1    2    0    0  0.13987098828E+03 -0.47819470784E+02 -0.26242483518E+03  0.32613895232E+03  0.12509687028E+03 0.  0.
         24    2    1    2    0    0 -0.61880548603E+02 -0.42250530853E+01  0.26003691416E+03  0.27883686873E+03  0.79270103228E+02 0.  0.
        -13    1    5    5    0    0  0.11928186864E+02 -0.10926140767E+02  0.12498409926E+02  0.20441928593E+02  0.00000000000E+00 0.  1.
         14    1    5    5    0    0 -0.73808735468E+02  0.67010876818E+01  0.24753850424E+03  0.25839494013E+03  0.00000000000E+00 0. -1.
         11    1    3    3    0    0 -0.87227782839E+02  0.20686568565E+02 -0.18989610143E+03  0.20999321312E+03  0.00000000000E+00 0. -1.
        -12    1    3    3    0    0  0.92373431668E+01  0.31357955304E+02 -0.41366046289E+02  0.52723805394E+02  0.00000000000E+00 0.  1.
          5    1    4    4  501    0  0.43736940386E+02  0.34321836982E+02 -0.13734917186E+03  0.14823351800E+03  0.41800000000E+01 0. -1.
         -5    1    4    4    0  501  0.96134047890E+02 -0.82141307766E+02 -0.12507566332E+03  0.17790543432E+03  0.41800000000E+01 0. -1.
</event>
<event>
11    1  0.8039394E-009  0.1682851E+03  0.7561462E-02  0.1079534E+00
         22   -1    0    0    0    0  0.00000000000E+00  0.00000000000E+00  0.52178615988E+03  0.52178615988E+03  0.00000000000E+00 0. -1.
         22   -1    0    0    0    0 -0.00000000000E+00 -0.00000000000E+00 -0.29052140934E+03  0.29052140934E+03  0.00000000000E+00 0. -1.
        -24    2    1    2    0    0  0.74006646350E+00 -0.10766554121E+03 -0.17382714229E+03  0.21995274455E+03  0.81061198956E+02 0.  0.
         25    2    1    2    0    0  0.17019709982E+02  0.13217121004E+03  0.33249152365E+01  0.18280740226E+03  0.12509433227E+03 0.  0.
         24    2    1    2    0    0 -0.17759776445E+02 -0.24505668828E+02  0.40176697760E+03  0.40954742241E+03  0.73460529896E+02 0.  0.
        -11    1    5    5    0    0 -0.29564501515E+02  0.16840728877E+02  0.12897732707E+03  0.13338973273E+03  0.00000000000E+00 0.  1.
         12    1    5    5    0    0  0.11804725070E+02 -0.41346397705E+02  0.27278965052E+03  0.27615768968E+03  0.00000000000E+00 0. -1.
         11    1    3    3    0    0 -0.52152945038E+01 -0.11664945034E+03 -0.17354542317E+03  0.20917052246E+03  0.00000000000E+00 0. -1.
        -12    1    3    3    0    0  0.59553609673E+01  0.89839091331E+01 -0.28171911828E+00  0.10782222091E+02  0.00000000000E+00 0.  1.
          5    1    4    4  501    0 -0.51219700125E+01  0.12098192250E+03  0.48973180591E+02  0.13068551934E+03  0.41800000000E+01 0.  1.
         -5    1    4    4    0  501  0.22141679994E+02  0.11189287540E+02 -0.45648265355E+02  0.52121882914E+02  0.41800000000E+01 0.  1.
</event>
<event>
11    1  0.8039394E-009  0.1425497E+03  0.7561462E-02  0.1104744E+00
         22   -1    0    0    0    0  0.00000000000E+00  0.00000000000E+00  0.43893973530E+03  0.43893973530E+03  0.00000000000E+00 0.  1.
         22   -1    0    0    0    0 -0.00000000000E+00 -0.00000000000E+00 -0.10135672758E+04  0.10135672758E+04  0.00000000000E+00 0. -1.
         24    2    1    2    0    0 -0.24231909152E+02 -0.20633533081E+02 -0.92536779397E+03  0.92992472503E+03  0.86264198826E+02 0.  0.
         25    2    1    2    0    0  0.90398956676E+02  0.18619059241E+02 -0.83075728301E+00  0.15545601183E+03  0.12508893125E+03 0.  0.
        -24    2    1    2    0    0 -0.66167047524E+02  0.20144738401E+01  0.35157101071E+03  0.36712627429E+03  0.82446282056E+02 0.  0.
        -13    1    3    3    0    0 -0.41243984185E+02 -0.32565720853E+02 -0.32695574727E+03  0.33115200902E+03  0.00000000000E+00 0.  1.
         14    1    3    3    0    0  0.17012075033E+02  0.11932187772E+02 -0.59841204670E+03  0.59877271601E+03  0.00000000000E+00 0. -1.
         13    1    5    5    0    0  0.15773282124E+02  0.18963669644E+00  0.12868903919E+03  0.12965223175E+03  0.00000000000E+00 0. -1.
        -14    1    5    5    0    0 -0.81940329648E+02  0.18248371436E+01  0.22288197152E+03  0.23747404254E+03  0.00000000000E+00 0.  1.
          5    1    4    4  501    0  0.26101640016E+02 -0.24644556012E+02  0.50724578852E+02  0.62282461836E+02  0.41800000000E+01 0.  1.
         -5    1    4    4    0  501  0.64297316660E+02  0.43263615253E+02 -0.51555336135E+02  0.93173549994E+02  0.41800000000E+01 0.  1.
</event>
<event>
11    1  0.8039394E-009  0.1549195E+03  0.7561462E-02  0.1091955E+00
         22   -1    0    0    0    0  0.00000000000E+00  0.00000000000E+00  0.10334680053E+04  0.10334680053E+04  0.00000000000E+00 0. -1.
         22   -1    0    0    0    0 -0.00000000000E+00 -0.00000000000E+00 -0.21055097824E+03  0.21055097824E+03  0.00000000000E+00 0. -1.
         24    2    1    2    0    0 -0.19566217877E+02 -0.11104562645E+02 -0.16692645333E+03  0.18812889994E+03  0.83796742031E+02 0.  0.
         25    2    1    2    0    0  0.91728829303E+02 -0.42901285628E+02  0.19810321018E+03  0.25523949884E+03  0.12509045307E+03 0.  0.
        -24    2    1    2    0    0 -0.72162611426E+02  0.54005848274E+02  0.79174027020E+03  0.80065058475E+03  0.77875729630E+02 0.  0.
        -13    1    3    3    0    0  0.20760371876E+02  0.21859534611E+02 -0.92491110425E+02  0.97280202515E+02  0.00000000000E+00 0.  1.
         14    1    3    3    0    0 -0.40326589753E+02 -0.32964097256E+02 -0.74435342908E+02  0.90848697420E+02  0.00000000000E+00 0. -1.
         13    1    5    5    0    0 -0.88425998973E+02  0.50019853462E+02  0.70808378234E+03  0.71533473693E+03  0.00000000000E+00 0. -1.
        -14    1    5    5    0    0  0.16263387547E+02  0.39859948114E+01  0.83656487854E+02  0.85315847820E+02  0.00000000000E+00 0.  1.
          5    1    4    4  501    0  0.10416985695E+03 -0.14438407322E+02  0.19761223966E+03  0.22389260007E+03  0.41800000000E+01 0. -1.
         -5    1    4    4    0  501 -0.12441027644E+02 -0.28462878306E+02  0.49097051873E+00  0.31346898768E+02  0.41800000000E+01 0. -1.
</event>
<event>
11    1  0.8039394E-009  0.2000298E+03  0.7561462E-02  0.1054503E+00
         22   -1    0    0    0    0  0.00000000000E+00  0.00000000000E+00  0.30606162536E+03  0.30606162536E+03  0.00000000000E+00 0. -1.
         22   -1    0    0    0    0 -0.00000000000E+00 -0.00000000000E+00 -0.50768400478E+03  0.50768400478E+03  0.00000000000E+00 0.  1.
         24    2    1    2    0    0  0.62402984580E+02  0.13674465080E+03 -0.35787418743E+03  0.39604166111E+03  0.78624622710E+02 0.  0.
         25    2    1    2    0    0 -0.82952070433E+01 -0.21717783273E+03  0.55738167214E+02  0.25688620592E+03  0.12509499597E+03 0.  0.
        -24    2    1    2    0    0 -0.54107777537E+02  0.80433181932E+02  0.10051364079E+03  0.16081776312E+03  0.79763479133E+02 0.  0.
        -11    1    3    3    0    0 -0.14456136104E+02  0.22444451089E+02 -0.10216290533E+03  0.10559352481E+03  0.00000000000E+00 0.  1.
         12    1    3    3    0    0  0.76859120684E+02  0.11430019971E+03 -0.25571128210E+03  0.29044813630E+03  0.00000000000E+00 0. -1.
         13    1    5    5    0    0 -0.19949197002E+02  0.43846209164E+02 -0.39953494417E+00  0.48172815438E+02  0.00000000000E+00 0. -1.
        -14    1    5    5    0    0 -0.34158580535E+02  0.36586972768E+02  0.10091317574E+03  0.11264494768E+03  0.00000000000E+00 0.  1.
          5    1    4    4  501    0 -0.65322273056E+02 -0.12313442371E+03  0.43855092743E+02  0.14618422356E+03  0.41800000000E+01 0. -1.
         -5    1    4    4    0  501  0.57027066013E+02 -0.94043409023E+02  0.11883074471E+02  0.11070198236E+03  0.41800000000E+01 0. -1.
</event>
<event>
11    1  0.8039394E-009  0.1587761E+03  0.7561462E-02  0.1088234E+00
         22   -1    0    0    0    0  0.00000000000E+00  0.00000000000E+00  0.35728653542E+03  0.35728653542E+03  0.00000000000E+00 0.  1.
         22   -1    0    0    0    0 -0.00000000000E+00 -0.00000000000E+00 -0.10575417563E+04  0.10575417563E+04  0.00000000000E+00 0. -1.
        -24    2    1    2    0    0 -0.67258606848E+02  0.76438752489E+02 -0.84934830731E+03  0.85926328087E+03  0.81081660298E+02 0.  0.
         25    2    1    2    0    0  0.70583786278E+02 -0.37031769521E+02 -0.16873621331E+03  0.22466188368E+03  0.12509048508E+03 0.  0.
         24    2    1    2    0    0 -0.33251794304E+01 -0.39406982967E+02  0.31782929973E+03  0.33090312719E+03  0.83171201127E+02 0.  0.
        -11    1    5    5    0    0 -0.20039136293E+02 -0.16623392718E+02  0.29025894618E+03  0.29142436413E+03  0.00000000000E+00 0.  1.
         12    1    5    5    0    0  0.16713956862E+02 -0.22783590249E+02  0.27570353546E+02  0.39478763067E+02  0.00000000000E+00 0. -1.
         11    1    3    3    0    0 -0.24722439545E+02  0.78444341332E+02 -0.66464943331E+03  0.66971903281E+03  0.00000000000E+00 0. -1.
        -12    1    3    3    0    0 -0.42536167303E+02 -0.20055888434E+01 -0.18469887400E+03  0.18954424806E+03  0.00000000000E+00 0.  1.
          5    1    4    4  501    0  0.61839606468E+02 -0.58578485147E+02 -0.17947733661E+03  0.19870873812E+03  0.41800000000E+01 0. -1.
         -5    1    4    4    0  501  0.87441798102E+01  0.21546715626E+02  0.10741123294E+02  0.25953145560E+02  0.41800000000E+01 0. -1.
</event>
<event>
11    1  0.8039394E-009  0.1769347E+03  0.7561462E-02  0.1072150E+00
         22   -1    0    0    0    0  0.00000000000E+00  0.00000000000E+00  0.13142922923E+04  0.13142922923E+04  0.00000000000E+00 0.  1.
         22   -1    0    0    0    0 -0.00000000000E+00 -0.00000000000E+00 -0.96113862861E+03  0.96113862861E+03  0.00000000000E+00 0. -1.
        -24    2    1    2    0    0  0.12341373319E+02  0.12495436362E+03 -0.91917530833E+03  0.93127618411E+03  0.81401358474E+02 0.  0.
         25    2    1    2    0    0 -0.12924488879E+02 -0.10962722342E+03  0.16723378792E+03  0.23622700773E+03  0.12510351245E+03 0.  0.
         24    2    1    2    0    0  0.58311556001E+00 -0.15327140191E+02  0.11050951841E+04  0.11079277291E+04  0.77673841741E+02 0.  0.
        -13    1    5    5    0    0  0.27762852775E+02 -0.12956080631E+02  0.94701497857E+03  0.94751042509E+03  0.00000000000E+00 0.  1.
         14    1    5    5    0    0 -0.27179737215E+02 -0.23710595601E+01  0.15808020555E+03  0.16041730401E+03  0.00000000000E+00 0. -1.
         11    1    3    3    0    0  0.46095300081E+02  0.87888911507E+02 -0.58399487033E+03  0.59236749238E+03  0.00000000000E+00 0. -1.
        -12    1    3    3    0    0 -0.33753926761E+02  0.37065452109E+02 -0.33518043799E+03  0.33890869172E+03  0.00000000000E+00 0.  1.
          5    1    4    4  501    0 -0.30398225209E+01  0.21457650471E+02  0.67928347917E+02  0.71424114523E+02  0.41800000000E+01 0. -1.
         -5    1    4    4    0  501 -0.98846663583E+01 -0.13108487390E+03  0.99305440007E+02  0.16480289320E+03  0.41800000000E+01 0. -1.
</event>
<event>
11    1  0.8039394E-009  0.1340255E+03  0.7561462E-02  0.1114420E+00
         22   -1    0    0    0    0  0.00000000000E+00  0.00000000000E+00  0.57275299064E+02  0.57275299064E+02  0.00000000000E+00 0. -1.
         22   -1    0    0    0    0 -0.00000000000E+00 -0.00000000000E+00 -0.25403905418E+04  0.25403905418E+04  0.00000000000E+00 0. -1.
        -24    2    1    2    0    0  0.36436776912E+02 -0.19044550313E+02 -0.17212697604E+04  0.17236519347E+04  0.80722178559E+02 0.  0.
         25    2    1    2    0    0 -0.22819237345E+02 -0.28734664590E+02 -0.76633998830E+03  0.77734870399E+03  0.12509049279E+03 0.  0.
         24    2    1    2    0    0 -0.13617539568E+02  0.47779214903E+02  0.44945059770E+01  0.96665202220E+02  0.82798973277E+02 0.  0.
        -11    1    5    5    0    0  0.48796927022E+01  0.36392106237E+02 -0.35550750380E+02  0.51108244441E+02  0.00000000000E+00 0.  1.
         12    1    5    5    0    0 -0.18497232270E+02  0.11387108667E+02  0.40045256357E+02  0.45556957780E+02  0.00000000000E+00 0. -1.
         11    1    3    3    0    0 -0.43556822998E+01  0.41480041128E+01 -0.12574799841E+04  0.12574943691E+04  0.00000000000E+00 0. -1.
        -12    1    3    3    0    0  0.40792459212E+02 -0.23192554426E+02 -0.46378977630E+03  0.46615756554E+03  0.00000000000E+00 0.  1.
          5    1    4    4  501    0 -0.44113673934E+02  0.42439387288E+01 -0.95682405662E+02  0.10553019661E+03  0.41800000000E+01 0. -1.
         -5    1    4    4    0  501  0.21294436589E+02 -0.32978603319E+02 -0.67065758264E+03  0.67181850738E+03  0.41800000000E+01 0. -1.
</event>
<event>
11    1  0.8039394E-009  0.1676563E+03  0.7561462E-02  0.1080089E+00
         22   -1    0    0    0    0  0.00000000000E+00  0.00000000000E+00  0.88363685232E+02  0.88363685232E+02  0.00000000000E+00 0. -1.
         22   -1    0    0    0    0 -0.00000000000E+00 -0.00000000000E+00 -0.19826925624E+04  0.19826925624E+04  0.00000000000E+00 0.  1.
         24    2    1    2    0    0 -0.83578526796E+02  0.75975882690E+02 -0.14711057839E+04  0.14775748454E+04  0.79482648703E+02 0.  0.
         25    2    1    2    0    0  0.50532821372E+02 -0.99650868345E+02 -0.46416865480E+03  0.49353945116E+03  0.12507912757E+03 0.  0.
        -24    2    1    2    0    0  0.33045705424E+02  0.23674985654E+02  0.40945561486E+02  0.99941951120E+02  0.81604724101E+02 0.  0.
        -13    1    3    3    0    0 -0.98512470174E+02  0.68626053814E+02 -0.13504640254E+04  0.13557902957E+04  0.00000000000E+00 0.  1.
         14    1    3    3    0    0  0.14933943378E+02  0.73498288768E+01 -0.12064175847E+03  0.12178454966E+03  0.00000000000E+00 0. -1.
         13    1    5    5    0    0  0.11644969479E+02  0.41356601591E+02  0.54213258751E+02  0.69174064747E+02  0.00000000000E+00 0. -1.
        -14    1    5    5    0    0  0.21400735946E+02 -0.17681615936E+02 -0.13267697265E+02  0.30767886373E+02  0.00000000000E+00 0.  1.
          5    1    4    4  501    0  0.19783283527E+02 -0.11132162347E+03 -0.22257783605E+03  0.24968429598E+03  0.41800000000E+01 0.  1.
         -5    1    4    4    0  501  0.30749537844E+02  0.11670755121E+02 -0.24159081875E+03  0.24385515518E+03  0.41800000000E+01 0.  1.
</event>
<event>
11    1  0.8039394E-009  0.1389060E+03  0.7561462E-02  0.1108786E+00
         22   -1    0    0    0    0  0.00000000000E+00  0.00000000000E+00  0.74616640184E+03  0.74616640184E+03  0.00000000000E+00 0.  1.
         22   -1    0    0    0    0 -0.00000000000E+00 -0.00000000000E+00 -0.60125776678E+03  0.60125776678E+03  0.00000000000E+00 0.  1.
         24    2    1    2    0    0  0.19106471481E+02  0.53579225883E+00 -0.57672542718E+03  0.58272806262E+03  0.81206109915E+02 0.  0.
         25    2    1    2    0    0 -0.69080375840E+02  0.24092297894E+02  0.32011579384E+03  0.35138963296E+03  0.12509202829E+03 0.  0.
        -24    2    1    2    0    0  0.49973904359E+02 -0.24628090153E+02  0.40151826839E+03  0.41330647304E+03  0.80631177967E+02 0.  0.
        -11    1    3    3    0    0  0.10401134288E+02  0.26856334521E+02 -0.50516530455E+03  0.50598560376E+03  0.00000000000E+00 0.  1.
         12    1    3    3    0    0  0.87053371930E+01 -0.26320542262E+02 -0.71560122634E+02  0.76742458860E+02  0.00000000000E+00 0. -1.
         11    1    5    5    0    0 -0.16534820235E+02 -0.26529055857E+02  0.14129338264E+03  0.14471009316E+03  0.00000000000E+00 0. -1.
        -12    1    5    5    0    0  0.66508724594E+02  0.19009657040E+01  0.26022488575E+03  0.26859637987E+03  0.00000000000E+00 0.  1.
          5    1    4    4  501    0  0.19470910014E+02 -0.36510932574E+01  0.24177383409E+01  0.20390308419E+02  0.41800000000E+01 0. -1.
         -5    1    4    4    0  501 -0.88551285854E+02  0.27743391152E+02  0.31769805550E+03  0.33099932454E+03  0.41800000000E+01 0. -1.
</event>
<event>
11    1  0.8039394E-009  0.1539165E+03  0.7561462E-02  0.1092943E+00
         22   -1    0    0    0    0  0.00000000000E+00  0.00000000000E+00  0.89239138469E+03  0.89239138469E+03  0.00000000000E+00 0. -1.
         22   -1    0    0    0    0 -0.00000000000E+00 -0.00000000000E+00 -0.91820010238E+03  0.91820010238E+03  0.00000000000E+00 0. -1.
         24    2    1    2    0    0  0.44724891019E+02 -0.75856677403E+02 -0.52667511943E+03  0.54016614288E+03  0.81475328129E+02 0.  0.
         25    2    1    2    0    0 -0.76940500070E+02  0.60922874591E+02 -0.36603963833E+03  0.39908349002E+03  0.12510466810E+03 0.  0.
        -24    2    1    2    0    0  0.32215609051E+02  0.14933802812E+02  0.86690604008E+03  0.87134185418E+03  0.80309903376E+02 0.  0.
        -11    1    3    3    0    0  0.24206081867E+02 -0.45080747184E+01 -0.34283625746E+02  0.42209289632E+02  0.00000000000E+00 0.  1.
         12    1    3    3    0    0  0.20518809152E+02 -0.71348602685E+02 -0.49239149369E+03  0.49795685324E+03  0.00000000000E+00 0. -1.
         13    1    5    5    0    0 -0.13168601127E+02  0.30947831811E+02  0.21010128245E+03  0.21277624218E+03  0.00000000000E+00 0. -1.
        -14    1    5    5    0    0  0.45384210178E+02 -0.16014028999E+02  0.65680475763E+03  0.65856561199E+03  0.00000000000E+00 0.  1.
          5    1    4    4  501    0 -0.24437830428E+02  0.84413743459E+01 -0.29528965240E+03  0.29644884140E+03  0.41800000000E+01 0.  1.
         -5    1    4    4    0  501 -0.52502669641E+02  0.52481500245E+02 -0.70749985931E+02  0.10263464862E+03  0.41800000000E+01 0.  1.
</event>
<event>
11    1  0.8039394E-009  0.1766043E+03  0.7561462E-02  0.1072423E+00
         22   -1    0    0    0    0  0.00000000000E+00  0.00000000000E+00  0.79883963549E+03  0.79883963549E+03  0.00000000000E+00 0. -1.
         22   -1    0    0    0    0 -0.00000000000E+00 -0.00000000000E+00 -0.71522199572E+02  0.71522199572E+02  0.00000000000E+00 0. -1.
        -24    2    1    2    0    0 -0.36469684811E+02  0.12115500645E+03  0.12187464650E+03  0.19392758752E+03  0.82133466030E+02 0.  0.
         25    2    1    2    0    0  0.22127694410E+02 -0.12025390981E+03  0.21047925348E+03  0.27367797675E+03  0.12508989219E+03 0.  0.
         24    2    1    2    0    0  0.14341990401E+02 -0.90109664473E+00  0.39496353594E+03  0.40275627080E+03  0.77523636898E+02 0.  0.
        -13    1    5    5    0    0  0.25303922673E+01 -0.33741931710E+02  0.96523293614E+02  0.10228229099E+03  0.00000000000E+00 0.  1.
         14    1    5    5    0    0  0.11811598133E+02  0.32840835065E+02  0.29844024233E+03  0.30047397980E+03  0.00000000000E+00 0. -1.
         11    1    3    3    0    0 -0.13507817352E+02  0.53036913889E+02  0.27556111123E+01  0.54799349969E+02  0.00000000000E+00 0. -1.
        -12    1    3    3    0    0 -0.22961867459E+02  0.68118092566E+02  0.11911903539E+03  0.13912823755E+03  0.00000000000E+00 0.  1.
          5    1    4    4  501    0  0.73600760180E+01  0.26262553473E+02  0.34393046676E+02  0.44093610575E+02  0.41800000000E+01 0.  1.
         -5    1    4    4    0  501  0.14767618392E+02 -0.14651646328E+03  0.17608620680E+03  0.22958436617E+03  0.41800000000E+01 0.  1.
</event>
<event>
11    1  0.8039394E-009  0.2055371E+03  0.7561462E-02  0.1050676E+00
         22   -1    0    0    0    0  0.00000000000E+00  0.00000000000E+00  0.17801768422E+04  0.17801768422E+04  0.00000000000E+00 0. -1.
         22   -1    0    0    0    0 -0.00000000000E+00 -0.00000000000E+00 -0.53368487282E+03  0.53368487282E+03  0.00000000000E+00 0.  1.
         24    2    1    2    0    0  0.67420804139E+02  0.15060868716E+03 -0.49878616563E+03  0.53141569944E+03  0.79915362173E+02 0.  0.
         25    2    1    2    0    0 -0.40272140233E+02 -0.10578864779E+03  0.40867756768E+03  0.44212839211E+03  0.12508827884E+03 0.  0.
        -24    2    1    2    0    0 -0.27148663906E+02 -0.44820039365E+02  0.13366005674E+04  0.13403176235E+04  0.84878556393E+02 0.  0.
        -13    1    3    3    0    0  0.73048056799E+02  0.15561422058E+03 -0.49238620649E+03  0.52153233896E+03  0.00000000000E+00 0.  1.
         14    1    3    3    0    0 -0.56272526604E+01 -0.50055334170E+01 -0.63999591438E+01  0.98833604778E+01  0.00000000000E+00 0. -1.
         11    1    5    5    0    0 -0.33210111565E+02 -0.12755605329E+02  0.11705766373E+04  0.11711171081E+04  0.00000000000E+00 0. -1.
        -12    1    5    5    0    0  0.60614476594E+01 -0.32064434036E+02  0.16602393004E+03  0.16920051543E+03  0.00000000000E+00 0.  1.
          5    1    4    4  501    0  0.13387279184E+02 -0.10871915834E+03  0.32106316100E+03  0.33926110945E+03  0.41800000000E+01 0.  1.
         -5    1    4    4    0  501 -0.53659419417E+02  0.29305105414E+01  0.87614406678E+02  0.10286728266E+03  0.41800000000E+01 0.  1.
</event>
<event>
11    1  0.8039394E-009  0.1380614E+03  0.7561462E-02  0.1109743E+00
         22   -1    0    0    0    0  0.00000000000E+00  0.00000000000E+00  0.27908810879E+04  0.27908810879E+04  0.00000000000E+00 0. -1.
         22   -1    0    0    0    0 -0.00000000000E+00 -0.00000000000E+00 -0.52260237036E+02  0.52260237036E+02  0.00000000000E+00 0.  1.
         24    2    1    2    0    0 -0.47795218837E+02  0.28801936567E+01  0.21121779331E+02  0.94194774905E+02  0.78318884045E+02 0.  0.
         25    2    1    2    0    0  0.88752649941E+02 -0.40726075753E+02  0.41644300905E+03  0.44565203251E+03  0.12508120631E+03 0.  0.
        -24    2    1    2    0    0 -0.40957431104E+02  0.37845882096E+02  0.23010560625E+04  0.23032945175E+04  0.84834013327E+02 0.  0.
        -11    1    3    3    0    0  0.36352852494E+01 -0.51746219034E+01 -0.24298548573E+02  0.25107996205E+02  0.00000000000E+00 0.  1.
         12    1    3    3    0    0 -0.51430504087E+02  0.80548155601E+01  0.45420327903E+02  0.69086778700E+02  0.00000000000E+00 0. -1.
         11    1    5    5    0    0 -0.17141480249E+01  0.56239342381E+02  0.10733635006E+04  0.10748372000E+04  0.00000000000E+00 0. -1.
        -12    1    5    5    0    0 -0.39243283079E+02 -0.18393460285E+02  0.12276925618E+04  0.12284573175E+04  0.00000000000E+00 0.  1.
          5    1    4    4  501    0  0.64280213994E+02  0.31955379275E+02  0.27991259163E+03  0.28900107877E+03  0.41800000000E+01 0.  1.
         -5    1    4    4    0  501  0.24472435948E+02 -0.72681455028E+02  0.13653041743E+03  0.15665095374E+03  0.41800000000E+01 0.  1.
</event>
<event>
11    1  0.8039394E-009  0.1689085E+03  0.7561462E-02  0.1078985E+00
         22   -1    0    0    0    0  0.00000000000E+00  0.00000000000E+00  0.11192283835E+04  0.11192283835E+04  0.00000000000E+00 0.  1.
         22   -1    0    0    0    0 -0.00000000000E+00 -0.00000000000E+00 -0.14955526966E+03  0.14955526966E+03  0.00000000000E+00 0.  1.
        -24    2    1    2    0    0  0.60066424217E+02 -0.93006680622E+02 -0.58322623103E+02  0.14933062579E+03  0.81485516968E+02 0.  0.
         25    2    1    2    0    0 -0.76456259408E+02  0.98800774954E+02  0.13787415888E+03  0.22419662137E+03  0.12509072153E+03 0.  0.
         24    2    1    2    0    0  0.16389835191E+02 -0.57940943317E+01  0.89012157806E+03  0.89525640600E+03  0.94156308993E+02 0.  0.
        -13    1    5    5    0    0  0.52566343621E+02 -0.38365599961E+01  0.67954822182E+03  0.68158911777E+03  0.00000000000E+00 0.  1.
         14    1    5    5    0    0 -0.36176508430E+02 -0.19575343356E+01  0.21057335624E+03  0.21366728823E+03  0.00000000000E+00 0. -1.
         13    1    3    3    0    0  0.65318867947E+02 -0.63398969209E+02 -0.88766834598E+01  0.91459167479E+02  0.00000000000E+00 0. -1.
        -14    1    3    3    0    0 -0.52524437294E+01 -0.29607711413E+02 -0.49445939643E+02  0.57871458315E+02  0.00000000000E+00 0.  1.
          5    1    4    4  501    0 -0.90173229673E+02  0.11167423229E+03  0.82596507381E+02  0.16565627347E+03  0.41800000000E+01 0. -1.
         -5    1    4    4    0  501  0.13716970265E+02 -0.12873457339E+02  0.55277651499E+02  0.58540347901E+02  0.41800000000E+01 0. -1.
</event>
<event>
11    1  0.8039394E-009  0.1430017E+03  0.7561462E-02  0.1104252E+00
         22   -1    0    0    0    0  0.00000000000E+00  0.00000000000E+00  0.35900687137E+03  0.35900687137E+03  0.00000000000E+00 0.  1.
         22   -1    0    0    0    0 -0.00000000000E+00 -0.00000000000E+00 -0.75152644557E+03  0.75152644557E+03  0.00000000000E+00 0.  1.
         24    2    1    2    0    0 -0.46145027679E+02 -0.23618688107E+02 -0.68013533921E+03  0.68674746390E+03  0.79691866083E+02 0.  0.
         25    2    1    2    0    0  0.10421626473E+03  0.38313414250E+02  0.70580482936E+02  0.18154704992E+03  0.12509508071E+03 0.  0.
        -24    2    1    2    0    0 -0.58071237052E+02 -0.14694726143E+02  0.21703528208E+03  0.24223880312E+03  0.89370691639E+02 0.  0.
        -11    1    3    3    0    0  0.77431866442E+00  0.67502233636E+01 -0.44533967023E+03  0.44539149854E+03  0.00000000000E+00 0.  1.
         12    1    3    3    0    0 -0.46919346343E+02 -0.30368911471E+02 -0.23479566898E+03  0.24135596536E+03  0.00000000000E+00 0. -1.
         11    1    5    5    0    0 -0.61086191089E+02 -0.75066214552E+01  0.63235835374E+02  0.88241957044E+02  0.00000000000E+00 0. -1.
        -12    1    5    5    0    0  0.30149540376E+01 -0.71881046873E+01  0.15379944670E+03  0.15399684608E+03  0.00000000000E+00 0.  1.
          5    1    4    4  501    0  0.91118110191E+02  0.35309036570E+02 -0.11305248692E+02  0.98460749115E+02  0.41800000000E+01 0. -1.
         -5    1    4    4    0  501  0.13098154540E+02  0.30043776794E+01  0.81885731627E+02  0.83086300807E+02  0.41800000000E+01 0. -1.
</event>
<event>
11    1  0.8039394E-009  0.3011816E+03  0.7561462E-02  0.9996924E-01
         22   -1    0    0    0    0  0.00000000000E+00  0.00000000000E+00  0.87724852240E+03  0.87724852240E+03  0.00000000000E+00 0. -1.
         22   -1    0    0    0    0 -0.00000000000E+00 -0.00000000000E+00 -0.10898448025E+04  0.10898448025E+04  0.00000000000E+00 0. -1.
        -24    2    1    2    0    0  0.51260584062E+02  0.26395147853E+03 -0.87729840974E+03  0.92115913351E+03  0.81139503399E+02 0.  0.
         25    2    1    2    0    0 -0.17809002512E+03 -0.28271887420E+03 -0.81210690566E+01  0.35687496429E+03  0.12509104483E+03 0.  0.
         24    2    1    2    0    0  0.12682944106E+03  0.18767395673E+02  0.67282319870E+03  0.68905922709E+03  0.75323565096E+02 0.  0.
        -11    1    5    5    0    0  0.35119378543E+02  0.26544258685E+02  0.36856099139E+03  0.37118078182E+03  0.00000000000E+00 0.  1.
         12    1    5    5    0    0  0.91710062519E+02 -0.77768630114E+01  0.30426220732E+03  0.31787844527E+03  0.00000000000E+00 0. -1.
         13    1    3    3    0    0  0.61990624561E+02  0.22874794793E+03 -0.81542318720E+03  0.84916631789E+03  0.00000000000E+00 0. -1.
        -14    1    3    3    0    0 -0.10730040500E+02  0.35203530603E+02 -0.61875222545E+02  0.71992815621E+02  0.00000000000E+00 0.  1.
          5    1    4    4  501    0 -0.15110348959E+03 -0.26878893153E+03  0.27825846507E+02  0.30963123940E+03  0.41800000000E+01 0.  1.
         -5    1    4    4    0  501 -0.26986535533E+02 -0.13929942674E+02 -0.35946915564E+02  0.47243724891E+02  0.41800000000E+01 0.  1.
</event>
<event>
11    1  0.8039394E-009  0.1268161E+03  0.7561462E-02  0.1123244E+00
         22   -1    0    0    0    0  0.00000000000E+00  0.00000000000E+00  0.51494535627E+03  0.51494535627E+03  0.00000000000E+00 0. -1.
         22   -1    0    0    0    0 -0.00000000000E+00 -0.00000000000E+00 -0.50008411840E+03  0.50008411840E+03  0.00000000000E+00 0. -1.
        -24    2    1    2    0    0  0.20267241464E+02  0.37404418395E+01 -0.47304331199E+03  0.47999819353E+03  0.78762546900E+02 0.  0.
         25    2    1    2    0    0  0.50824229502E+01 -0.86382439152E+01  0.20945790111E+03  0.24417271388E+03  0.12508897468E+03 0.  0.
         24    2    1    2    0    0 -0.25349664414E+02  0.48978020757E+01  0.27844664875E+03  0.29085856725E+03  0.79997349900E+02 0.  0.
        -13    1    5    5    0    0 -0.28580866567E+02  0.15057850902E+01  0.26930093278E+02  0.39298387326E+02  0.00000000000E+00 0.  1.
         14    1    5    5    0    0  0.32312021528E+01  0.33920169855E+01  0.25151655548E+03  0.25156017993E+03  0.00000000000E+00 0. -1.
         13    1    3    3    0    0 -0.13313601635E+02 -0.23159194969E+02 -0.31724879991E+03  0.31837148325E+03  0.00000000000E+00 0. -1.
        -14    1    3    3    0    0  0.33580843098E+02  0.26899636809E+02 -0.15579451208E+03  0.16162671029E+03  0.00000000000E+00 0.  1.
          5    1    4    4  501    0 -0.47659223089E+02  0.26997700727E+02  0.13718667196E+03  0.14777663128E+03  0.41800000000E+01 0. -1.
         -5    1    4    4    0  501  0.52741646039E+02 -0.35635944642E+02  0.72271229155E+02  0.96396082602E+02  0.41800000000E+01 0. -1.
</event>
<event>
11    1  0.8039394E-009  0.4935464E+03  0.7561462E-02  0.9408059E-01
         22   -1    0    0    0    0  0.00000000000E+00  0.00000000000E+00  0.93055729994E+03  0.93055729994E+03  0.00000000000E+00 0. -1.
         22   -1    0    0    0    0 -0.00000000000E+00 -0.00000000000E+00 -0.94869930286E+03  0.94869930286E+03  0.00000000000E+00 0. -1.
         24    2    1    2    0    0 -0.51976564439E+02  0.20044874452E+02 -0.48294804307E+02  0.10787438207E+03  0.78747278949E+02 0.  0.
         25    2    1    2    0    0  0.18749291604E+03  0.43810914133E+03 -0.72352887426E+03  0.87534831208E+03  0.12508965697E+03 0.  0.
        -24    2    1    2    0    0 -0.13551635160E+03 -0.45815401578E+03  0.75368167565E+03  0.89603390864E+03  0.81061171320E+02 0.  0.
        -11    1    3    3    0    0  0.11526916678E+02 -0.18492838415E+02 -0.15106081924E+02  0.26515063489E+02  0.00000000000E+00 0.  1.
         12    1    3    3    0    0 -0.63503481117E+02  0.38537712866E+02 -0.33188722383E+02  0.81359318583E+02  0.00000000000E+00 0. -1.
         11    1    5    5    0    0 -0.37926815900E+02 -0.12716923085E+03  0.14666512021E+03  0.19779058149E+03  0.00000000000E+00 0. -1.
        -12    1    5    5    0    0 -0.97589535704E+02 -0.33098478493E+03  0.60701655544E+03  0.69824332715E+03  0.00000000000E+00 0.  1.
          5    1    4    4  501    0  0.13955862947E+03  0.41239974764E+03 -0.61060709158E+03  0.74993910127E+03  0.41800000000E+01 0.  1.
         -5    1    4    4    0  501  0.47934286576E+02  0.25709393690E+02 -0.11292178268E+03  0.12540921081E+03  0.41800000000E+01 0.  1.
</event>
<event>
11    1  0.8039394E-009  0.2037415E+03  0.7561462E-02  0.1051909E+00
         22   -1    0    0    0    0  0.00000000000E+00  0.00000000000E+00  0.38442472414E+03  0.38442472414E+03  0.00000000000E+00 0. -1.
         22   -1    0    0    0    0 -0.00000000000E+00 -0.00000000000E+00 -0.25360410718E+03  0.25360410718E+03  0.00000000000E+00 0.  1.
        -24    2    1    2    0    0 -0.25630417586E+02 -0.15092268300E+03 -0.12001530944E+03  0.21108380117E+03  0.81964151101E+02 0.  0.
         25    2    1    2    0    0 -0.18860524586E+02  0.19954018691E+03  0.13269439205E+03  0.27097456293E+03  0.12508959386E+03 0.  0.
         24    2    1    2    0    0  0.44490942172E+02 -0.48617503906E+02  0.11814153434E+03  0.15597046722E+03  0.77628982270E+02 0.  0.
        -11    1    5    5    0    0 -0.75652784712E+01  0.92066727431E+01 -0.27279185018E+01  0.12224475477E+02  0.00000000000E+00 0.  1.
         12    1    5    5    0    0  0.52056220643E+02 -0.57824176649E+02  0.12086945284E+03  0.14374599175E+03  0.00000000000E+00 0. -1.
         13    1    3    3    0    0 -0.51512643665E+02 -0.90651482364E+02 -0.94450242016E+02  0.14068436988E+03  0.00000000000E+00 0. -1.
        -14    1    3    3    0    0  0.25882226079E+02 -0.60271200638E+02 -0.25565067425E+02  0.70399431288E+02  0.00000000000E+00 0.  1.
          5    1    4    4  501    0  0.43421638700E+02  0.64217029943E+02  0.10665878876E+02  0.78361336221E+02  0.41800000000E+01 0. -1.
         -5    1    4    4    0  501 -0.62282163286E+02  0.13532315697E+03  0.12202851318E+03  0.19261322671E+03  0.41800000000E+01 0. -1.
</event>
<event>
11    1  0.8039394E-009  0.1749547E+03  0.7561462E-02  0.1073799E+00
         22   -1    0    0    0    0  0.00000000000E+00  0.00000000000E+00  0.78798850007E+02  0.78798850007E+02  0.00000000000E+00 0. -1.
         22   -1    0    0    0    0 -0.00000000000E+00 -0.00000000000E+00 -0.10718799013E+04  0.10718799013E+04  0.00000000000E+00 0. -1.
        -24    2    1    2    0    0  0.52253296309E+02 -0.10359349454E+02 -0.59568745355E+03  0.60334222253E+03  0.79627709220E+02 0.  0.
         25    2    1    2    0    0 -0.55649100441E+02  0.12954485844E+03 -0.34596900399E+03  0.39397988246E+03  0.12508758265E+03 0.  0.
         24    2    1    2    0    0  0.33958041323E+01 -0.11918550899E+03 -0.51424593781E+02  0.15335664634E+03  0.81590778229E+02 0.  0.
        -11    1    5    5    0    0  0.37016772208E+02 -0.43960108812E+02 -0.40347507727E+02  0.70218615561E+02  0.00000000000E+00 0.  1.
         12    1    5    5    0    0 -0.33620968076E+02 -0.75225400178E+02 -0.11077086054E+02  0.83138030779E+02  0.00000000000E+00 0. -1.
         13    1    3    3    0    0  0.21213552885E+02  0.27667327134E+02 -0.40283302804E+03  0.40433889782E+03  0.00000000000E+00 0. -1.
        -14    1    3    3    0    0  0.31039743424E+02 -0.38026676588E+02 -0.19285442551E+03  0.19900332470E+03  0.00000000000E+00 0.  1.
          5    1    4    4  501    0 -0.74762098000E+02  0.97618939615E+02 -0.33191932959E+03  0.35398692409E+03  0.41800000000E+01 0. -1.
         -5    1    4    4    0  501  0.19112997559E+02  0.31925918830E+02 -0.14049674397E+02  0.39992958374E+02  0.41800000000E+01 0. -1.
</event>
<event>
11    1  0.8039394E-009  0.1393183E+03  0.7561462E-02  0.1108322E+00
         22   -1    0    0    0    0  0.00000000000E+00  0.00000000000E+00  0.19580907955E+04  0.19580907955E+04  0.00000000000E+00 0. -1.
         22   -1    0    0    0    0 -0.00000000000E+00 -0.00000000000E+00 -0.53468037563E+03  0.53468037563E+03  0.00000000000E+00 0. -1.
         24    2    1    2    0    0 -0.39165235697E+02  0.33422924712E+02 -0.41118423582E+03  0.42237888139E+03  0.81733934668E+02 0.  0.
         25    2    1    2    0    0  0.22502266558E+02  0.26170459526E+02 -0.80230223176E+02  0.15256356220E+03  0.12508999500E+03 0.  0.
        -24    2    1    2    0    0  0.16662969139E+02 -0.59593384237E+02  0.19148248789E+04  0.19178287275E+04  0.87656634188E+02 0.  0.
        -11    1    3    3    0    0 -0.34034633329E+02 -0.15392770156E+02 -0.89664742101E+02  0.97134235031E+02  0.00000000000E+00 0.  1.
         12    1    3    3    0    0 -0.51306023678E+01  0.48815694868E+02 -0.32151949371E+03  0.32524464636E+03  0.00000000000E+00 0. -1.
         13    1    5    5    0    0  0.61793202966E+01 -0.65502111138E+02  0.18766284391E+04  0.18777814061E+04  0.00000000000E+00 0. -1.
        -14    1    5    5    0    0  0.10483648843E+02  0.59087269005E+01  0.38196439741E+02  0.40047321453E+02  0.00000000000E+00 0.  1.
          5    1    4    4  501    0  0.56662538124E+02 -0.29297781637E+02 -0.32611449685E+02  0.71763377054E+02  0.41800000000E+01 0.  1.
         -5    1    4    4    0  501 -0.34160271567E+02  0.55468241163E+02 -0.47618773491E+02  0.80800185148E+02  0.41800000000E+01 0.  1.
</event>
<event>
11    1  0.8039394E-009  0.1332810E+03  0.7561462E-02  0.1115302E+00
         22   -1    0    0    0    0  0.00000000000E+00  0.00000000000E+00  0.11294475245E+04  0.11294475245E+04  0.00000000000E+00 0. -1.
         22   -1    0    0    0    0 -0.00000000000E+00 -0.00000000000E+00 -0.10777321107E+04  0.10777321107E+04  0.00000000000E+00 0.  1.
        -24    2    1    2    0    0 -0.23876877838E+02  0.40111516657E+02 -0.10400540240E+04  0.10443109310E+04  0.81816310704E+02 0.  0.
         25    2    1    2    0    0 -0.70069022410E-01 -0.98125950472E+01  0.84275175386E+02  0.15115021942E+03  0.12509113363E+03 0.  0.
         24    2    1    2    0    0  0.23946946860E+02 -0.30298921610E+02  0.10074942625E+04  0.10117184847E+04  0.83893518286E+02 0.  0.
        -11    1    5    5    0    0 -0.19621840042E+02 -0.28480054711E+01  0.68462862839E+02  0.71276162425E+02  0.00000000000E+00 0.  1.
         12    1    5    5    0    0  0.43568786903E+02 -0.27450916139E+02  0.93903139968E+03  0.94044232230E+03  0.00000000000E+00 0. -1.
         13    1    3    3    0    0  0.89146767197E+01 -0.75656688880E+00 -0.12234795865E+02  0.15156981373E+02  0.00000000000E+00 0. -1.
        -14    1    3    3    0    0 -0.32791554558E+02  0.40868083546E+02 -0.10278192282E+04  0.10291539497E+04  0.00000000000E+00 0.  1.
          5    1    4    4  501    0 -0.54929284115E+02 -0.16894395013E+02  0.10055867655E+02  0.58491364410E+02  0.41800000000E+01 0.  1.
         -5    1    4    4    0  501  0.54859215093E+02  0.70817999662E+01  0.74219307731E+02  0.92658855008E+02  0.41800000000E+01 0.  1.
</event>
<event>
11    1  0.8039394E-009  0.1433159E+03  0.7561462E-02  0.1103911E+00
         22   -1    0    0    0    0  0.00000000000E+00  0.00000000000E+00  0.66084173791E+03  0.66084173791E+03  0.00000000000E+00 0. -1.
         22   -1    0    0    0    0 -0.00000000000E+00 -0.00000000000E+00 -0.88273302578E+03  0.88273302578E+03  0.00000000000E+00 0.  1.
         24    2    1    2    0    0  0.43804532720E+02  0.58738158440E+02 -0.63300596289E+03  0.64231775776E+03  0.80663154757E+02 0.  0.
         25    2    1    2    0    0 -0.67480663819E+02 -0.14846244824E+02 -0.21976503489E+03  0.26213681269E+03  0.12507992256E+03 0.  0.
        -24    2    1    2    0    0  0.23676131099E+02 -0.43891913616E+02  0.63087970990E+03  0.63912019324E+03  0.89321631071E+02 0.  0.
        -13    1    3    3    0    0  0.43555797303E+02  0.62037088858E+02 -0.30442294500E+03  0.31371808573E+03  0.00000000000E+00 0.  1.
         14    1    3    3    0    0  0.24873541717E+00 -0.32989304182E+01 -0.32858301789E+03  0.32859967203E+03  0.00000000000E+00 0. -1.
         11    1    5    5    0    0 -0.26139549580E+02 -0.45448175645E+02  0.31549428872E+03  0.31982097951E+03  0.00000000000E+00 0. -1.
        -12    1    5    5    0    0  0.49815680679E+02  0.15562620283E+01  0.31538542119E+03  0.31929921373E+03  0.00000000000E+00 0.  1.
          5    1    4    4  501    0  0.18749523385E+02  0.62655227480E+01 -0.14382195909E+03  0.14523439578E+03  0.41800000000E+01 0.  1.
         -5    1    4    4    0  501 -0.86230187203E+02 -0.21111767571E+02 -0.75943075805E+02  0.11690241690E+03  0.41800000000E+01 0.  1.
</event>
<event>
11    1  0.8039394E-009  0.2288665E+03  0.7561462E-02  0.1035801E+00
         22   -1    0    0    0    0  0.00000000000E+00  0.00000000000E+00  0.10933612961E+04  0.10933612961E+04  0.00000000000E+00 0.  1.
         22   -1    0    0    0    0 -0.00000000000E+00 -0.00000000000E+00 -0.63933295717E+03  0.63933295717E+03  0.00000000000E+00 0. -1.
        -24    2    1    2    0    0 -0.10649683358E+02  0.19434504795E+03 -0.35290028015E+03  0.41077486944E+03  0.79460507288E+02 0.  0.
         25    2    1    2    0    0  0.10538593286E+03 -0.17218113046E+03 -0.19792963923E+03  0.30915068597E+03  0.12508184527E+03 0.  0.
         24    2    1    2    0    0 -0.94736249505E+02 -0.22163917490E+02  0.10048582583E+04  0.10127686979E+04  0.80586102204E+02 0.  0.
        -11    1    5    5    0    0 -0.96556050737E+02  0.19853093254E+01  0.89915446118E+03  0.90432613445E+03  0.00000000000E+00 0.  1.
         12    1    5    5    0    0  0.18198012315E+01 -0.24149226815E+02  0.10570379717E+03  0.10844256345E+03  0.00000000000E+00 0. -1.
         13    1    3    3    0    0 -0.99323412935E+01  0.71381016564E+02 -0.21120809343E+03  0.22316531912E+03  0.00000000000E+00 0. -1.
        -14    1    3    3    0    0 -0.71734206475E+00  0.12296403138E+03 -0.14169218672E+03  0.18760955032E+03  0.00000000000E+00 0.  1.
          5    1    4    4  501    0 -0.27237368268E+02 -0.45063629377E+02 -0.33343529090E+02  0.62464936205E+02  0.41800000000E+01 0.  1.
         -5    1    4    4    0  501  0.13262330113E+03 -0.12711750108E+03 -0.16458611014E+03  0.24668574976E+03  0.41800000000E+01 0.  1.
</event>
<event>
11    1  0.8039394E-009  0.2128312E+03  0.7561462E-02  0.1045803E+00
         22   -1    0    0    0    0  0.00000000000E+00  0.00000000000E+00  0.17627898099E+03  0.17627898099E+03  0.00000000000E+00 0.  1.
         22   -1    0    0    0    0 -0.00000000000E+00 -0.00000000000E+00 -0.17019524776E+04  0.17019524776E+04  0.00000000000E+00 0.  1.
         24    2    1    2    0    0 -0.24048731579E+02 -0.64826902385E+02 -0.14204160711E+04  0.14244105426E+04  0.81133902853E+02 0.  0.
         25    2    1    2    0    0  0.18148080022E+03  0.97843072117E+02 -0.12665774373E+03  0.27237491268E+03  0.12504943583E+03 0.  0.
        -24    2    1    2    0    0 -0.15743206864E+03 -0.33016169732E+02  0.21400318200E+02  0.18144600328E+03  0.81177304638E+02 0.  0.
        -13    1    3    3    0    0  0.22167897426E+02 -0.54565130294E+02 -0.84519634138E+03  0.84724590563E+03  0.00000000000E+00 0.  1.
         14    1    3    3    0    0 -0.46216629005E+02 -0.10261772091E+02 -0.57521972970E+03  0.57716463699E+03  0.00000000000E+00 0. -1.
         11    1    5    5    0    0 -0.26879567770E+02 -0.35509349576E+00 -0.27314863470E+02  0.38324131057E+02  0.00000000000E+00 0. -1.
        -12    1    5    5    0    0 -0.13055250087E+03 -0.32661076236E+02  0.48715181670E+02  0.14312187222E+03  0.00000000000E+00 0.  1.
          5    1    4    4  501    0  0.12649453066E+03 -0.17533499308E+01 -0.56196706647E+02  0.13849000960E+03  0.41800000000E+01 0. -1.
         -5    1    4    4    0  501  0.54986269558E+02  0.99596422048E+02 -0.70461037080E+02  0.13388490307E+03  0.41800000000E+01 0. -1.
</event>
<event>
11    1  0.8039394E-009  0.1933619E+03  0.7561462E-02  0.1059320E+00
         22   -1    0    0    0    0  0.00000000000E+00  0.00000000000E+00  0.67502025062E+03  0.67502025062E+03  0.00000000000E+00 0. -1.
         22   -1    0    0    0    0 -0.00000000000E+00 -0.00000000000E+00 -0.74687251366E+03  0.74687251366E+03  0.00000000000E+00 0.  1.
         24    2    1    2    0    0 -0.12694109517E+03 -0.37894897140E+02 -0.26959476622E+03  0.31056848173E+03  0.78875718695E+02 0.  0.
         25    2    1    2    0    0  0.11307341729E+03  0.14733352002E+03 -0.42144247196E+03  0.47722254268E+03  0.12503933083E+03 0.  0.
        -24    2    1    2    0    0  0.13867677878E+02 -0.10943862288E+03  0.61918497513E+03  0.63410173987E+03  0.80782785388E+02 0.  0.
        -13    1    3    3    0    0 -0.10289609600E+03 -0.49684047188E+02 -0.15311855277E+03  0.19105340175E+03  0.00000000000E+00 0.  1.
         14    1    3    3    0    0 -0.24044999170E+02  0.11789150048E+02 -0.11647621345E+03  0.11951507998E+03  0.00000000000E+00 0. -1.
         11    1    5    5    0    0 -0.26188427304E+02 -0.80310821130E+02  0.32619582588E+03  0.33695604838E+03  0.00000000000E+00 0. -1.
        -12    1    5    5    0    0  0.40056105182E+02 -0.29127801752E+02  0.29298914925E+03  0.29714569149E+03  0.00000000000E+00 0.  1.
          5    1    4    4  501    0  0.55391316461E+02  0.31524663302E+02 -0.42342069997E+02  0.76631100913E+02  0.41800000000E+01 0.  1.
         -5    1    4    4    0  501  0.57682100830E+02  0.11580885672E+03 -0.37910040196E+03  0.40059144177E+03  0.41800000000E+01 0.  1.
</event>
<event>
11    1  0.8039394E-009  0.1268397E+03  0.7561462E-02  0.1123214E+00
         22   -1    0    0    0    0  0.00000000000E+00  0.00000000000E+00  0.14806111889E+04  0.14806111889E+04  0.00000000000E+00 0. -1.
         22   -1    0    0    0    0 -0.00000000000E+00 -0.00000000000E+00 -0.11569959386E+03  0.11569959386E+03  0.00000000000E+00 0. -1.
         24    2    1    2    0    0 -0.59302864139E+01  0.23830931814E+01 -0.86055799440E+02  0.11895205193E+03  0.81872722024E+02 0.  0.
         25    2    1    2    0    0  0.16866560593E+02  0.15461507249E+02  0.33576808553E+03  0.35903785413E+03  0.12507771332E+03 0.  0.
        -24    2    1    2    0    0 -0.10936274180E+02 -0.17844600431E+02  0.11151993090E+04  0.11183208767E+04  0.80833487408E+02 0.  0.
        -11    1    3    3    0    0 -0.19130355414E+02 -0.35682826762E+02 -0.53848780519E+02  0.67371550282E+02  0.00000000000E+00 0.  1.
         12    1    3    3    0    0  0.13200069000E+02  0.38065919944E+02 -0.32207018921E+02  0.51580501651E+02  0.00000000000E+00 0. -1.
         13    1    5    5    0    0  0.28930871885E+02 -0.17884862109E+02  0.78291989461E+03  0.78365835988E+03  0.00000000000E+00 0. -1.
        -14    1    5    5    0    0 -0.39867146065E+02  0.40261678075E-01  0.33227941438E+03  0.33466251684E+03  0.00000000000E+00 0.  1.
          5    1    4    4  501    0  0.63510768073E+02  0.43749970886E+01  0.27064026606E+03  0.27805823900E+03  0.41800000000E+01 0.  1.
         -5    1    4    4    0  501 -0.46644207480E+02  0.11086510161E+02  0.65127819460E+02  0.80979615130E+02  0.41800000000E+01 0.  1.
</event>
<event>
11    1  0.8039394E-009  0.4060844E+03  0.7561462E-02  0.9631974E-01
         22   -1    0    0    0    0  0.00000000000E+00  0.00000000000E+00  0.16072515194E+03  0.16072515194E+03  0.00000000000E+00 0. -1.
         22   -1    0    0    0    0 -0.00000000000E+00 -0.00000000000E+00 -0.17031907785E+04  0.17031907785E+04  0.00000000000E+00 0. -1.
        -24    2    1    2    0    0 -0.37904608453E+03 -0.13058604350E+02 -0.11540654070E+04  0.12174562374E+04  0.80537350931E+02 0.  0.
         25    2    1    2    0    0  0.41081388687E+03  0.18700037395E+02 -0.30239906360E+03  0.52555666404E+03  0.12508745902E+03 0.  0.
         24    2    1    2    0    0 -0.31767802343E+02 -0.56414330454E+01 -0.86001155911E+02  0.12090302901E+03  0.78615040368E+02 0.  0.
        -11    1    5    5    0    0  0.10343678167E+02 -0.28875984223E+02 -0.57030743089E+02  0.64755847613E+02  0.00000000000E+00 0.  1.
         12    1    5    5    0    0 -0.42111480511E+02  0.23234551177E+02 -0.28970412823E+02  0.56147181393E+02  0.00000000000E+00 0. -1.
         13    1    3    3    0    0 -0.25042564172E+03 -0.23553737723E+01 -0.63537503679E+03  0.68294947631E+03  0.00000000000E+00 0. -1.
        -14    1    3    3    0    0 -0.12862044281E+03 -0.10703230577E+02 -0.51869037023E+03  0.53450676107E+03  0.00000000000E+00 0.  1.
          5    1    4    4  501    0  0.34613325333E+03  0.44499667608E+02 -0.20184104798E+03  0.40316960517E+03  0.41800000000E+01 0. -1.
         -5    1    4    4    0  501  0.64680633535E+02 -0.25799630213E+02 -0.10055801562E+03  0.12238705887E+03  0.41800000000E+01 0. -1.
</event>
<event>
11    1  0.8039394E-009  0.1644205E+03  0.7561462E-02  0.1082992E+00
         22   -1    0    0    0    0  0.00000000000E+00  0.00000000000E+00  0.11040921430E+04  0.11040921430E+04  0.00000000000E+00 0.  1.
         22   -1    0    0    0    0 -0.00000000000E+00 -0.00000000000E+00 -0.41673095649E+03  0.41673095649E+03  0.00000000000E+00 0. -1.
        -24    2    1    2    0    0  0.59767008802E+02  0.90649356220E+02 -0.31957641895E+03  0.34609431996E+03  0.76568855512E+02 0.  0.
         25    2    1    2    0    0 -0.68467708767E+02 -0.69280483267E+02 -0.30740720006E+01  0.15856662484E+03  0.12508521931E+03 0.  0.
         24    2    1    2    0    0  0.87006999647E+01 -0.21368872953E+02  0.10100116774E+04  0.10161621547E+04  0.10922273176E+03 0.  0.
        -11    1    5    5    0    0  0.88729602060E+01 -0.63534638823E+02  0.75160932392E+03  0.75434206800E+03  0.00000000000E+00 0.  1.
         12    1    5    5    0    0 -0.17226024134E+00  0.42165765870E+02  0.25840235352E+03  0.26182008668E+03  0.00000000000E+00 0. -1.
         11    1    3    3    0    0  0.24106596528E+02  0.47775847952E+02 -0.25596886421E+03  0.26150280895E+03  0.00000000000E+00 0. -1.
        -12    1    3    3    0    0  0.35660412274E+02  0.42873508268E+02 -0.63607554740E+02  0.84591511009E+02  0.00000000000E+00 0.  1.
          5    1    4    4  501    0  0.16054397939E+02  0.78849451760E+01 -0.35128072062E+02  0.39640508326E+02  0.41800000000E+01 0. -1.
         -5    1    4    4    0  501 -0.84522106706E+02 -0.77165428443E+02  0.32054000061E+02  0.11892611651E+03  0.41800000000E+01 0. -1.
</event>
<event>
11    1  0.8039394E-009  0.2019133E+03  0.7561462E-02  0.1053179E+00
         22   -1    0    0    0    0  0.00000000000E+00  0.00000000000E+00  0.77915035719E+03  0.77915035719E+03  0.00000000000E+00 0.  1.
         22   -1    0    0    0    0 -0.00000000000E+00 -0.00000000000E+00 -0.34799424267E+03  0.34799424267E+03  0.00000000000E+00 0. -1.
         24    2    1    2    0    0  0.15085700636E+03 -0.39193567512E+02 -0.27185805067E+03  0.32350145789E+03  0.80326965859E+02 0.  0.
         25    2    1    2    0    0 -0.19961316807E+03 -0.12409813276E+02  0.27521705473E+03  0.36247973601E+03  0.12509081292E+03 0.  0.
        -24    2    1    2    0    0  0.48756161712E+02  0.51603380787E+02  0.42779711046E+03  0.44116340595E+03  0.81084590497E+02 0.  0.
        -11    1    3    3    0    0  0.55699980936E+02  0.80778139160E+01 -0.41846594299E+02  0.70134701884E+02  0.00000000000E+00 0.  1.
         12    1    3    3    0    0  0.95157025421E+02 -0.47271381428E+02 -0.23001145637E+03  0.25336675601E+03  0.00000000000E+00 0. -1.
         13    1    5    5    0    0  0.30193718782E+02  0.68908126422E+02  0.23617478722E+03  0.24786795004E+03  0.00000000000E+00 0. -1.
        -14    1    5    5    0    0  0.18562442930E+02 -0.17304745634E+02  0.19162232324E+03  0.19329545591E+03  0.00000000000E+00 0.  1.
          5    1    4    4  501    0 -0.67603379934E+02 -0.13312088925E+02  0.19753804779E+03  0.20925147888E+03  0.41800000000E+01 0.  1.
         -5    1    4    4    0  501 -0.13200978813E+03  0.90227564871E+00  0.77679006936E+02  0.15322825713E+03  0.41800000000E+01 0.  1.
</event>
<event>
11    1  0.8039394E-009  0.1639202E+03  0.7561462E-02  0.1083447E+00
         22   -1    0    0    0    0  0.00000000000E+00  0.00000000000E+00  0.58683859856E+03  0.58683859856E+03  0.00000000000E+00 0.  1.
         22   -1    0    0    0    0 -0.00000000000E+00 -0.00000000000E+00 -0.42638733496E+03  0.42638733496E+03  0.00000000000E+00 0. -1.
        -24    2    1    2    0    0  0.65517175108E+02  0.26929376116E+02 -0.33811755270E+03  0.35467995035E+03  0.80353569946E+02 0.  0.
         25    2    1    2    0    0 -0.87301157097E+02 -0.12582811273E+03  0.66280980626E+02  0.20855433244E+03  0.12509010833E+03 0.  0.
         24    2    1    2    0    0  0.21783981989E+02  0.98898736613E+02  0.43228783568E+03  0.44999165073E+03  0.73240773303E+02 0.  0.
        -13    1    5    5    0    0  0.11374708031E+01  0.10338613656E+03  0.37237973570E+03  0.38646688685E+03  0.00000000000E+00 0.  1.
         14    1    5    5    0    0  0.20646511186E+02 -0.44873999487E+01  0.59908099980E+02  0.63524763877E+02  0.00000000000E+00 0. -1.
         11    1    3    3    0    0  0.70698960565E+02 -0.42527831533E+01 -0.27650406322E+03  0.28543112333E+03  0.00000000000E+00 0. -1.
        -12    1    3    3    0    0 -0.51817854570E+01  0.31182159269E+02 -0.61613489484E+02  0.69248827020E+02  0.00000000000E+00 0.  1.
          5    1    4    4  501    0 -0.96697096968E+02 -0.13880605604E+03  0.79882268149E+02  0.18712589057E+03  0.41800000000E+01 0. -1.
         -5    1    4    4    0  501  0.93959398704E+01  0.12977943315E+02 -0.13601287523E+02  0.21428441871E+02  0.41800000000E+01 0. -1.
</event>
<event>
11    1  0.8039394E-009  0.1493422E+03  0.7561462E-02  0.1097553E+00
         22   -1    0    0    0    0  0.00000000000E+00  0.00000000000E+00  0.15853278292E+04  0.15853278292E+04  0.00000000000E+00 0.  1.
         22   -1    0    0    0    0 -0.00000000000E+00 -0.00000000000E+00 -0.59019081152E+03  0.59019081152E+03  0.00000000000E+00 0. -1.
        -24    2    1    2    0    0 -0.99524219005E+01 -0.24786435401E+02 -0.50051746467E+03  0.50761977685E+03  0.80291265526E+02 0.  0.
         25    2    1    2    0    0  0.90244535855E+02  0.37153013183E+02 -0.89863534380E+01  0.15890953814E+03  0.12508822536E+03 0.  0.
         24    2    1    2    0    0 -0.80292113954E+02 -0.12366577781E+02  0.15046408358E+04  0.15089893258E+04  0.80653485044E+02 0.  0.
        -13    1    5    5    0    0 -0.60762537838E+02 -0.45434734508E+02  0.10402872109E+04  0.10430502779E+04  0.00000000000E+00 0.  1.
         14    1    5    5    0    0 -0.19529576117E+02  0.33068156727E+02  0.46435362494E+03  0.46593904787E+03  0.00000000000E+00 0. -1.
         11    1    3    3    0    0 -0.32937714869E+02 -0.43769775871E+02 -0.31784244676E+03  0.32252830465E+03  0.00000000000E+00 0. -1.
        -12    1    3    3    0    0  0.22985292969E+02  0.18983340470E+02 -0.18267501792E+03  0.18509147219E+03  0.00000000000E+00 0.  1.
          5    1    4    4  501    0  0.10399932064E+02 -0.34642246641E+02 -0.32617800312E+02  0.48883914905E+02  0.41800000000E+01 0.  1.
         -5    1    4    4    0  501  0.79844603791E+02  0.71795259823E+02  0.23631446874E+02  0.11002562324E+03  0.41800000000E+01 0.  1.
</event>
<event>
11    1  0.8039394E-009  0.2111585E+03  0.7561462E-02  0.1046902E+00
         22   -1    0    0    0    0  0.00000000000E+00  0.00000000000E+00  0.56236036876E+03  0.56236036876E+03  0.00000000000E+00 0. -1.
         22   -1    0    0    0    0 -0.00000000000E+00 -0.00000000000E+00 -0.29503113378E+03  0.29503113378E+03  0.00000000000E+00 0.  1.
        -24    2    1    2    0    0 -0.40952033091E+02 -0.45579109633E+01 -0.10838979705E+03  0.14136959502E+03  0.80865139134E+02 0.  0.
         25    2    1    2    0    0  0.17600782166E+03 -0.93202019780E+02 -0.60011594985E+02  0.24272231748E+03  0.12508941640E+03 0.  0.
         24    2    1    2    0    0 -0.13505578857E+03  0.97759930743E+02  0.43573062701E+03  0.47329959003E+03  0.79713565497E+02 0.  0.
        -13    1    5    5    0    0  0.13322163366E+01 -0.10170494518E+02  0.34521315524E+02  0.36012983556E+02  0.00000000000E+00 0.  1.
         14    1    5    5    0    0 -0.13638800490E+03  0.10793042526E+03  0.40120931149E+03  0.43728660648E+03  0.00000000000E+00 0. -1.
         13    1    3    3    0    0 -0.51143200751E+01 -0.38871744788E+02 -0.33689422560E+02  0.51692804191E+02  0.00000000000E+00 0. -1.
        -14    1    3    3    0    0 -0.35837713016E+02  0.34313833825E+02 -0.74700374486E+02  0.89676790834E+02  0.00000000000E+00 0.  1.
          5    1    4    4  501    0  0.61622064271E+02 -0.28519518338E+02 -0.85023494479E+02  0.10889035194E+03  0.41800000000E+01 0. -1.
         -5    1    4    4    0  501  0.11438575739E+03 -0.64682501442E+02  0.25011899495E+02  0.13383196555E+03  0.41800000000E+01 0. -1.
</event>
<event>
11    1  0.8039394E-009  0.1910591E+03  0.7561462E-02  0.1061033E+00
         22   -1    0    0    0    0  0.00000000000E+00  0.00000000000E+00  0.85962549551E+03  0.85962549551E+03  0.00000000000E+00 0.  1.
         22   -1    0    0    0    0 -0.00000000000E+00 -0.00000000000E+00 -0.96333364431E+02  0.96333364431E+02  0.00000000000E+00 0. -1.
         24    2    1    2    0    0 -0.17915345894E+03 -0.11892980903E+03  0.24624240830E+03  0.33719963654E+03  0.82631773018E+02 0.  0.
         25    2    1    2    0    0  0.51233649142E+02  0.91931737344E+02  0.15464324395E+03  0.22502859221E+03  0.12508798215E+03 0.  0.
        -24    2    1    2    0    0  0.12791980979E+03  0.26998071684E+02  0.36240647883E+03  0.39373063119E+03  0.81197170070E+02 0.  0.
        -11    1    3    3    0    0 -0.77945511143E+02 -0.30885570994E+02  0.15088967571E+03  0.17261840990E+03  0.00000000000E+00 0.  1.
         12    1    3    3    0    0 -0.10120794779E+03 -0.88044238034E+02  0.95352732594E+02  0.16458122664E+03  0.00000000000E+00 0. -1.
         13    1    5    5    0    0 -0.25765282766E+00  0.25218612085E+02  0.48677876062E+02  0.54823173917E+02  0.00000000000E+00 0. -1.
        -14    1    5    5    0    0  0.12817746262E+03  0.17794595994E+01  0.31372860276E+03  0.33890745727E+03  0.00000000000E+00 0.  1.
          5    1    4    4  501    0 -0.36974721331E+02  0.25709402003E+02  0.79611868499E+02  0.91562139417E+02  0.41800000000E+01 0.  1.
         -5    1    4    4    0  501  0.88208370473E+02  0.66222335341E+02  0.75031375451E+02  0.13346645279E+03  0.41800000000E+01 0.  1.
</event>
<event>
11    1  0.8039394E-009  0.2044735E+03  0.7561462E-02  0.1051405E+00
         22   -1    0    0    0    0  0.00000000000E+00  0.00000000000E+00  0.66318547768E+03  0.66318547768E+03  0.00000000000E+00 0. -1.
         22   -1    0    0    0    0 -0.00000000000E+00 -0.00000000000E+00 -0.19993680655E+04  0.19993680655E+04  0.00000000000E+00 0.  1.
         24    2    1    2    0    0  0.79905689569E+02 -0.14096252379E+03 -0.19490966844E+04  0.19575368478E+04  0.81958970698E+02 0.  0.
         25    2    1    2    0    0 -0.56343126306E+02  0.13654386487E+03  0.17823129192E+03  0.26312176628E+03  0.12509154869E+03 0.  0.
        -24    2    1    2    0    0 -0.23562563263E+02  0.44186589145E+01  0.43468280468E+03  0.44189492911E+03  0.75810743023E+02 0.  0.
        -11    1    3    3    0    0  0.63137674639E+02 -0.11560970141E+03 -0.18259105151E+04  0.18306559421E+04  0.00000000000E+00 0.  1.
         12    1    3    3    0    0  0.16768014930E+02 -0.25352822374E+02 -0.12318616924E+03  0.12688090565E+03  0.00000000000E+00 0. -1.
         13    1    5    5    0    0 -0.47075314624E+01 -0.10991817500E+02  0.39603248758E+03  0.39621296310E+03  0.00000000000E+00 0. -1.
        -14    1    5    5    0    0 -0.18855031801E+02  0.15410476414E+02  0.38650317098E+02  0.45681966018E+02  0.00000000000E+00 0.  1.
          5    1    4    4  501    0 -0.13402739045E+02 -0.17171754929E+02  0.61404253284E+02  0.65287497292E+02  0.41800000000E+01 0.  1.
         -5    1    4    4    0  501 -0.42940387261E+02  0.15371561980E+03  0.11682703864E+03  0.19783426899E+03  0.41800000000E+01 0.  1.
</event>
<event>
11    1  0.8039394E-009  0.1724379E+03  0.7561462E-02  0.1075929E+00
         22   -1    0    0    0    0  0.00000000000E+00  0.00000000000E+00  0.31222098484E+03  0.31222098484E+03  0.00000000000E+00 0. -1.
         22   -1    0    0    0    0 -0.00000000000E+00 -0.00000000000E+00 -0.64491780762E+03  0.64491780762E+03  0.00000000000E+00 0.  1.
         24    2    1    2    0    0 -0.22145749446E+02 -0.88595279825E+02 -0.52128356608E+03  0.53529291257E+03  0.80388980340E+02 0.  0.
         25    2    1    2    0    0 -0.69991449295E+01  0.18568234420E+03  0.45533756432E+02  0.22857772898E+03  0.12509010445E+03 0.  0.
        -24    2    1    2    0    0  0.29144894376E+02 -0.97087064379E+02  0.14305298686E+03  0.19326815091E+03  0.81320957759E+02 0.  0.
        -13    1    3    3    0    0 -0.16041896945E+02 -0.95625804498E+02 -0.51502857637E+03  0.52407639846E+03  0.00000000000E+00 0.  1.
         14    1    3    3    0    0 -0.61038525013E+01  0.70305246729E+01 -0.62549897016E+01  0.11216514106E+02  0.00000000000E+00 0. -1.
         11    1    5    5    0    0 -0.25328903587E+02 -0.29361775238E+02  0.68705619603E+02  0.78893151586E+02  0.00000000000E+00 0. -1.
        -12    1    5    5    0    0  0.54473797963E+02 -0.67725289141E+02  0.74347367253E+02  0.11437499933E+03  0.00000000000E+00 0.  1.
          5    1    4    4  501    0 -0.55811789964E+02  0.11614434395E+03  0.60151865417E+02  0.14226800007E+03  0.41800000000E+01 0. -1.
         -5    1    4    4    0  501  0.48812645034E+02  0.69538000250E+02 -0.14618108984E+02  0.86309728909E+02  0.41800000000E+01 0. -1.
</event>
<event>
11    1  0.8039394E-009  0.2563127E+03  0.7561462E-02  0.1020589E+00
         22   -1    0    0    0    0  0.00000000000E+00  0.00000000000E+00  0.77020844307E+03  0.77020844307E+03  0.00000000000E+00 0. -1.
         22   -1    0    0    0    0 -0.00000000000E+00 -0.00000000000E+00 -0.15663597014E+04  0.15663597014E+04  0.00000000000E+00 0. -1.
         24    2    1    2    0    0  0.20222755900E+03  0.98998659416E+02 -0.13394880380E+04  0.13606918979E+04  0.80978496719E+02 0.  0.
         25    2    1    2    0    0 -0.21689735796E+03 -0.40107824338E+02 -0.13698275214E+03  0.28821065734E+03  0.12509199477E+03 0.  0.
        -24    2    1    2    0    0  0.14669798964E+02 -0.58890835078E+02  0.68031953182E+03  0.68766558919E+03  0.79786989624E+02 0.  0.
        -13    1    3    3    0    0  0.60560338867E+02  0.73499370842E+02 -0.55269581811E+03  0.56084077911E+03  0.00000000000E+00 0.  1.
         14    1    3    3    0    0  0.14166722013E+03  0.25499288574E+02 -0.78679221992E+03  0.79985111884E+03  0.00000000000E+00 0. -1.
         11    1    5    5    0    0  0.22266765990E+02 -0.10621415513E+02  0.50672095337E+03  0.50732114870E+03  0.00000000000E+00 0. -1.
        -12    1    5    5    0    0 -0.75969670259E+01 -0.48269419564E+02  0.17359857846E+03  0.18034444049E+03  0.00000000000E+00 0.  1.
          5    1    4    4  501    0 -0.18585532465E+03 -0.67236557275E+02 -0.70521290941E+02  0.20988968820E+03  0.41800000000E+01 0. -1.
         -5    1    4    4    0  501 -0.31042033312E+02  0.27128732937E+02 -0.66461461197E+02  0.78320969142E+02  0.41800000000E+01 0. -1.
</event>
<event>
11    1  0.8039394E-009  0.1604152E+03  0.7561462E-02  0.1086687E+00
         22   -1    0    0    0    0  0.00000000000E+00  0.00000000000E+00  0.62284266908E+03  0.62284266908E+03  0.00000000000E+00 0.  1.
         22   -1    0    0    0    0 -0.00000000000E+00 -0.00000000000E+00 -0.26909706660E+03  0.26909706660E+03  0.00000000000E+00 0.  1.
        -24    2    1    2    0    0  0.43212251704E+02 -0.29318994634E+02 -0.17704287133E+03  0.20028204861E+03  0.77729135867E+02 0.  0.
         25    2    1    2    0    0 -0.62741473802E+01  0.12116441384E+03  0.35281502272E+02  0.17779844825E+03  0.12508926289E+03 0.  0.
         24    2    1    2    0    0 -0.36938104324E+02 -0.91845419204E+02  0.49550697154E+03  0.51385923883E+03  0.93403179289E+02 0.  0.
        -11    1    5    5    0    0 -0.47973350104E+02 -0.88788508175E+02  0.27297705261E+03  0.29103489955E+03  0.00000000000E+00 0.  1.
         12    1    5    5    0    0  0.11035245780E+02 -0.30569110295E+01  0.22252991893E+03  0.22282433928E+03  0.00000000000E+00 0. -1.
         13    1    3    3    0    0  0.54766154611E+02 -0.43143656542E+01 -0.65989421549E+02  0.85863549882E+02  0.00000000000E+00 0. -1.
        -14    1    3    3    0    0 -0.11553902907E+02 -0.25004628980E+02 -0.11105344978E+03  0.11441849873E+03  0.00000000000E+00 0.  1.
          5    1    4    4  501    0  0.11878778681E+02 -0.13417296806E+02 -0.23428897840E+02  0.29791188136E+02  0.41800000000E+01 0.  1.
         -5    1    4    4    0  501 -0.18152926062E+02  0.13458171065E+03  0.58710400112E+02  0.14800726011E+03  0.41800000000E+01 0.  1.
</event>
<event>
11    1  0.8039394E-009  0.1399017E+03  0.7561462E-02  0.1107668E+00
         22   -1    0    0    0    0  0.00000000000E+00  0.00000000000E+00  0.24017484435E+03  0.24017484435E+03  0.00000000000E+00 0. -1.
         22   -1    0    0    0    0 -0.00000000000E+00 -0.00000000000E+00 -0.39059298102E+03  0.39059298102E+03  0.00000000000E+00 0.  1.
         24    2    1    2    0    0  0.20000550544E+02  0.59655059348E+02 -0.32158017587E+03  0.33700823999E+03  0.78752753461E+02 0.  0.
         25    2    1    2    0    0 -0.14301158610E+02 -0.57642023190E+02  0.49037236293E+02  0.14689958789E+03  0.12509081662E+03 0.  0.
        -24    2    1    2    0    0 -0.56993919338E+01 -0.20130361588E+01  0.12212480291E+03  0.14685999750E+03  0.81344059379E+02 0.  0.
        -13    1    3    3    0    0  0.32642340409E+01  0.61346554605E+01 -0.22662279793E+03  0.22672931386E+03  0.00000000000E+00 0.  1.
         14    1    3    3    0    0  0.16736316503E+02  0.53520403888E+02 -0.94957377942E+02  0.11027892613E+03  0.00000000000E+00 0. -1.
         13    1    5    5    0    0 -0.28906432999E+02 -0.26843077221E+02  0.96635684243E+02  0.10437714373E+03  0.00000000000E+00 0. -1.
        -14    1    5    5    0    0  0.23207041066E+02  0.24830041062E+02  0.25489118670E+02  0.42482853773E+02  0.00000000000E+00 0.  1.
          5    1    4    4  501    0  0.17473260559E+02  0.17437965690E+02 -0.25944814885E+02  0.36055558536E+02  0.41800000000E+01 0. -1.
         -5    1    4    4    0  501 -0.31774419169E+02 -0.75079988879E+02  0.74982051178E+02  0.11084402935E+03  0.41800000000E+01 0. -1.
</event>
<event>
11    1  0.8039394E-009  0.2113506E+03  0.7561462E-02  0.1046775E+00
         22   -1    0    0    0    0  0.00000000000E+00  0.00000000000E+00  0.10411783591E+04  0.10411783591E+04  0.00000000000E+00 0. -1.
         22   -1    0    0    0    0 -0.00000000000E+00 -0.00000000000E+00 -0.20789390149E+03  0.20789390149E+03  0.00000000000E+00 0. -1.
        -24    2    1    2    0    0  0.56582210689E+02 -0.10786735782E+03  0.32846093084E+02  0.15034535374E+03  0.81779863728E+02 0.  0.
         25    2    1    2    0    0  0.61370474437E+02  0.22687905912E+03 -0.10743320312E+02  0.26646390838E+03  0.12508858038E+03 0.  0.
         24    2    1    2    0    0 -0.11795268513E+03 -0.11901170130E+03  0.81118168486E+03  0.83226299849E+03  0.81051538110E+02 0.  0.
        -13    1    5    5    0    0 -0.59953293973E+02 -0.20771298684E+02  0.42067546542E+03  0.42543353361E+03  0.00000000000E+00 0.  1.
         14    1    5    5    0    0 -0.57999391153E+02 -0.98240402612E+02  0.39050621943E+03  0.40682946488E+03  0.00000000000E+00 0. -1.
         13    1    3    3    0    0  0.77275045337E+02 -0.76126904458E+02  0.19762875686E+02  0.11026018987E+03  0.00000000000E+00 0. -1.
        -14    1    3    3    0    0 -0.20692834648E+02 -0.31740453363E+02  0.13083217398E+02  0.40085163875E+02  0.00000000000E+00 0.  1.
          5    1    4    4  501    0  0.28558942989E+02 -0.35091814606E+01  0.14241458179E+02  0.32376212104E+02  0.41800000000E+01 0.  1.
         -5    1    4    4    0  501  0.32811531448E+02  0.23038824058E+03 -0.24984778491E+02  0.23408769628E+03  0.41800000000E+01 0.  1.
</event>
<event>
11    1  0.8039394E-009  0.1316029E+03  0.7561462E-02  0.1117315E+00
         22   -1    0    0    0    0  0.00000000000E+00  0.00000000000E+00  0.46423906127E+03  0.46423906127E+03  0.00000000000E+00 0. -1.
         22   -1    0    0    0    0 -0.00000000000E+00 -0.00000000000E+00 -0.22368874244E+03  0.22368874244E+03  0.00000000000E+00 0. -1.
         24    2    1    2    0    0 -0.23034428102E+02  0.25140595880E+02 -0.15567203010E+03  0.17831832857E+03  0.80006317933E+02 0.  0.
         25    2    1    2    0    0  0.53295420979E+02 -0.47238195835E+02  0.50633924584E+02  0.15260016953E+03  0.12510462973E+03 0.  0.
        -24    2    1    2    0    0 -0.30260992876E+02  0.22097599955E+02  0.34558842435E+03  0.35700930561E+03  0.81364941038E+02 0.  0.
        -11    1    3    3    0    0 -0.19745229898E+02  0.54184527727E+02 -0.10663868767E+03  0.12123385194E+03  0.00000000000E+00 0.  1.
         12    1    3    3    0    0 -0.32891982047E+01 -0.29043931847E+02 -0.49033342435E+02  0.57084476632E+02  0.00000000000E+00 0. -1.
         11    1    5    5    0    0 -0.16180391955E+02 -0.21055661146E+02  0.24757416978E+03  0.24899420775E+03  0.00000000000E+00 0. -1.
        -12    1    5    5    0    0 -0.14080600921E+02  0.43153261101E+02  0.98014254572E+02  0.10801509786E+03  0.00000000000E+00 0.  1.
          5    1    4    4  501    0 -0.14547160660E+02 -0.38133073948E+02 -0.26922970070E+02  0.49072089108E+02  0.41800000000E+01 0.  1.
         -5    1    4    4    0  501  0.67842581639E+02 -0.91051218868E+01  0.77556894654E+02  0.10352808042E+03  0.41800000000E+01 0.  1.
</event>
<event>
11    1  0.8039394E-009  0.2202026E+03  0.7561462E-02  0.1041091E+00
         22   -1    0    0    0    0  0.00000000000E+00  0.00000000000E+00  0.37443739179E+03  0.37443739179E+03  0.00000000000E+00 0. -1.
         22   -1    0    0    0    0 -0.00000000000E+00 -0.00000000000E+00 -0.20641039550E+04  0.20641039550E+04  0.00000000000E+00 0.  1.
        -24    2    1    2    0    0  0.47696960960E+01  0.12407290473E+02 -0.15185839782E+04  0.15208359227E+04  0.81657297011E+02 0.  0.
         25    2    1    2    0    0  0.16060670386E+03 -0.86420655540E+02 -0.49255637519E+03  0.53992850720E+03  0.12509183474E+03 0.  0.
         24    2    1    2    0    0 -0.16537639996E+03  0.74013365066E+02  0.32147379019E+03  0.37777691686E+03  0.80886768128E+02 0.  0.
        -11    1    5    5    0    0 -0.19100084729E+02 -0.17149391396E+02  0.34158246877E+02  0.42728218914E+02  0.00000000000E+00 0.  1.
         12    1    5    5    0    0 -0.14627631523E+03  0.91162756462E+02  0.28731554331E+03  0.33504869794E+03  0.00000000000E+00 0. -1.
         11    1    3    3    0    0 -0.27028781817E+02  0.30207406139E+02 -0.51590296989E+03  0.51749291471E+03  0.00000000000E+00 0. -1.
        -12    1    3    3    0    0  0.31798477913E+02 -0.17800115666E+02 -0.10026810083E+04  0.10033430080E+04  0.00000000000E+00 0.  1.
          5    1    4    4  501    0  0.77285215556E+02 -0.19349663389E+02 -0.77260302932E+02  0.11105872692E+03  0.41800000000E+01 0.  1.
         -5    1    4    4    0  501  0.83321488307E+02 -0.67070992150E+02 -0.41529607226E+03  0.42886978027E+03  0.41800000000E+01 0.  1.
</event>
<event>
11    1  0.8039394E-009  0.1464970E+03  0.7561462E-02  0.1100513E+00
         22   -1    0    0    0    0  0.00000000000E+00  0.00000000000E+00  0.53213812442E+03  0.53213812442E+03  0.00000000000E+00 0. -1.
         22   -1    0    0    0    0 -0.00000000000E+00 -0.00000000000E+00 -0.77709603059E+03  0.77709603059E+03  0.00000000000E+00 0. -1.
        -24    2    1    2    0    0 -0.76024418532E+01  0.26752393164E+02 -0.71721779150E+03  0.72221412698E+03  0.80114899365E+02 0.  0.
         25    2    1    2    0    0  0.66378147095E+02  0.24027879371E+02  0.52987851120E+02  0.15309931141E+03  0.12509312287E+03 0.  0.
         24    2    1    2    0    0 -0.58775705242E+02 -0.50780272535E+02  0.41927203421E+03  0.43392071661E+03  0.80404788616E+02 0.  0.
        -13    1    5    5    0    0 -0.22044617205E+02 -0.47961398648E+02  0.10524534407E+03  0.11774057651E+03  0.00000000000E+00 0.  1.
         14    1    5    5    0    0 -0.36731088037E+02 -0.28188738865E+01  0.31402669014E+03  0.31618014011E+03  0.00000000000E+00 0. -1.
         11    1    3    3    0    0 -0.43144130621E+02  0.15760732642E+02 -0.46572382213E+03  0.46798343475E+03  0.00000000000E+00 0. -1.
        -12    1    3    3    0    0  0.35541688768E+02  0.10991660522E+02 -0.25149396937E+03  0.25423069223E+03  0.00000000000E+00 0.  1.
          5    1    4    4  501    0 -0.29910577170E+01  0.50836306579E+02  0.59381961127E+02  0.78338791159E+02  0.41800000000E+01 0. -1.
         -5    1    4    4    0  501  0.69369204812E+02 -0.26808427209E+02 -0.63941100073E+01  0.74760520253E+02  0.41800000000E+01 0. -1.
</event>
<event>
11    1  0.8039394E-009  0.1407527E+03  0.7561462E-02  0.1106721E+00
         22   -1    0    0    0    0  0.00000000000E+00  0.00000000000E+00  0.14993000624E+04  0.14993000624E+04  0.00000000000E+00 0. -1.
         22   -1    0    0    0    0 -0.00000000000E+00 -0.00000000000E+00 -0.55563742483E+03  0.55563742483E+03  0.00000000000E+00 0.  1.
         24    2    1    2    0    0 -0.27993303630E+02 -0.56472194549E+02 -0.45655339670E+03  0.46797342373E+03  0.81150400339E+02 0.  0.
         25    2    1    2    0    0  0.70973360168E+02  0.54780940291E+02 -0.27498699147E+02  0.15633396098E+03  0.12508381042E+03 0.  0.
        -24    2    1    2    0    0 -0.42980056539E+02  0.16912542582E+01  0.14277147334E+04  0.14306301025E+04  0.80516983409E+02 0.  0.
        -13    1    3    3    0    0  0.81703949601E+01  0.51687687566E+01 -0.23457820136E+03  0.23477735001E+03  0.00000000000E+00 0.  1.
         14    1    3    3    0    0 -0.36163698590E+02 -0.61640963306E+02 -0.22197519534E+03  0.23319607372E+03  0.00000000000E+00 0. -1.
         13    1    5    5    0    0 -0.60446615115E+02 -0.12850983008E+01  0.67378101928E+03  0.67648821623E+03  0.00000000000E+00 0. -1.
        -14    1    5    5    0    0  0.17466558577E+02  0.29763525590E+01  0.75393371411E+03  0.75414188626E+03  0.00000000000E+00 0.  1.
          5    1    4    4  501    0  0.22430471451E+02  0.55399376290E+02  0.40762651597E+02  0.72465737477E+02  0.41800000000E+01 0.  1.
         -5    1    4    4    0  501  0.48542888718E+02 -0.61843599942E+00 -0.68261350744E+02  0.83868223503E+02  0.41800000000E+01 0.  1.
</event>
<event>
11    1  0.8039394E-009  0.1391800E+03  0.7561462E-02  0.1108478E+00
         22   -1    0    0    0    0  0.00000000000E+00  0.00000000000E+00  0.16668346120E+04  0.16668346120E+04  0.00000000000E+00 0.  1.
         22   -1    0    0    0    0 -0.00000000000E+00 -0.00000000000E+00 -0.73191355351E+02  0.73191355351E+02  0.00000000000E+00 0.  1.
        -24    2    1    2    0    0  0.20792964307E+02  0.57073348359E+02  0.42983740588E+01  0.10223765575E+03  0.82123978078E+02 0.  0.
         25    2    1    2    0    0  0.14461912567E+02 -0.69143379288E+02  0.20299068789E+03  0.24868215649E+03  0.12509053430E+03 0.  0.
         24    2    1    2    0    0 -0.35254876873E+02  0.12070030929E+02  0.13863541947E+04  0.13891061551E+04  0.79052925465E+02 0.  0.
        -11    1    5    5    0    0 -0.55016331098E+02  0.28058162311E+02  0.10252834392E+04  0.10271417565E+04  0.00000000000E+00 0.  1.
         12    1    5    5    0    0  0.19761454224E+02 -0.15988131382E+02  0.36107075549E+03  0.36196439865E+03  0.00000000000E+00 0. -1.
         11    1    3    3    0    0  0.35979490183E+02  0.34396290459E+02  0.35233648368E+02  0.60983919917E+02  0.00000000000E+00 0. -1.
        -12    1    3    3    0    0 -0.15186525876E+02  0.22677057900E+02 -0.30935274310E+02  0.41253735829E+02  0.00000000000E+00 0.  1.
          5    1    4    4  501    0 -0.54386827547E+02 -0.22905796547E+02  0.10221559141E+03  0.11810208318E+03  0.41800000000E+01 0. -1.
         -5    1    4    4    0  501  0.68848740114E+02 -0.46237582741E+02  0.10077509648E+03  0.13058007330E+03  0.41800000000E+01 0. -1.
</event>
<event>
11    1  0.8039394E-009  0.1340652E+03  0.7561462E-02  0.1114373E+00
         22   -1    0    0    0    0  0.00000000000E+00  0.00000000000E+00  0.18178237139E+04  0.18178237139E+04  0.00000000000E+00 0.  1.
         22   -1    0    0    0    0 -0.00000000000E+00 -0.00000000000E+00 -0.39001506962E+02  0.39001506962E+02  0.00000000000E+00 0.  1.
         24    2    1    2    0    0 -0.44907336107E+02 -0.11598746742E+02  0.50977242381E+02  0.11095019238E+03  0.86948641079E+02 0.  0.
         25    2    1    2    0    0  0.56468945040E+02  0.34712370860E+02  0.67206187899E+03  0.68680994809E+03  0.12508814955E+03 0.  0.
        -24    2    1    2    0    0 -0.11561608932E+02 -0.23113624118E+02  0.10557830855E+04  0.10590650804E+04  0.79202337870E+02 0.  0.
        -11    1    3    3    0    0 -0.20263955475E+01  0.16341857177E+02 -0.18428892335E+02  0.24714098154E+02  0.00000000000E+00 0.  1.
         12    1    3    3    0    0 -0.42880940560E+02 -0.27940603918E+02  0.69406134716E+02  0.86236094223E+02  0.00000000000E+00 0. -1.
         13    1    5    5    0    0  0.13584273928E+02 -0.34225273743E+02  0.23904610677E+03  0.24186554741E+03  0.00000000000E+00 0. -1.
        -14    1    5    5    0    0 -0.25145882861E+02  0.11111649625E+02  0.81673697875E+03  0.81719953294E+03  0.00000000000E+00 0.  1.
          5    1    4    4  501    0  0.27263266469E+02  0.48632854895E+02  0.10628502941E+03  0.12009338096E+03  0.41800000000E+01 0. -1.
         -5    1    4    4    0  501  0.29205678571E+02 -0.13920484036E+02  0.56577684958E+03  0.56671656712E+03  0.41800000000E+01 0. -1.
</event>
<event>
11    1  0.8039394E-009  0.2299299E+03  0.7561462E-02  0.1035169E+00
         22   -1    0    0    0    0  0.00000000000E+00  0.00000000000E+00  0.20165023255E+04  0.20165023255E+04  0.00000000000E+00 0. -1.
         22   -1    0    0    0    0 -0.00000000000E+00 -0.00000000000E+00 -0.90867960445E+03  0.90867960445E+03  0.00000000000E+00 0.  1.
        -24    2    1    2    0    0 -0.30358925117E+01  0.37287907767E+02 -0.87754557915E+03  0.88210524197E+03  0.81386790766E+02 0.  0.
         25    2    1    2    0    0 -0.16587095925E+03 -0.12165763248E+03  0.67491613258E+03  0.71656965773E+03  0.12508610518E+03 0.  0.
         24    2    1    2    0    0  0.16890685176E+03  0.84369724710E+02  0.13104521677E+04  0.13265070303E+04  0.81781676756E+02 0.  0.
        -13    1    5    5    0    0  0.78150777002E+01 -0.14655773571E+02  0.97832420163E+02  0.99232301059E+02  0.00000000000E+00 0.  1.
         14    1    5    5    0    0  0.16109177406E+03  0.99025498281E+02  0.12126197475E+04  0.12272747292E+04  0.00000000000E+00 0. -1.
         11    1    3    3    0    0  0.18241860774E+01 -0.93080558946E+00  0.12934202226E+01  0.24221869793E+01  0.00000000000E+00 0. -1.
        -12    1    3    3    0    0 -0.48600785892E+01  0.38218713357E+02 -0.87883899937E+03  0.87968305499E+03  0.00000000000E+00 0.  1.
          5    1    4    4  501    0 -0.94325859542E+02  0.44577573804E+01  0.23248077757E+03  0.25096219580E+03  0.41800000000E+01 0. -1.
         -5    1    4    4    0  501 -0.71545099704E+02 -0.12611538986E+03  0.44243535500E+03  0.46560746193E+03  0.41800000000E+01 0. -1.
</event>
<event>
11    1  0.8039394E-009  0.1972059E+03  0.7561462E-02  0.1056517E+00
         22   -1    0    0    0    0  0.00000000000E+00  0.00000000000E+00  0.17607500862E+04  0.17607500862E+04  0.00000000000E+00 0.  1.
         22   -1    0    0    0    0 -0.00000000000E+00 -0.00000000000E+00 -0.28413644286E+04  0.28413644286E+04  0.00000000000E+00 0. -1.
         24    2    1    2    0    0 -0.22330116116E+02 -0.14809190176E+03 -0.24746314768E+04  0.24806404838E+04  0.85711251239E+02 0.  0.
         25    2    1    2    0    0  0.44078820693E+02  0.17831009360E+03 -0.32852889400E+03  0.39663007472E+03  0.12508697002E+03 0.  0.
        -24    2    1    2    0    0 -0.21748704577E+02 -0.30218191838E+02  0.17225460284E+04  0.17248439562E+04  0.80843726237E+02 0.  0.
        -13    1    3    3    0    0  0.18620531523E+02 -0.70856891550E+01 -0.57402845918E+03  0.57437409685E+03  0.00000000000E+00 0.  1.
         14    1    3    3    0    0 -0.40950647638E+02 -0.14100621260E+03 -0.19006030176E+04  0.19062663870E+04  0.00000000000E+00 0. -1.
         13    1    5    5    0    0 -0.34433376966E+02  0.87329190745E+01  0.12562054143E+04  0.12567075890E+04  0.00000000000E+00 0. -1.
        -14    1    5    5    0    0  0.12684672388E+02 -0.38951110912E+02  0.46634061410E+03  0.46813636722E+03  0.00000000000E+00 0.  1.
          5    1    4    4  501    0  0.74096808833E+02  0.50841404016E+02 -0.15467594761E+03  0.17893380511E+03  0.41800000000E+01 0.  1.
         -5    1    4    4    0  501 -0.30017988140E+02  0.12746868958E+03 -0.17385294639E+03  0.21769626961E+03  0.41800000000E+01 0.  1.
</event>
<event>
11    1  0.8039394E-009  0.1963328E+03  0.7561462E-02  0.1057148E+00
         22   -1    0    0    0    0  0.00000000000E+00  0.00000000000E+00  0.11599718168E+03  0.11599718168E+03  0.00000000000E+00 0.  1.
         22   -1    0    0    0    0 -0.00000000000E+00 -0.00000000000E+00 -0.22303656115E+04  0.22303656115E+04  0.00000000000E+00 0.  1.
        -24    2    1    2    0    0  0.91195171871E+02  0.11382405948E+03 -0.14831455727E+04  0.14924607072E+04  0.80285096987E+02 0.  0.
         25    2    1    2    0    0 -0.65242481682E+02 -0.16364927469E+03 -0.70068217078E+03  0.73323991728E+03  0.12509038858E+03 0.  0.
         24    2    1    2    0    0 -0.25952690189E+02  0.49825215211E+02  0.69459313641E+02  0.12066216874E+03  0.81108991578E+02 0.  0.
        -11    1    5    5    0    0 -0.49823553034E+02  0.51449237678E+02  0.64161329600E+02  0.96156573933E+02  0.00000000000E+00 0.  1.
         12    1    5    5    0    0  0.23870862845E+02 -0.16240224670E+01  0.52979840408E+01  0.24505594807E+02  0.00000000000E+00 0. -1.
         11    1    3    3    0    0  0.45074294028E+02  0.10528705335E+02 -0.65365722325E+03  0.65529406462E+03  0.00000000000E+00 0. -1.
        -12    1    3    3    0    0  0.46120877843E+02  0.10329535414E+03 -0.82948834943E+03  0.83716664255E+03  0.00000000000E+00 0.  1.
          5    1    4    4  501    0 -0.97980476086E+01  0.16022618920E+02 -0.15210553376E+03  0.15331761756E+03  0.41800000000E+01 0.  1.
         -5    1    4    4    0  501 -0.55444434074E+02 -0.17967189361E+03 -0.54857663703E+03  0.57992229972E+03  0.41800000000E+01 0.  1.
</event>
<event>
11    1  0.8039394E-009  0.1347574E+03  0.7561462E-02  0.1113558E+00
         22   -1    0    0    0    0  0.00000000000E+00  0.00000000000E+00  0.15930567599E+04  0.15930567599E+04  0.00000000000E+00 0. -1.
         22   -1    0    0    0    0 -0.00000000000E+00 -0.00000000000E+00 -0.54020727860E+03  0.54020727860E+03  0.00000000000E+00 0.  1.
         24    2    1    2    0    0  0.48909844626E+02 -0.10743753097E+02 -0.51707435218E+03  0.52544134300E+03  0.78836020499E+02 0.  0.
         25    2    1    2    0    0 -0.52135599705E+02  0.81791290644E+01  0.24250799237E+03  0.27792622325E+03  0.12509132784E+03 0.  0.
        -24    2    1    2    0    0  0.32257550799E+01  0.25646240331E+01  0.13274158411E+04  0.13298964722E+04  0.81085318554E+02 0.  0.
        -11    1    3    3    0    0  0.59273332540E+02  0.18305019191E+02 -0.31836421659E+03  0.32435193245E+03  0.00000000000E+00 0.  1.
         12    1    3    3    0    0 -0.10363487914E+02 -0.29048772288E+02 -0.19871013558E+03  0.20108941055E+03  0.00000000000E+00 0. -1.
         11    1    5    5    0    0 -0.38353248490E+02 -0.57522311905E+01  0.62664949626E+03  0.62784842995E+03  0.00000000000E+00 0. -1.
        -12    1    5    5    0    0  0.41579003570E+02  0.83168552236E+01  0.70076634483E+03  0.70204804228E+03  0.00000000000E+00 0.  1.
          5    1    4    4  501    0 -0.48883891881E+02  0.61755873936E+02  0.11428832621E+03  0.13886222222E+03  0.41800000000E+01 0.  1.
         -5    1    4    4    0  501 -0.32517078245E+01 -0.53576744871E+02  0.12821966615E+03  0.13906400103E+03  0.41800000000E+01 0.  1.
</event>
<event>
11    1  0.8039394E-009  0.1302999E+03  0.7561462E-02  0.1118901E+00
         22   -1    0    0    0    0  0.00000000000E+00  0.00000000000E+00  0.31751003558E+03  0.31751003558E+03  0.00000000000E+00 0.  1.
         22   -1    0    0    0    0 -0.00000000000E+00 -0.00000000000E+00 -0.14408020628E+04  0.14408020628E+04  0.00000000000E+00 0. -1.
        -24    2    1    2    0    0  0.25769180903E+02 -0.28617578632E+02 -0.11027155518E+04  0.11063812325E+04  0.81331586725E+02 0.  0.
         25    2    1    2    0    0  0.28151652185E+01  0.31327796734E+02 -0.31765603602E+03  0.34284676300E+03  0.12509672127E+03 0.  0.
         24    2    1    2    0    0 -0.28584346122E+02 -0.27102181027E+01  0.29707956052E+03  0.30908410294E+03  0.80326255286E+02 0.  0.
        -13    1    5    5    0    0 -0.35526486033E+02  0.28730796419E+02  0.23221952035E+03  0.23667170406E+03  0.00000000000E+00 0.  1.
         14    1    5    5    0    0  0.69421399109E+01 -0.31441014522E+02  0.64860040169E+02  0.72412398879E+02  0.00000000000E+00 0. -1.
         11    1    3    3    0    0  0.28566730639E+02  0.44590984031E+01 -0.13339088929E+03  0.13648835483E+03  0.00000000000E+00 0. -1.
        -12    1    3    3    0    0 -0.27975497354E+01 -0.33076677035E+02 -0.96932466248E+03  0.96989287766E+03  0.00000000000E+00 0.  1.
          5    1    4    4  501    0  0.15067083882E+02  0.75508575216E+02 -0.24485683154E+03  0.25671171048E+03  0.41800000000E+01 0.  1.
         -5    1    4    4    0  501 -0.12251918663E+02 -0.44180778482E+02 -0.72799204486E+02  0.86135052516E+02  0.41800000000E+01 0.  1.
</event>
<event>
11    1  0.8039394E-009  0.1534941E+03  0.7561462E-02  0.1093361E+00
         22   -1    0    0    0    0  0.00000000000E+00  0.00000000000E+00  0.45738715863E+03  0.45738715863E+03  0.00000000000E+00 0.  1.
         22   -1    0    0    0    0 -0.00000000000E+00 -0.00000000000E+00 -0.63289579428E+03  0.63289579428E+03  0.00000000000E+00 0. -1.
         24    2    1    2    0    0 -0.78076457970E+02 -0.39912380869E+02 -0.55878168335E+03  0.57593994016E+03  0.10853991705E+03 0.  0.
         25    2    1    2    0    0  0.62023855412E+02  0.12208823971E+03  0.10606560282E+03  0.21365694629E+03  0.12508749610E+03 0.  0.
        -24    2    1    2    0    0  0.16052602558E+02 -0.82175858842E+02  0.27720744489E+03  0.30068606646E+03  0.80978918474E+02 0.  0.
        -13    1    3    3    0    0 -0.13965532079E+02 -0.24053652466E+02 -0.22967827961E+02  0.36071254545E+02  0.00000000000E+00 0.  1.
         14    1    3    3    0    0 -0.64110925891E+02 -0.15858728404E+02 -0.53581385539E+03  0.53986868562E+03  0.00000000000E+00 0. -1.
         13    1    5    5    0    0  0.29966993237E+02 -0.39711492349E+02  0.55557586007E+02  0.74576596001E+02  0.00000000000E+00 0. -1.
        -14    1    5    5    0    0 -0.13914390679E+02 -0.42464366493E+02  0.22164985888E+03  0.22610947046E+03  0.00000000000E+00 0.  1.
          5    1    4    4  501    0 -0.20613723014E+02  0.94533088432E+02  0.42612813855E+02  0.10580526778E+03  0.41800000000E+01 0. -1.
         -5    1    4    4    0  501  0.82637578426E+02  0.27555151280E+02  0.63452788961E+02  0.10785167851E+03  0.41800000000E+01 0. -1.
</event>
<event>
11    1  0.8039394E-009  0.2329811E+03  0.7561462E-02  0.1033377E+00
         22   -1    0    0    0    0  0.00000000000E+00  0.00000000000E+00  0.45851787912E+03  0.45851787912E+03  0.00000000000E+00 0.  1.
         22   -1    0    0    0    0 -0.00000000000E+00 -0.00000000000E+00 -0.17401540599E+04  0.17401540599E+04  0.00000000000E+00 0. -1.
         24    2    1    2    0    0 -0.12780910856E+03 -0.36013827011E+02 -0.14343525531E+04  0.14430889131E+04  0.86638331398E+02 0.  0.
         25    2    1    2    0    0  0.26911817964E+03  0.15525652339E+03 -0.16966294741E+03  0.37545026079E+03  0.12509276531E+03 0.  0.
        -24    2    1    2    0    0 -0.14130907109E+03 -0.11924269637E+03  0.32237931973E+03  0.38013276517E+03  0.79908817751E+02 0.  0.
        -13    1    3    3    0    0 -0.18219634950E+02 -0.71502245516E+01 -0.67903132409E+03  0.67931334442E+03  0.00000000000E+00 0.  1.
         14    1    3    3    0    0 -0.10958947361E+03 -0.28863602460E+02 -0.75532122899E+03  0.76377556863E+03  0.00000000000E+00 0. -1.
         11    1    5    5    0    0 -0.77860893674E+01 -0.44617575291E+02  0.47987196023E+02  0.65985772668E+02  0.00000000000E+00 0. -1.
        -12    1    5    5    0    0 -0.13352298172E+03 -0.74625121083E+02  0.27439212371E+03  0.31414699250E+03  0.00000000000E+00 0.  1.
          5    1    4    4  501    0  0.12827806332E+03  0.28571684888E+02 -0.12358117296E+03  0.18044772488E+03  0.41800000000E+01 0.  1.
         -5    1    4    4    0  501  0.14084011633E+03  0.12668483850E+03 -0.46081774452E+02  0.19500253590E+03  0.41800000000E+01 0.  1.
</event>
<event>
11    1  0.8039394E-009  0.1427570E+03  0.7561462E-02  0.1104518E+00
         22   -1    0    0    0    0  0.00000000000E+00  0.00000000000E+00  0.44414494119E+03  0.44414494119E+03  0.00000000000E+00 0. -1.
         22   -1    0    0    0    0 -0.00000000000E+00 -0.00000000000E+00 -0.58591076686E+03  0.58591076686E+03  0.00000000000E+00 0. -1.
        -24    2    1    2    0    0  0.11007184781E+02  0.35558046088E+02 -0.37633602685E+03  0.38654389305E+03  0.80011520348E+02 0.  0.
         25    2    1    2    0    0 -0.61332285583E+02  0.12137335736E+02 -0.17282699371E+03  0.22231894191E+03  0.12509027942E+03 0.  0.
         24    2    1    2    0    0  0.50325100802E+02 -0.47695381823E+02  0.40739719489E+03  0.42119287309E+03  0.81384867863E+02 0.  0.
        -11    1    5    5    0    0 -0.16683537068E+02  0.47114669562E+01  0.33264919720E+02  0.37511241168E+02  0.00000000000E+00 0.  1.
         12    1    5    5    0    0  0.67008637870E+02 -0.52406848779E+02  0.37413227517E+03  0.38368163192E+03  0.00000000000E+00 0. -1.
         13    1    3    3    0    0 -0.53036551941E+01 -0.97999611855E+01 -0.26484514625E+03  0.26507945882E+03  0.00000000000E+00 0. -1.
        -14    1    3    3    0    0  0.16310839975E+02  0.45358007273E+02 -0.11149088060E+03  0.12146443423E+03  0.00000000000E+00 0.  1.
          5    1    4    4  501    0 -0.18157564340E+02 -0.47117033061E+01 -0.17469344801E+03  0.17574746220E+03  0.41800000000E+01 0.  1.
         -5    1    4    4    0  501 -0.43174721243E+02  0.16849039042E+02  0.18664543046E+01  0.46571479714E+02  0.41800000000E+01 0.  1.
</event>
<event>
11    1  0.8039394E-009  0.1377070E+03  0.7561462E-02  0.1110146E+00
         22   -1    0    0    0    0  0.00000000000E+00  0.00000000000E+00  0.61552999801E+03  0.61552999801E+03  0.00000000000E+00 0. -1.
         22   -1    0    0    0    0 -0.00000000000E+00 -0.00000000000E+00 -0.16974907805E+03  0.16974907805E+03  0.00000000000E+00 0.  1.
        -24    2    1    2    0    0 -0.76542417631E+01 -0.55132761419E+02 -0.12043597687E+03  0.16208972747E+03  0.93113084087E+02 0.  0.
         25    2    1    2    0    0  0.19726831306E+00  0.80071167923E+02  0.21107392917E+03  0.25808761852E+03  0.12508231054E+03 0.  0.
         24    2    1    2    0    0  0.74569734500E+01 -0.24938406504E+02  0.35514296766E+03  0.36510173008E+03  0.80592898270E+02 0.  0.
        -11    1    5    5    0    0  0.14211560798E+02 -0.10422842467E+02  0.11407681365E+02  0.20993791928E+02  0.00000000000E+00 0.  1.
         12    1    5    5    0    0 -0.67545873478E+01 -0.14515564037E+02  0.34373528630E+03  0.34410793815E+03  0.00000000000E+00 0. -1.
         13    1    3    3    0    0 -0.48186437783E+02 -0.21131079092E+02 -0.41258490842E+02  0.66863430636E+02  0.00000000000E+00 0. -1.
        -14    1    3    3    0    0  0.40532196020E+02 -0.34001682328E+02 -0.79177486026E+02  0.95226296834E+02  0.00000000000E+00 0.  1.
          5    1    4    4  501    0 -0.20333117328E+01  0.66286940904E+02  0.22698374246E+03  0.23651043240E+03  0.41800000000E+01 0. -1.
         -5    1    4    4    0  501  0.22305800459E+01  0.13784227020E+02 -0.15909813291E+02  0.21577186119E+02  0.41800000000E+01 0. -1.
</event>
<event>
11    1  0.8039394E-009  0.2481153E+03  0.7561462E-02  0.1024908E+00
         22   -1    0    0    0    0  0.00000000000E+00  0.00000000000E+00  0.14622929298E+04  0.14622929298E+04  0.00000000000E+00 0.  1.
         22   -1    0    0    0    0 -0.00000000000E+00 -0.00000000000E+00 -0.14690747372E+03  0.14690747372E+03  0.00000000000E+00 0.  1.
         24    2    1    2    0    0  0.19809660941E+03 -0.22141411999E+02  0.13308365948E+02  0.21514825061E+03  0.79869570872E+02 0.  0.
         25    2    1    2    0    0 -0.31526189677E+03  0.16269543272E+02  0.73384047138E+03  0.80859217242E+03  0.12507878423E+03 0.  0.
        -24    2    1    2    0    0  0.11716528737E+03  0.58718687262E+01  0.56823661878E+03  0.58545998052E+03  0.78155936814E+02 0.  0.
        -13    1    3    3    0    0  0.13011131573E+03  0.12773423116E+02  0.35673217539E+02  0.13551639483E+03  0.00000000000E+00 0.  1.
         14    1    3    3    0    0  0.67985293681E+02 -0.34914835114E+02 -0.22364851590E+02  0.79631855778E+02  0.00000000000E+00 0. -1.
         13    1    5    5    0    0 -0.80042463160E+01  0.99332846379E+01  0.98221263513E+02  0.99046225112E+02  0.00000000000E+00 0. -1.
        -14    1    5    5    0    0  0.12516953368E+03 -0.40614159117E+01  0.47001535527E+03  0.48641375541E+03  0.00000000000E+00 0.  1.
          5    1    4    4  501    0 -0.10969007710E+03 -0.33720120902E+02  0.15970205128E+03  0.19670072992E+03  0.41800000000E+01 0.  1.
         -5    1    4    4    0  501 -0.20557181967E+03  0.49989664175E+02  0.57413842010E+03  0.61189144250E+03  0.41800000000E+01 0.  1.
</event>
<event>
11    1  0.8039394E-009  0.1566262E+03  0.7561462E-02  0.1090294E+00
         22   -1    0    0    0    0  0.00000000000E+00  0.00000000000E+00  0.18820008664E+04  0.18820008664E+04  0.00000000000E+00 0.  1.
         22   -1    0    0    0    0 -0.00000000000E+00 -0.00000000000E+00 -0.55980746289E+03  0.55980746289E+03  0.00000000000E+00 0. -1.
         24    2    1    2    0    0  0.79347990494E+01 -0.56906888057E+02 -0.53215110964E+03  0.54126824983E+03  0.80530490132E+02 0.  0.
         25    2    1    2    0    0 -0.25268775187E+02 -0.41518968768E+02  0.19692488915E+03  0.23830400263E+03  0.12508816865E+03 0.  0.
        -24    2    1    2    0    0  0.17333976137E+02  0.98425856825E+02  0.16574196240E+04  0.16622360769E+04  0.77465147495E+02 0.  0.
        -13    1    3    3    0    0 -0.33590449376E+02 -0.31067609637E+02 -0.17940384753E+03  0.18514657752E+03  0.00000000000E+00 0.  1.
         14    1    3    3    0    0  0.41525248426E+02 -0.25839278419E+02 -0.35274726211E+03  0.35612167232E+03  0.00000000000E+00 0. -1.
         13    1    5    5    0    0 -0.27695149220E+02  0.43480902909E+02  0.90614578115E+03  0.90761103283E+03  0.00000000000E+00 0. -1.
        -14    1    5    5    0    0  0.45029125357E+02  0.54944953916E+02  0.75127384288E+03  0.75462504403E+03  0.00000000000E+00 0.  1.
          5    1    4    4  501    0 -0.64557347886E+02 -0.33051907286E+02  0.18070815005E+03  0.19476392797E+03  0.41800000000E+01 0. -1.
         -5    1    4    4    0  501  0.39288572699E+02 -0.84670614828E+01  0.16216739096E+02  0.43540074665E+02  0.41800000000E+01 0. -1.
</event>
<event>
11    1  0.8039394E-009  0.1388524E+03  0.7561462E-02  0.1108847E+00
         22   -1    0    0    0    0  0.00000000000E+00  0.00000000000E+00  0.79648522557E+03  0.79648522557E+03  0.00000000000E+00 0.  1.
         22   -1    0    0    0    0 -0.00000000000E+00 -0.00000000000E+00 -0.13662720930E+03  0.13662720930E+03  0.00000000000E+00 0.  1.
        -24    2    1    2    0    0  0.10238905653E+02 -0.41951339430E+01 -0.92688678393E+02  0.11874945679E+03  0.73401689680E+02 0.  0.
         25    2    1    2    0    0  0.48122947822E+02  0.23569335971E+02  0.14906490835E+03  0.20183817194E+03  0.12508784532E+03 0.  0.
         24    2    1    2    0    0 -0.58361853475E+02 -0.19374202028E+02  0.60348178631E+03  0.61252480613E+03  0.84940603186E+02 0.  0.
        -11    1    5    5    0    0 -0.41261404126E+02  0.29752825964E+02  0.35766420898E+03  0.36126364404E+03  0.00000000000E+00 0.  1.
         12    1    5    5    0    0 -0.17100449349E+02 -0.49127027992E+02  0.24581757734E+03  0.25126116209E+03  0.00000000000E+00 0. -1.
         13    1    3    3    0    0  0.33217158621E+02 -0.24275808804E+02 -0.37412692290E+02  0.55609388275E+02  0.00000000000E+00 0. -1.
        -14    1    3    3    0    0 -0.22978252968E+02  0.20080674861E+02 -0.55275986104E+02  0.63140068515E+02  0.00000000000E+00 0.  1.
          5    1    4    4  501    0 -0.84833781855E+01 -0.42241702817E+02  0.79489267779E+02  0.90511575250E+02  0.41800000000E+01 0. -1.
         -5    1    4    4    0  501  0.56606326007E+02  0.65811038788E+02  0.69575640569E+02  0.11132659669E+03  0.41800000000E+01 0. -1.
</event>
<event>
11    1  0.8039394E-009  0.1383834E+03  0.7561462E-02  0.1109377E+00
         22   -1    0    0    0    0  0.00000000000E+00  0.00000000000E+00  0.17502150367E+04  0.17502150367E+04  0.00000000000E+00 0.  1.
         22   -1    0    0    0    0 -0.00000000000E+00 -0.00000000000E+00 -0.13011501207E+04  0.13011501207E+04  0.00000000000E+00 0.  1.
        -24    2    1    2    0    0 -0.18552457742E+02 -0.58521236542E+02 -0.12168234212E+04  0.12213818274E+04  0.85705316332E+02 0.  0.
         25    2    1    2    0    0 -0.40757804909E+02  0.51931168991E+02 -0.18185949821E+02  0.14260410301E+03  0.12508859441E+03 0.  0.
         24    2    1    2    0    0  0.59310262651E+02  0.65900675516E+01  0.16840742870E+04  0.16873792270E+04  0.87070747551E+02 0.  0.
        -11    1    5    5    0    0  0.62193490433E+01  0.39570791721E+02  0.86324056448E+03  0.86416942785E+03  0.00000000000E+00 0.  1.
         12    1    5    5    0    0  0.53090913608E+02 -0.32980724170E+02  0.82083372255E+03  0.82320979911E+03  0.00000000000E+00 0. -1.
         11    1    3    3    0    0  0.17176311155E+02 -0.22213141081E+02 -0.11488704607E+03  0.11826868840E+03  0.00000000000E+00 0. -1.
        -12    1    3    3    0    0 -0.35728768897E+02 -0.36308095462E+02 -0.11019363751E+04  0.11031131390E+04  0.00000000000E+00 0.  1.
          5    1    4    4  501    0 -0.67544850439E+02  0.30820561446E+01 -0.44290766945E+02  0.80937941211E+02  0.41800000000E+01 0. -1.
         -5    1    4    4    0  501  0.26787045530E+02  0.48849112846E+02  0.26104817124E+02  0.61666161800E+02  0.41800000000E+01 0. -1.
</event>
<event>
11    1  0.8039394E-009  0.1474589E+03  0.7561462E-02  0.1099504E+00
         22   -1    0    0    0    0  0.00000000000E+00  0.00000000000E+00  0.19481929251E+03  0.19481929251E+03  0.00000000000E+00 0.  1.
         22   -1    0    0    0    0 -0.00000000000E+00 -0.00000000000E+00 -0.48079928318E+03  0.48079928318E+03  0.00000000000E+00 0. -1.
         24    2    1    2    0    0  0.45794418612E+01 -0.11886537937E+01 -0.29789029691E+03  0.30915826071E+03  0.82570073196E+02 0.  0.
         25    2    1    2    0    0  0.72582531110E+02  0.16002766764E+02 -0.12351905797E+03  0.19086057260E+03  0.12508592297E+03 0.  0.
        -24    2    1    2    0    0 -0.77161972971E+02 -0.14814112970E+02  0.13542936421E+03  0.17559974237E+03  0.79503011357E+02 0.  0.
        -13    1    3    3    0    0  0.23130790974E+01 -0.41632259377E+02 -0.13407063436E+03  0.14040488009E+03  0.00000000000E+00 0.  1.
         14    1    3    3    0    0  0.22663627638E+01  0.40443605584E+02 -0.16381966255E+03  0.16875338062E+03  0.00000000000E+00 0. -1.
         11    1    5    5    0    0 -0.89913627883E+01  0.93999439915E+01 -0.77787308982E+01  0.15156259638E+02  0.00000000000E+00 0. -1.
        -12    1    5    5    0    0 -0.68170610183E+02 -0.24214056962E+02  0.14320809511E+03  0.16044348273E+03  0.00000000000E+00 0.  1.
          5    1    4    4  501    0  0.40343895772E+02  0.18075888973E+02  0.16295880509E+02  0.47301118483E+02  0.41800000000E+01 0. -1.
         -5    1    4    4    0  501  0.32238635338E+02 -0.20731222091E+01 -0.13981493848E+03  0.14355945412E+03  0.41800000000E+01 0. -1.
</event>
<event>
11    1  0.8039394E-009  0.3540260E+03  0.7561462E-02  0.9796082E-01
         22   -1    0    0    0    0  0.00000000000E+00  0.00000000000E+00  0.21946779155E+03  0.21946779155E+03  0.00000000000E+00 0. -1.
         22   -1    0    0    0    0 -0.00000000000E+00 -0.00000000000E+00 -0.18152548728E+04  0.18152548728E+04  0.00000000000E+00 0. -1.
        -24    2    1    2    0    0  0.43821643622E+02  0.19957841646E+02 -0.12274991786E+04  0.12310439409E+04  0.79976866910E+02 0.  0.
         25    2    1    2    0    0  0.26343748954E+03  0.14656793857E+03 -0.28939080435E+03  0.43620616957E+03  0.12508922100E+03 0.  0.
         24    2    1    2    0    0 -0.30725913316E+03 -0.16652578022E+03 -0.78897098300E+02  0.36747255383E+03  0.81684241482E+02 0.  0.
        -11    1    5    5    0    0 -0.10638349528E+03 -0.34093021094E+02 -0.58246052201E+02  0.12598565296E+03  0.00000000000E+00 0.  1.
         12    1    5    5    0    0 -0.20087563788E+03 -0.13243275913E+03 -0.20651046099E+02  0.24148690086E+03  0.00000000000E+00 0. -1.
         11    1    3    3    0    0 -0.55557568794E+01  0.11576513457E+02 -0.86564197476E+03  0.86573720641E+03  0.00000000000E+00 0. -1.
        -12    1    3    3    0    0  0.49377400501E+02  0.83813281884E+01 -0.36185720381E+03  0.36530673452E+03  0.00000000000E+00 0.  1.
          5    1    4    4  501    0  0.26201274113E+03  0.15637525745E+03 -0.29468537252E+03  0.42421791433E+03  0.41800000000E+01 0.  1.
         -5    1    4    4    0  501  0.14247484120E+01 -0.98073188767E+01  0.52945681698E+01  0.11988255240E+02  0.41800000000E+01 0.  1.
</event>
<event>
11    1  0.8039394E-009  0.1765471E+03  0.7561462E-02  0.1072471E+00
         22   -1    0    0    0    0  0.00000000000E+00  0.00000000000E+00  0.21223316856E+04  0.21223316856E+04  0.00000000000E+00 0.  1.
         22   -1    0    0    0    0 -0.00000000000E+00 -0.00000000000E+00 -0.78785618091E+02  0.78785618091E+02  0.00000000000E+00 0. -1.
         24    2    1    2    0    0 -0.10014358708E+02  0.12402091636E+03  0.42349497275E+02  0.15485356126E+03  0.81882052011E+02 0.  0.
         25    2    1    2    0    0 -0.59011545393E+00 -0.12553521508E+03  0.34244505420E+03  0.38558454515E+03  0.12508951935E+03 0.  0.
        -24    2    1    2    0    0  0.10604474162E+02  0.15142987215E+01  0.16587515161E+04  0.16606791973E+04  0.79272040156E+02 0.  0.
        -11    1    3    3    0    0 -0.28433769187E+02  0.15033021880E+02 -0.83768082219E+01  0.33236153403E+02  0.00000000000E+00 0.  1.
         12    1    3    3    0    0  0.18419410479E+02  0.10898789448E+03  0.50726305497E+02  0.12161740786E+03  0.00000000000E+00 0. -1.
         13    1    5    5    0    0 -0.29344023999E+02 -0.18223953343E+02  0.60404883790E+03  0.60503568720E+03  0.00000000000E+00 0. -1.
        -14    1    5    5    0    0  0.39948498161E+02  0.19738252065E+02  0.10547026782E+04  0.10556435101E+04  0.00000000000E+00 0.  1.
          5    1    4    4  501    0 -0.11564638812E+02  0.24135973290E+02  0.52002423927E+02  0.58634551007E+02  0.41800000000E+01 0.  1.
         -5    1    4    4    0  501  0.10974523358E+02 -0.14967118837E+03  0.29044263027E+03  0.32694999414E+03  0.41800000000E+01 0.  1.
</event>
<event>
11    1  0.8039394E-009  0.1711286E+03  0.7561462E-02  0.1077054E+00
         22   -1    0    0    0    0  0.00000000000E+00  0.00000000000E+00  0.14066496434E+04  0.14066496434E+04  0.00000000000E+00 0. -1.
         22   -1    0    0    0    0 -0.00000000000E+00 -0.00000000000E+00 -0.68937800458E+03  0.68937800458E+03  0.00000000000E+00 0. -1.
        -24    2    1    2    0    0 -0.37021486806E+02 -0.59080290313E+02 -0.65995682379E+03  0.66981815452E+03  0.90842058968E+02 0.  0.
         25    2    1    2    0    0  0.61886533384E+02  0.15888844772E+03  0.55756643873E+03  0.59632510702E+03  0.12509123800E+03 0.  0.
         24    2    1    2    0    0 -0.24865046578E+02 -0.99808157412E+02  0.81966202383E+03  0.82988438640E+03  0.79261104206E+02 0.  0.
        -13    1    5    5    0    0 -0.40840460349E+02 -0.83114114136E+02  0.44621960593E+03  0.45572780899E+03  0.00000000000E+00 0.  1.
         14    1    5    5    0    0  0.15975413771E+02 -0.16694043276E+02  0.37344241791E+03  0.37415657741E+03  0.00000000000E+00 0. -1.
         11    1    3    3    0    0 -0.39495809170E+02 -0.74844171350E+02 -0.63189670900E+03  0.63753824965E+03  0.00000000000E+00 0. -1.
        -12    1    3    3    0    0  0.24743223638E+01  0.15763881038E+02 -0.28060114790E+02  0.32279904872E+02  0.00000000000E+00 0.  1.
          5    1    4    4  501    0 -0.15221520755E+02  0.93126318074E+02  0.38258314647E+03  0.39407047869E+03  0.41800000000E+01 0.  1.
         -5    1    4    4    0  501  0.77108054139E+02  0.65762129650E+02  0.17498329226E+03  0.20225462833E+03  0.41800000000E+01 0.  1.
</event>
<event>
11    1  0.8039394E-009  0.1498251E+03  0.7561462E-02  0.1097058E+00
         22   -1    0    0    0    0  0.00000000000E+00  0.00000000000E+00  0.17546332693E+04  0.17546332693E+04  0.00000000000E+00 0. -1.
         22   -1    0    0    0    0 -0.00000000000E+00 -0.00000000000E+00 -0.18337428057E+03  0.18337428057E+03  0.00000000000E+00 0. -1.
         24    2    1    2    0    0  0.27845829740E+02 -0.75051592720E+02 -0.14282567272E+03  0.18821387118E+03  0.92828641667E+02 0.  0.
         25    2    1    2    0    0 -0.85124442721E+02  0.13897536139E+03  0.71565679797E+03  0.74456181426E+03  0.12508925196E+03 0.  0.
        -24    2    1    2    0    0  0.57278612981E+02 -0.63923768671E+02  0.99842786349E+03  0.10052318644E+04  0.79156900830E+02 0.  0.
        -11    1    3    3    0    0  0.19887886176E+02 -0.30255985408E+02  0.21459672833E+01  0.36270619586E+02  0.00000000000E+00 0.  1.
         12    1    3    3    0    0  0.79579435639E+01 -0.44795607312E+02 -0.14497164001E+03  0.15194325160E+03  0.00000000000E+00 0. -1.
         13    1    5    5    0    0  0.70347692052E+02 -0.24664993230E+02  0.69760434672E+03  0.70157607159E+03  0.00000000000E+00 0. -1.
        -14    1    5    5    0    0 -0.13069079072E+02 -0.39258775441E+02  0.30082351677E+03  0.30365579283E+03  0.00000000000E+00 0.  1.
          5    1    4    4  501    0  0.22438363440E+02  0.78948532544E+02  0.28207712046E+03  0.29380491015E+03  0.41800000000E+01 0.  1.
         -5    1    4    4    0  501 -0.10756280616E+03  0.60026828848E+02  0.43357967752E+03  0.45075690411E+03  0.41800000000E+01 0.  1.
</event>
<event>
11    1  0.8039394E-009  0.1269032E+03  0.7561462E-02  0.1123134E+00
         22   -1    0    0    0    0  0.00000000000E+00  0.00000000000E+00  0.13355399851E+03  0.13355399851E+03  0.00000000000E+00 0.  1.
         22   -1    0    0    0    0 -0.00000000000E+00 -0.00000000000E+00 -0.89133113071E+03  0.89133113071E+03  0.00000000000E+00 0. -1.
        -24    2    1    2    0    0  0.16829921391E+02 -0.14870584761E+02 -0.65887591553E+03  0.66402339641E+03  0.79405405154E+02 0.  0.
         25    2    1    2    0    0 -0.35008514023E+02  0.47738003539E+01 -0.19488716547E+03  0.23426141698E+03  0.12509603910E+03 0.  0.
         24    2    1    2    0    0  0.18178592632E+02  0.10096784407E+02  0.95985948804E+02  0.12660031583E+03  0.79886990896E+02 0.  0.
        -13    1    5    5    0    0 -0.26963006154E+02  0.86397316833E+01  0.67512198710E+02  0.73208917757E+02  0.00000000000E+00 0.  1.
         14    1    5    5    0    0  0.45141598786E+02  0.14570527238E+01  0.28473750094E+02  0.53391398071E+02  0.00000000000E+00 0. -1.
         13    1    3    3    0    0  0.18174938512E+02 -0.13110139011E+02 -0.66074494245E+03  0.66112486196E+03  0.00000000000E+00 0. -1.
        -14    1    3    3    0    0 -0.13450171211E+01 -0.17604457498E+01  0.18690269202E+01  0.28985344439E+01  0.00000000000E+00 0.  1.
          5    1    4    4  501    0  0.38870617830E+01  0.61074063428E+02 -0.87618674133E+02  0.10695632253E+03  0.41800000000E+01 0.  1.
         -5    1    4    4    0  501 -0.38895575806E+02 -0.56300263074E+02 -0.10726849134E+03  0.12730509445E+03  0.41800000000E+01 0.  1.
</event>
<event>
11    1  0.8039394E-009  0.1415738E+03  0.7561462E-02  0.1105814E+00
         22   -1    0    0    0    0  0.00000000000E+00  0.00000000000E+00  0.23786564083E+04  0.23786564083E+04  0.00000000000E+00 0.  1.
         22   -1    0    0    0    0 -0.00000000000E+00 -0.00000000000E+00 -0.73052053545E+03  0.73052053545E+03  0.00000000000E+00 0. -1.
        -24    2    1    2    0    0 -0.18442002213E+02  0.63059216970E+02 -0.69829544590E+03  0.70787821609E+03  0.95699878555E+02 0.  0.
         25    2    1    2    0    0  0.36452943937E+01 -0.97373069405E+02  0.20948328712E+03  0.26273342833E+03  0.12510317328E+03 0.  0.
         24    2    1    2    0    0  0.14796707819E+02  0.34313852435E+02  0.21369480317E+04  0.21385652994E+04  0.74285036259E+02 0.  0.
        -11    1    5    5    0    0  0.13696495104E+02  0.23618815613E+02  0.20975191808E+04  0.20976968695E+04  0.00000000000E+00 0.  1.
         12    1    5    5    0    0  0.11002127154E+01  0.10695036822E+02  0.39428850805E+02  0.40868429826E+02  0.00000000000E+00 0. -1.
         11    1    3    3    0    0 -0.18537953137E+02  0.79433721859E+02 -0.67178117233E+03  0.67671509172E+03  0.00000000000E+00 0. -1.
        -12    1    3    3    0    0  0.95950923988E-01 -0.16374504889E+02 -0.26514273575E+02  0.31163124364E+02  0.00000000000E+00 0.  1.
          5    1    4    4  501    0  0.19230569455E+02 -0.35190238825E+02  0.19195363232E+03  0.19614238978E+03  0.41800000000E+01 0.  1.
         -5    1    4    4    0  501 -0.15585275061E+02 -0.62182830580E+02  0.17529654805E+02  0.66591038550E+02  0.41800000000E+01 0.  1.
</event>
<event>
11    1  0.8039394E-009  0.1486206E+03  0.7561462E-02  0.1098297E+00
         22   -1    0    0    0    0  0.00000000000E+00  0.00000000000E+00  0.16407571314E+04  0.16407571314E+04  0.00000000000E+00 0.  1.
         22   -1    0    0    0    0 -0.00000000000E+00 -0.00000000000E+00 -0.11587769138E+04  0.11587769138E+04  0.00000000000E+00 0. -1.
        -24    2    1    2    0    0  0.10168965013E+02 -0.80087067357E+02 -0.10959949647E+04  0.11018874224E+04  0.80209617797E+02 0.  0.
         25    2    1    2    0    0 -0.13182694011E+02  0.65637782609E+02  0.26927487314E+02  0.14440430302E+03  0.12508161827E+03 0.  0.
         24    2    1    2    0    0  0.30137289982E+01  0.14449284748E+02  0.15510476951E+04  0.15532423197E+04  0.81208909769E+02 0.  0.
        -11    1    5    5    0    0  0.34046917473E+02 -0.16415200472E+02  0.60147175900E+03  0.60265821846E+03  0.00000000000E+00 0.  1.
         12    1    5    5    0    0 -0.31033188475E+02  0.30864485220E+02  0.94957593609E+03  0.95058410129E+03  0.00000000000E+00 0. -1.
         11    1    3    3    0    0 -0.46877965990E+00 -0.91075231520E+02 -0.10351835535E+04  0.10391823261E+04  0.00000000000E+00 0. -1.
        -12    1    3    3    0    0  0.10637744672E+02  0.10988164163E+02 -0.60811411256E+02  0.62705096302E+02  0.00000000000E+00 0.  1.
          5    1    4    4  501    0 -0.28090046997E+02  0.26941417693E+02 -0.46003330044E+02  0.60404217591E+02  0.41800000000E+01 0.  1.
         -5    1    4    4    0  501  0.14907352987E+02  0.38696364916E+02  0.72930817358E+02  0.84000085424E+02  0.41800000000E+01 0.  1.
</event>
<event>
11    1  0.8039394E-009  0.2467500E+03  0.7561462E-02  0.1025645E+00
         22   -1    0    0    0    0  0.00000000000E+00  0.00000000000E+00  0.16013814890E+04  0.16013814890E+04  0.00000000000E+00 0. -1.
         22   -1    0    0    0    0 -0.00000000000E+00 -0.00000000000E+00 -0.10303358327E+03  0.10303358327E+03  0.00000000000E+00 0.  1.
         24    2    1    2    0    0 -0.18669874146E+03  0.10612266509E+03  0.26388198302E+03  0.34957989086E+03  0.80336536021E+02 0.  0.
         25    2    1    2    0    0  0.46750909566E+02 -0.26160017975E+03  0.43868516514E+03  0.52793226641E+03  0.12508997645E+03 0.  0.
        -24    2    1    2    0    0  0.13994783189E+03  0.15547751466E+03  0.79578075757E+03  0.82690291501E+03  0.82114331974E+02 0.  0.
        -13    1    3    3    0    0 -0.68176893360E+01  0.20752825748E+02  0.40273595884E+01  0.22212165353E+02  0.00000000000E+00 0.  1.
         14    1    3    3    0    0 -0.17988105212E+03  0.85369839343E+02  0.25985462343E+03  0.32736772550E+03  0.00000000000E+00 0. -1.
         13    1    5    5    0    0  0.71799959568E+02  0.49264781350E+02  0.46047870228E+03  0.46863940095E+03  0.00000000000E+00 0. -1.
        -14    1    5    5    0    0  0.68147872324E+02  0.10621273331E+03  0.33530205529E+03  0.35826351406E+03  0.00000000000E+00 0.  1.
          5    1    4    4  501    0  0.40181984592E+02 -0.14939428327E+03  0.13968588432E+03  0.20847748664E+03  0.41800000000E+01 0.  1.
         -5    1    4    4    0  501  0.65689249734E+01 -0.11220589648E+03  0.29899928082E+03  0.31945477976E+03  0.41800000000E+01 0.  1.
</event>
<event>
11    1  0.1108448E-008  0.1494537E+04  0.7561462E-02  0.8313208E-01
         22   -1    0    0    0    0  0.00000000000E+00  0.00000000000E+00  0.14057186858E+04  0.14057186858E+04  0.00000000000E+00 0.  1.
         22   -1    0    0    0    0 -0.00000000000E+00 -0.00000000000E+00 -0.23263061579E+04  0.23263061579E+04  0.00000000000E+00 0.  1.
        -24    2    1    2    0    0  0.68138441979E+02  0.56691019973E+02 -0.24136686336E+01  0.12192806005E+03  0.83689348245E+02 0.  0.
         25    2    1    2    0    0  0.51114778343E+03 -0.14063966678E+04 -0.14090982954E+04  0.20592302345E+04  0.12509000329E+03 0.  0.
         24    2    1    2    0    0 -0.57928622541E+03  0.13497056478E+04  0.49092449189E+03  0.15508665492E+04  0.83080262591E+02 0.  0.
        -13    1    5    5    0    0 -0.28302507541E+03  0.58156032456E+03  0.18701677122E+03  0.67326880006E+03  0.00000000000E+00 0.  1.
         14    1    5    5    0    0 -0.29626115000E+03  0.76814532323E+03  0.30390772067E+03  0.87759774913E+03  0.00000000000E+00 0. -1.
         11    1    3    3    0    0  0.44814818864E+01 -0.94491305977E+00  0.29846370944E+02  0.30195734783E+02  0.00000000000E+00 0. -1.
        -12    1    3    3    0    0  0.63656960092E+02  0.57635933033E+02 -0.32260039577E+02  0.91732325264E+02  0.00000000000E+00 0.  1.
          5    1    4    4  501    0  0.51787045210E+03 -0.13871170376E+04 -0.13861265207E+04  0.20282129288E+04  0.41800000000E+01 0. -1.
         -5    1    4    4    0  501 -0.67226686690E+01 -0.19279630204E+02 -0.22971774711E+02  0.31017305625E+02  0.41800000000E+01 0. -1.
</event>
<event>
11    1  0.8039394E-009  0.1510716E+03  0.7561462E-02  0.1095789E+00
         22   -1    0    0    0    0  0.00000000000E+00  0.00000000000E+00  0.13641720395E+04  0.13641720395E+04  0.00000000000E+00 0. -1.
         22   -1    0    0    0    0 -0.00000000000E+00 -0.00000000000E+00 -0.24657817224E+03  0.24657817224E+03  0.00000000000E+00 0. -1.
        -24    2    1    2    0    0 -0.30318189736E+02  0.81776393662E+02 -0.21730633401E+03  0.25189572557E+03  0.92859262172E+02 0.  0.
         25    2    1    2    0    0 -0.16615945777E+02 -0.20833251394E+02  0.47916782919E+03  0.49594353770E+03  0.12509224612E+03 0.  0.
         24    2    1    2    0    0  0.46934135512E+02 -0.60943142268E+02  0.85573237203E+03  0.86291094844E+03  0.80128226760E+02 0.  0.
        -11    1    5    5    0    0  0.53453550054E+02 -0.57566609981E+02  0.43010168391E+03  0.43721694284E+03  0.00000000000E+00 0.  1.
         12    1    5    5    0    0 -0.65194145418E+01 -0.33765322875E+01  0.42563068812E+03  0.42569400560E+03  0.00000000000E+00 0. -1.
         13    1    3    3    0    0 -0.59304182726E+02  0.76369800856E+02 -0.18017802666E+03  0.20448338285E+03  0.00000000000E+00 0. -1.
        -14    1    3    3    0    0  0.28985992991E+02  0.54065928060E+01 -0.37128307346E+02  0.47412342715E+02  0.00000000000E+00 0.  1.
          5    1    4    4  501    0 -0.55260471552E+02 -0.11414404897E+02  0.10184532736E+03  0.11650730218E+03  0.41800000000E+01 0. -1.
         -5    1    4    4    0  501  0.38644525775E+02 -0.94188464965E+01  0.37732250182E+03  0.37943623552E+03  0.41800000000E+01 0. -1.
</event>
<event>
11    1  0.8039394E-009  0.1622598E+03  0.7561462E-02  0.1084971E+00
         22   -1    0    0    0    0  0.00000000000E+00  0.00000000000E+00  0.50015710323E+03  0.50015710323E+03  0.00000000000E+00 0. -1.
         22   -1    0    0    0    0 -0.00000000000E+00 -0.00000000000E+00 -0.26558246307E+03  0.26558246307E+03  0.00000000000E+00 0.  1.
         24    2    1    2    0    0 -0.10308947310E+03 -0.18978353660E+02 -0.20995559767E+03  0.24850987692E+03  0.81781346071E+02 0.  0.
         25    2    1    2    0    0  0.88289006483E+02  0.72270726204E+01  0.16417313730E+03  0.22461802765E+03  0.12511298928E+03 0.  0.
        -24    2    1    2    0    0  0.14800466615E+02  0.11751281039E+02  0.28035710052E+03  0.29261166173E+03  0.81635374377E+02 0.  0.
        -11    1    3    3    0    0 -0.85800524054E+02 -0.33089775667E+02 -0.98152452926E+02  0.13450117917E+03  0.00000000000E+00 0.  1.
         12    1    3    3    0    0 -0.17288949044E+02  0.14111422008E+02 -0.11180314474E+03  0.11400869776E+03  0.00000000000E+00 0. -1.
         13    1    5    5    0    0 -0.21332480675E+02 -0.24174043285E+02  0.92055922010E+02  0.97538463580E+02  0.00000000000E+00 0. -1.
        -14    1    5    5    0    0  0.36132947290E+02  0.35925324324E+02  0.18830117851E+03  0.19507319815E+03  0.00000000000E+00 0.  1.
          5    1    4    4  501    0  0.83640842906E+02  0.34803825452E+02  0.17271720602E+03  0.19507896484E+03  0.41800000000E+01 0. -1.
         -5    1    4    4    0  501  0.46481635773E+01 -0.27576752832E+02 -0.85440687129E+01  0.29539062808E+02  0.41800000000E+01 0. -1.
</event>
<event>
11    1  0.8039394E-009  0.3619967E+03  0.7561462E-02  0.9769062E-01
         22   -1    0    0    0    0  0.00000000000E+00  0.00000000000E+00  0.12863690647E+04  0.12863690647E+04  0.00000000000E+00 0. -1.
         22   -1    0    0    0    0 -0.00000000000E+00 -0.00000000000E+00 -0.96407265532E+03  0.96407265532E+03  0.00000000000E+00 0.  1.
        -24    2    1    2    0    0 -0.45224039319E+02  0.77231501288E+02 -0.56482892052E+03  0.57757192306E+03  0.80917849240E+02 0.  0.
         25    2    1    2    0    0  0.22998485860E+02 -0.41134389709E+03 -0.24104929655E+03  0.49344171946E+03  0.12508890881E+03 0.  0.
         24    2    1    2    0    0  0.22225553459E+02  0.33411239580E+03  0.11281746265E+04  0.11794280775E+04  0.78406211419E+02 0.  0.
        -13    1    5    5    0    0  0.37825009728E+02  0.71995924430E+02  0.26733074449E+03  0.27942775711E+03  0.00000000000E+00 0.  1.
         14    1    5    5    0    0 -0.15599456268E+02  0.26211647137E+03  0.86084388197E+03  0.90000032040E+03  0.00000000000E+00 0. -1.
         11    1    3    3    0    0  0.11999385562E+02 -0.50589968097E+01 -0.21985591461E+02  0.25552787216E+02  0.00000000000E+00 0. -1.
        -12    1    3    3    0    0 -0.57223424882E+02  0.82290498098E+02 -0.54284332906E+03  0.55201913584E+03  0.00000000000E+00 0.  1.
          5    1    4    4  501    0 -0.64259887935E+01 -0.29365470472E+03 -0.22701067395E+03  0.37124883491E+03  0.41800000000E+01 0. -1.
         -5    1    4    4    0  501  0.29424474653E+02 -0.11768919237E+03 -0.14038622607E+02  0.12219288455E+03  0.41800000000E+01 0. -1.
</event>
<event>
11    1  0.8039394E-009  0.1481194E+03  0.7561462E-02  0.1098816E+00
         22   -1    0    0    0    0  0.00000000000E+00  0.00000000000E+00  0.80365883782E+02  0.80365883782E+02  0.00000000000E+00 0. -1.
         22   -1    0    0    0    0 -0.00000000000E+00 -0.00000000000E+00 -0.12437475201E+04  0.12437475201E+04  0.00000000000E+00 0.  1.
         24    2    1    2    0    0 -0.75850657129E+02 -0.32201167000E+02 -0.66795739457E+03  0.67765685486E+03  0.79129606627E+02 0.  0.
         25    2    1    2    0    0  0.59407845812E+02  0.45353255049E+02 -0.53531382787E+03  0.55479263431E+03  0.12509101842E+03 0.  0.
        -24    2    1    2    0    0  0.16442811316E+02 -0.13152088049E+02  0.39889586121E+02  0.91663914704E+02  0.79798187410E+02 0.  0.
        -11    1    3    3    0    0 -0.59375173260E+02 -0.57690914715E+02 -0.52758195868E+03  0.53403780387E+03  0.00000000000E+00 0.  1.
         12    1    3    3    0    0 -0.16475483869E+02  0.25489747716E+02 -0.14037543588E+03  0.14361905099E+03  0.00000000000E+00 0. -1.
         13    1    5    5    0    0  0.51590827964E+01 -0.46750563416E+02  0.21128229792E+02  0.51561937601E+02  0.00000000000E+00 0. -1.
        -14    1    5    5    0    0  0.11283728520E+02  0.33598475367E+02  0.18761356328E+02  0.40101977103E+02  0.00000000000E+00 0.  1.
          5    1    4    4  501    0  0.86436628847E+02  0.58933319314E+02 -0.30514660113E+03  0.32260866001E+03  0.41800000000E+01 0. -1.
         -5    1    4    4    0  501 -0.27028783035E+02 -0.13580064265E+02 -0.23016722674E+03  0.23218397430E+03  0.41800000000E+01 0. -1.
</event>
<event>
11    1  0.8039394E-009  0.1449056E+03  0.7561462E-02  0.1102201E+00
         22   -1    0    0    0    0  0.00000000000E+00  0.00000000000E+00  0.57460025825E+03  0.57460025825E+03  0.00000000000E+00 0. -1.
         22   -1    0    0    0    0 -0.00000000000E+00 -0.00000000000E+00 -0.63046940477E+03  0.63046940477E+03  0.00000000000E+00 0. -1.
        -24    2    1    2    0    0 -0.44499736005E+01 -0.29815280548E+02 -0.57173635102E+03  0.57812022675E+03  0.80198430659E+02 0.  0.
         25    2    1    2    0    0 -0.68879855239E+02  0.20135834705E+02  0.57115609218E+02  0.15514731992E+03  0.12513437483E+03 0.  0.
         24    2    1    2    0    0  0.73329828840E+02  0.96794458428E+01  0.45875159528E+03  0.47180211637E+03  0.81689995517E+02 0.  0.
        -13    1    5    5    0    0  0.36086850548E+02  0.16201215071E+02  0.63958312335E+02  0.75202432600E+02  0.00000000000E+00 0.  1.
         14    1    5    5    0    0  0.37242978292E+02 -0.65217692280E+01  0.39479328294E+03  0.39659968377E+03  0.00000000000E+00 0. -1.
         11    1    3    3    0    0 -0.28932112402E+02 -0.12635341551E+02 -0.49113561985E+03  0.49214928230E+03  0.00000000000E+00 0. -1.
        -12    1    3    3    0    0  0.24482138801E+02 -0.17179938997E+02 -0.80600731171E+02  0.85970944450E+02  0.00000000000E+00 0.  1.
          5    1    4    4  501    0 -0.13877398545E+02  0.60769778201E+02  0.59938566446E+02  0.86577435170E+02  0.41800000000E+01 0.  1.
         -5    1    4    4    0  501 -0.55002456694E+02 -0.40633943496E+02 -0.28229572286E+01  0.68569884745E+02  0.41800000000E+01 0.  1.
</event>
<event>
11    1  0.8039394E-009  0.1317085E+03  0.7561462E-02  0.1117187E+00
         22   -1    0    0    0    0  0.00000000000E+00  0.00000000000E+00  0.13569014255E+03  0.13569014255E+03  0.00000000000E+00 0. -1.
         22   -1    0    0    0    0 -0.00000000000E+00 -0.00000000000E+00 -0.45811660730E+03  0.45811660730E+03  0.00000000000E+00 0. -1.
         24    2    1    2    0    0  0.10494109913E+02 -0.20804386319E+02 -0.33128240600E+03  0.34164679065E+03  0.80196933881E+02 0.  0.
         25    2    1    2    0    0  0.25401699171E+02  0.40293840294E+02 -0.52363435332E+02  0.14372872751E+03  0.12508868000E+03 0.  0.
        -24    2    1    2    0    0 -0.35895809084E+02 -0.19489453975E+02  0.61219376578E+02  0.10843123170E+03  0.79631476271E+02 0.  0.
        -13    1    3    3    0    0  0.22269252808E+02 -0.24119701450E+01 -0.21345261185E+02  0.30941192538E+02  0.00000000000E+00 0.  1.
         14    1    3    3    0    0 -0.11775142895E+02 -0.18392416174E+02 -0.30993714481E+03  0.31070559811E+03  0.00000000000E+00 0. -1.
         13    1    5    5    0    0 -0.23132079952E+02 -0.31011250285E+02  0.76307706819E+02  0.85554993350E+02  0.00000000000E+00 0. -1.
        -14    1    5    5    0    0 -0.12763729132E+02  0.11521796310E+02 -0.15088330241E+02  0.22876238349E+02  0.00000000000E+00 0.  1.
          5    1    4    4  501    0  0.68965145208E+02  0.37672701647E+02 -0.60341883308E+02  0.99166723169E+02  0.41800000000E+01 0. -1.
         -5    1    4    4    0  501 -0.43563446037E+02  0.26211386472E+01  0.79784479763E+01  0.44562004337E+02  0.41800000000E+01 0. -1.
</event>
<event>
11    1  0.8039394E-009  0.1843845E+03  0.7561462E-02  0.1066150E+00
         22   -1    0    0    0    0  0.00000000000E+00  0.00000000000E+00  0.10357136197E+03  0.10357136197E+03  0.00000000000E+00 0.  1.
         22   -1    0    0    0    0 -0.00000000000E+00 -0.00000000000E+00 -0.98102607600E+03  0.98102607600E+03  0.00000000000E+00 0. -1.
        -24    2    1    2    0    0 -0.41575388468E+02  0.12839691286E+03 -0.76639165050E+03  0.78238955139E+03  0.81012147236E+02 0.  0.
         25    2    1    2    0    0  0.43420192783E+02 -0.13345520758E+03 -0.36429931088E+02  0.19149420535E+03  0.12508910917E+03 0.  0.
         24    2    1    2    0    0 -0.18448043155E+01  0.50582947205E+01 -0.74633132445E+02  0.11071368124E+03  0.81599173439E+02 0.  0.
        -13    1    5    5    0    0  0.30256639480E+02  0.21227855203E+02 -0.12655100524E+02  0.39067091502E+02  0.00000000000E+00 0.  1.
         14    1    5    5    0    0 -0.32101443795E+02 -0.16169560482E+02 -0.61978031921E+02  0.71646589735E+02  0.00000000000E+00 0. -1.
         11    1    3    3    0    0 -0.23394446713E+02  0.13567781472E+03 -0.68146089182E+03  0.69522997391E+03  0.00000000000E+00 0. -1.
        -12    1    3    3    0    0 -0.18180941755E+02 -0.72809018652E+01 -0.84930758680E+02  0.87159577471E+02  0.00000000000E+00 0.  1.
          5    1    4    4  501    0 -0.32594159649E+01 -0.13900421310E+03 -0.38240506637E+02  0.14426574021E+03  0.41800000000E+01 0.  1.
         -5    1    4    4    0  501  0.46679608748E+02  0.55490055206E+01  0.18105755494E+01  0.47228465135E+02  0.41800000000E+01 0.  1.
</event>
<event>
11    1  0.8039394E-009  0.1375485E+03  0.7561462E-02  0.1110327E+00
         22   -1    0    0    0    0  0.00000000000E+00  0.00000000000E+00  0.20648394223E+03  0.20648394223E+03  0.00000000000E+00 0. -1.
         22   -1    0    0    0    0 -0.00000000000E+00 -0.00000000000E+00 -0.11195991302E+04  0.11195991302E+04  0.00000000000E+00 0.  1.
        -24    2    1    2    0    0  0.39799377712E+02  0.44706764400E+02 -0.97871038533E+03  0.98406127301E+03  0.83185848697E+02 0.  0.
         25    2    1    2    0    0  0.14071942306E+02 -0.41153907856E+02 -0.89234398592E+02  0.15969321438E+03  0.12508989222E+03 0.  0.
         24    2    1    2    0    0 -0.53871320018E+02 -0.35528565439E+01  0.15482959597E+03  0.18232858503E+03  0.79729337256E+02 0.  0.
        -11    1    5    5    0    0  0.72585426191E+01  0.20892218405E+02  0.12250525119E+02  0.25283326453E+02  0.00000000000E+00 0.  1.
         12    1    5    5    0    0 -0.61129862637E+02 -0.24445074949E+02  0.14257907086E+03  0.15704525858E+03  0.00000000000E+00 0. -1.
         13    1    3    3    0    0  0.63690221442E+02  0.24645198726E+02 -0.77135364380E+03  0.77437088913E+03  0.00000000000E+00 0. -1.
        -14    1    3    3    0    0 -0.23890843730E+02  0.20061565674E+02 -0.20735674154E+03  0.20969038388E+03  0.00000000000E+00 0.  1.
          5    1    4    4  501    0  0.67596213517E+02 -0.26528015496E+02 -0.30753264187E+02  0.78969736900E+02  0.41800000000E+01 0. -1.
         -5    1    4    4    0  501 -0.53524271211E+02 -0.14625892361E+02 -0.58481134404E+02  0.80723477484E+02  0.41800000000E+01 0. -1.
</event>
<event>
11    1  0.8039394E-009  0.1352769E+03  0.7561462E-02  0.1112950E+00
         22   -1    0    0    0    0  0.00000000000E+00  0.00000000000E+00  0.53339867935E+03  0.53339867935E+03  0.00000000000E+00 0.  1.
         22   -1    0    0    0    0 -0.00000000000E+00 -0.00000000000E+00 -0.10083026721E+03  0.10083026721E+03  0.00000000000E+00 0.  1.
        -24    2    1    2    0    0  0.32693176697E+02  0.40543150955E+02 -0.22936635760E+02  0.97424906867E+02  0.79075484989E+02 0.  0.
         25    2    1    2    0    0 -0.56320083162E+02 -0.75508020455E+02  0.15034573684E+03  0.21708229858E+03  0.12508985111E+03 0.  0.
         24    2    1    2    0    0  0.23626906465E+02  0.34964869500E+02  0.30515931106E+03  0.31972174111E+03  0.85551234984E+02 0.  0.
        -11    1    5    5    0    0  0.16017439930E+02  0.11343984890E+02  0.28995406044E+03  0.29061762084E+03  0.00000000000E+00 0.  1.
         12    1    5    5    0    0  0.76094665353E+01  0.23620884610E+02  0.15205250616E+02  0.29104120275E+02  0.00000000000E+00 0. -1.
         11    1    3    3    0    0  0.18098523659E+02 -0.23952716854E+00  0.26249398022E+02  0.31884868330E+02  0.00000000000E+00 0. -1.
        -12    1    3    3    0    0  0.14594653038E+02  0.40782678124E+02 -0.49186033782E+02  0.65540038537E+02  0.00000000000E+00 0.  1.
          5    1    4    4  501    0 -0.54567955914E+01 -0.33203598516E+02 -0.16383754830E+02  0.37658404040E+02  0.41800000000E+01 0.  1.
         -5    1    4    4    0  501 -0.50863287571E+02 -0.42304421939E+02  0.16672949167E+03  0.17942389454E+03  0.41800000000E+01 0.  1.
</event>
<event>
11    1  0.8039394E-009  0.1380335E+03  0.7561462E-02  0.1109774E+00
         22   -1    0    0    0    0  0.00000000000E+00  0.00000000000E+00  0.75033346603E+03  0.75033346603E+03  0.00000000000E+00 0.  1.
         22   -1    0    0    0    0 -0.00000000000E+00 -0.00000000000E+00 -0.11538536864E+04  0.11538536864E+04  0.00000000000E+00 0.  1.
         24    2    1    2    0    0 -0.92613098544E+01 -0.52949984992E+02 -0.11289780445E+04  0.11335628754E+04  0.86509506726E+02 0.  0.
         25    2    1    2    0    0 -0.29919619058E+02 -0.54814107856E+01  0.22741139041E+03  0.26132095664E+03  0.12508985739E+03 0.  0.
        -24    2    1    2    0    0  0.39180928912E+02  0.58431395777E+02  0.49804643368E+03  0.50930332043E+03  0.79939032409E+02 0.  0.
        -11    1    3    3    0    0  0.96686829702E+01 -0.63557721651E+02 -0.10396942548E+04  0.10416799944E+04  0.00000000000E+00 0.  1.
         12    1    3    3    0    0 -0.18929992825E+02  0.10607736660E+02 -0.89283789717E+02  0.91882880950E+02  0.00000000000E+00 0. -1.
         13    1    5    5    0    0 -0.56328338250E+01  0.26203759169E+02  0.41307514706E+02  0.49241005094E+02  0.00000000000E+00 0. -1.
        -14    1    5    5    0    0  0.44813762737E+02  0.32227636608E+02  0.45673891897E+03  0.46006231534E+03  0.00000000000E+00 0.  1.
          5    1    4    4  501    0 -0.58945394909E+02  0.40414881565E+02  0.10224118541E+03  0.12481448084E+03  0.41800000000E+01 0. -1.
         -5    1    4    4    0  501  0.29025775851E+02 -0.45896292350E+02  0.12517020500E+03  0.13650647580E+03  0.41800000000E+01 0. -1.
</event>
<event>
11    1  0.8039394E-009  0.1331657E+03  0.7561462E-02  0.1115439E+00
         22   -1    0    0    0    0  0.00000000000E+00  0.00000000000E+00  0.75850117427E+03  0.75850117427E+03  0.00000000000E+00 0.  1.
         22   -1    0    0    0    0 -0.00000000000E+00 -0.00000000000E+00 -0.44794054982E+03  0.44794054982E+03  0.00000000000E+00 0. -1.
        -24    2    1    2    0    0 -0.98611189014E+01  0.43983945250E+02 -0.37914462066E+03  0.39197260711E+03  0.88656935675E+02 0.  0.
         25    2    1    2    0    0  0.44639728644E+02 -0.43718832280E+02  0.22740753626E+02  0.14166212135E+03  0.12508786144E+03 0.  0.
         24    2    1    2    0    0 -0.34778609743E+02 -0.26511297023E+00  0.66696449148E+03  0.67280699564E+03  0.81351081727E+02 0.  0.
        -13    1    5    5    0    0 -0.98498718805E+01  0.10258713773E+02  0.60529695806E+03  0.60546401101E+03  0.00000000000E+00 0.  1.
         14    1    5    5    0    0 -0.24928737862E+02 -0.10523826743E+02  0.61667533417E+02  0.67342984627E+02  0.00000000000E+00 0. -1.
         11    1    3    3    0    0  0.27074153809E+02  0.28028544801E+02 -0.30618193346E+03  0.30865188401E+03  0.00000000000E+00 0. -1.
        -12    1    3    3    0    0 -0.36935272711E+02  0.15955400449E+02 -0.72962687197E+02  0.83320723093E+02  0.00000000000E+00 0.  1.
          5    1    4    4  501    0  0.78382250746E+02 -0.36929171789E+02  0.47647933502E+02  0.98971404598E+02  0.41800000000E+01 0.  1.
         -5    1    4    4    0  501 -0.33742522102E+02 -0.67896604903E+01 -0.24907179876E+02  0.42690716751E+02  0.41800000000E+01 0.  1.
</event>
<event>
11    1  0.8039394E-009  0.1423288E+03  0.7561462E-02  0.1104985E+00
         22   -1    0    0    0    0  0.00000000000E+00  0.00000000000E+00  0.38943631017E+03  0.38943631017E+03  0.00000000000E+00 0. -1.
         22   -1    0    0    0    0 -0.00000000000E+00 -0.00000000000E+00 -0.56459914285E+03  0.56459914285E+03  0.00000000000E+00 0.  1.
         24    2    1    2    0    0 -0.17889374819E+02  0.68294485019E+02 -0.49488850495E+03  0.50651064363E+03  0.81573484462E+02 0.  0.
         25    2    1    2    0    0  0.30409450695E+02 -0.25018577090E+02  0.20475537268E+02  0.13273406348E+03  0.12509364528E+03 0.  0.
        -24    2    1    2    0    0 -0.12520075877E+02 -0.43275907929E+02  0.29925013500E+03  0.31479074591E+03  0.86677643623E+02 0.  0.
        -13    1    3    3    0    0 -0.41094430223E+02  0.56317108819E+02 -0.22989068144E+03  0.24022925374E+03  0.00000000000E+00 0.  1.
         14    1    3    3    0    0  0.23205055405E+02  0.11977376200E+02 -0.26499782351E+03  0.26628138989E+03  0.00000000000E+00 0. -1.
         13    1    5    5    0    0 -0.35247965990E+02 -0.58762972027E+02  0.18517118941E+03  0.19744334725E+03  0.00000000000E+00 0. -1.
        -14    1    5    5    0    0  0.22727890113E+02  0.15487064098E+02  0.11407894560E+03  0.11734739866E+03  0.00000000000E+00 0.  1.
          5    1    4    4  501    0  0.72767782581E+02 -0.35742511326E+02 -0.61220252256E+01  0.81410250525E+02  0.41800000000E+01 0.  1.
         -5    1    4    4    0  501 -0.42358331886E+02  0.10723934236E+02  0.26597562493E+02  0.51323812955E+02  0.41800000000E+01 0.  1.
</event>
<event>
11    1  0.8039394E-009  0.1301868E+03  0.7561462E-02  0.1119040E+00
         22   -1    0    0    0    0  0.00000000000E+00  0.00000000000E+00  0.77215887191E+03  0.77215887191E+03  0.00000000000E+00 0. -1.
         22   -1    0    0    0    0 -0.00000000000E+00 -0.00000000000E+00 -0.97017868518E+02  0.97017868518E+02  0.00000000000E+00 0. -1.
        -24    2    1    2    0    0  0.30219369200E+02 -0.16665374179E+02 -0.54169118881E+02  0.99859622796E+02  0.76463755161E+02 0.  0.
         25    2    1    2    0    0 -0.43192618582E+02  0.37225023786E+02  0.27594658103E+03  0.30829498321E+03  0.12509187183E+03 0.  0.
         24    2    1    2    0    0  0.12973249382E+02 -0.20559649608E+02  0.45336354125E+03  0.46102213442E+03  0.80074362312E+02 0.  0.
        -11    1    5    5    0    0 -0.29490135313E+02 -0.14776928612E+02  0.10569942917E+03  0.11072666809E+03  0.00000000000E+00 0.  1.
         12    1    5    5    0    0  0.42463384695E+02 -0.57827209960E+01  0.34766411208E+03  0.35029546633E+03  0.00000000000E+00 0. -1.
         11    1    3    3    0    0  0.13590834721E+01  0.10145172334E+02 -0.59262354086E+02  0.60139822426E+02  0.00000000000E+00 0. -1.
        -12    1    3    3    0    0  0.28860285728E+02 -0.26810546513E+02  0.50932352045E+01  0.39719800371E+02  0.00000000000E+00 0.  1.
          5    1    4    4  501    0 -0.35213707319E+02  0.71740847103E+02  0.25424109460E+03  0.26653847923E+03  0.41800000000E+01 0. -1.
         -5    1    4    4    0  501 -0.79789112632E+01 -0.34515823316E+02  0.21705486431E+02  0.41756503989E+02  0.41800000000E+01 0. -1.
</event>
<event>
11    1  0.8039394E-009  0.1279030E+03  0.7561462E-02  0.1121873E+00
         22   -1    0    0    0    0  0.00000000000E+00  0.00000000000E+00  0.91057013172E+03  0.91057013172E+03  0.00000000000E+00 0. -1.
         22   -1    0    0    0    0 -0.00000000000E+00 -0.00000000000E+00 -0.96597127938E+03  0.96597127938E+03  0.00000000000E+00 0. -1.
         24    2    1    2    0    0  0.17970109652E+02 -0.20875590244E+02 -0.75055443533E+03  0.75512078495E+03  0.78209490282E+02 0.  0.
         25    2    1    2    0    0 -0.35413241666E+02 -0.79281432568E+01 -0.19128066211E+03  0.23141452439E+03  0.12508971685E+03 0.  0.
        -24    2    1    2    0    0  0.17443132013E+02  0.28803733501E+02  0.88643394977E+03  0.89000610176E+03  0.72192769350E+02 0.  0.
        -13    1    3    3    0    0  0.84851886157E+01  0.27955108649E+02 -0.39850655028E+03  0.39957597168E+03  0.00000000000E+00 0.  1.
         14    1    3    3    0    0  0.94849210368E+01 -0.48830698894E+02 -0.35204788505E+03  0.35554481328E+03  0.00000000000E+00 0. -1.
         13    1    5    5    0    0 -0.12916925537E+02  0.43858069676E+02  0.49314525166E+03  0.49526015030E+03  0.00000000000E+00 0. -1.
        -14    1    5    5    0    0  0.30360057550E+02 -0.15054336175E+02  0.39328869811E+03  0.39474595146E+03  0.00000000000E+00 0.  1.
          5    1    4    4  501    0  0.13429825317E+02  0.32609939017E+02 -0.15322837491E+03  0.15729010016E+03  0.41800000000E+01 0.  1.
         -5    1    4    4    0  501 -0.48843066982E+02 -0.40538082274E+02 -0.38052287196E+02  0.74124424230E+02  0.41800000000E+01 0.  1.
</event>
<event>
11    1  0.8039394E-009  0.1386118E+03  0.7561462E-02  0.1109119E+00
         22   -1    0    0    0    0  0.00000000000E+00  0.00000000000E+00  0.12940770859E+04  0.12940770859E+04  0.00000000000E+00 0.  1.
         22   -1    0    0    0    0 -0.00000000000E+00 -0.00000000000E+00 -0.77241768126E+02  0.77241768126E+02  0.00000000000E+00 0. -1.
         24    2    1    2    0    0 -0.51159131197E+02  0.29215179691E+02 -0.26100867014E+02  0.10299862843E+03  0.80353461471E+02 0.  0.
         25    2    1    2    0    0  0.45374980684E+02 -0.62782311856E+02  0.53842220750E+03  0.55816368286E+03  0.12509083014E+03 0.  0.
        -24    2    1    2    0    0  0.57841505129E+01  0.33567132165E+02  0.70451397727E+03  0.71015654271E+03  0.82596381470E+02 0.  0.
        -11    1    3    3    0    0 -0.62080916418E+02  0.39448750164E+02 -0.74876460640E+00  0.73558172362E+02  0.00000000000E+00 0.  1.
         12    1    3    3    0    0  0.10921785221E+02 -0.10233570473E+02 -0.25352102408E+02  0.29440456068E+02  0.00000000000E+00 0. -1.
         13    1    5    5    0    0  0.29854799187E+02  0.45283192169E+02  0.59295348329E+03  0.59542901329E+03  0.00000000000E+00 0. -1.
        -14    1    5    5    0    0 -0.24070648675E+02 -0.11716060003E+02  0.11156049398E+03  0.11472752942E+03  0.00000000000E+00 0.  1.
          5    1    4    4  501    0  0.78369717455E+02 -0.21737630363E+02  0.42894455404E+03  0.43660650479E+03  0.41800000000E+01 0. -1.
         -5    1    4    4    0  501 -0.32994736771E+02 -0.41044681493E+02  0.10947765346E+03  0.12155717807E+03  0.41800000000E+01 0. -1.
</event>
<event>
11    1  0.8701933E-009  0.3301866E+03  0.7561462E-02  0.9881675E-01
         22   -1    0    0    0    0  0.00000000000E+00  0.00000000000E+00  0.86862145446E+03  0.86862145446E+03  0.00000000000E+00 0. -1.
         22   -1    0    0    0    0 -0.00000000000E+00 -0.00000000000E+00 -0.36681093293E+03  0.36681093293E+03  0.00000000000E+00 0. -1.
         24    2    1    2    0    0  0.45104472283E+02  0.62876791994E+01 -0.25392061563E+02  0.96124722066E+02  0.80754300643E+02 0.  0.
         25    2    1    2    0    0  0.12041232488E+03  0.25445278688E+03 -0.18465664907E+03  0.35915343535E+03  0.12509102023E+03 0.  0.
        -24    2    1    2    0    0 -0.16551679716E+03 -0.26074046608E+03  0.71185923216E+03  0.78015422998E+03  0.80719609432E+02 0.  0.
        -11    1    3    3    0    0  0.34711694776E+02 -0.26766878127E+02  0.11698085645E+02  0.45367529431E+02  0.00000000000E+00 0.  1.
         12    1    3    3    0    0  0.10392777507E+02  0.33054557327E+02 -0.37090147207E+02  0.50757192635E+02  0.00000000000E+00 0. -1.
         13    1    5    5    0    0  0.74146824510E+01 -0.90681265202E+01  0.48387803625E+02  0.49785419292E+02  0.00000000000E+00 0. -1.
        -14    1    5    5    0    0 -0.17293147962E+03 -0.25167233956E+03  0.66347142854E+03  0.73036881069E+03  0.00000000000E+00 0.  1.
          5    1    4    4  501    0  0.72569589333E+01  0.14451194283E+03 -0.12213580772E+03  0.18939639121E+03  0.41800000000E+01 0.  1.
         -5    1    4    4    0  501  0.11315536595E+03  0.10994084404E+03 -0.62520841342E+02  0.16975704414E+03  0.41800000000E+01 0.  1.
</event>
<event>
11    1  0.8039394E-009  0.1441715E+03  0.7561462E-02  0.1102988E+00
         22   -1    0    0    0    0  0.00000000000E+00  0.00000000000E+00  0.49938446267E+03  0.49938446267E+03  0.00000000000E+00 0.  1.
         22   -1    0    0    0    0 -0.00000000000E+00 -0.00000000000E+00 -0.92429725752E+02  0.92429725752E+02  0.00000000000E+00 0.  1.
        -24    2    1    2    0    0  0.10184555367E+02  0.57334808558E+02  0.35209585267E+02  0.10586681879E+03  0.81099093617E+02 0.  0.
         25    2    1    2    0    0  0.19205307835E+02 -0.11386384022E+03  0.10474658110E+03  0.19988841623E+03  0.12509881987E+03 0.  0.
         24    2    1    2    0    0 -0.29389863202E+02  0.56529031661E+02  0.26699857055E+03  0.28605895340E+03  0.80512065349E+02 0.  0.
        -13    1    5    5    0    0  0.17791778607E+02  0.52266248243E+02  0.13783069223E+03  0.14847763404E+03  0.00000000000E+00 0.  1.
         14    1    5    5    0    0 -0.47181641808E+02  0.42627834178E+01  0.12916787832E+03  0.13758131935E+03  0.00000000000E+00 0. -1.
         13    1    3    3    0    0  0.36107903278E+02  0.33472591072E+01 -0.25769152498E+00  0.36263635057E+02  0.00000000000E+00 0. -1.
        -14    1    3    3    0    0 -0.25923347911E+02  0.53987549451E+02  0.35467276792E+02  0.69603183732E+02  0.00000000000E+00 0.  1.
          5    1    4    4  501    0  0.68498720656E+02 -0.45652047505E+02  0.72148457741E+02  0.10954020507E+03  0.41800000000E+01 0.  1.
         -5    1    4    4    0  501 -0.49293412821E+02 -0.68211792714E+02  0.32598123361E+02  0.90348211158E+02  0.41800000000E+01 0.  1.
</event>
<event>
11    1  0.8039394E-009  0.1307155E+03  0.7561462E-02  0.1118393E+00
         22   -1    0    0    0    0  0.00000000000E+00  0.00000000000E+00  0.10877931951E+04  0.10877931951E+04  0.00000000000E+00 0.  1.
         22   -1    0    0    0    0 -0.00000000000E+00 -0.00000000000E+00 -0.23694318628E+04  0.23694318628E+04  0.00000000000E+00 0. -1.
         24    2    1    2    0    0  0.30942387809E+02  0.39531382245E+02 -0.22913921557E+04  0.22933483752E+04  0.80303158946E+02 0.  0.
         25    2    1    2    0    0 -0.67226018514E+02 -0.44588263565E+02  0.18204867514E+00  0.14884584529E+03  0.12509037415E+03 0.  0.
        -24    2    1    2    0    0  0.36283630705E+02  0.50568813194E+01  0.10095714393E+04  0.10150308374E+04  0.98544588200E+02 0.  0.
        -13    1    3    3    0    0  0.23689191838E+02 -0.68900928973E+01 -0.21281002962E+03  0.21423529096E+03  0.00000000000E+00 0.  1.
         14    1    3    3    0    0  0.72531959717E+01  0.46421475143E+02 -0.20785821261E+04  0.20791130842E+04  0.00000000000E+00 0. -1.
         13    1    5    5    0    0  0.17988412941E+02 -0.43044826475E+02  0.30110156360E+03  0.30469425937E+03  0.00000000000E+00 0. -1.
        -14    1    5    5    0    0  0.18295217764E+02  0.48101707794E+02  0.70846987568E+03  0.71033657799E+03  0.00000000000E+00 0.  1.
          5    1    4    4  501    0 -0.66748084919E+01  0.38101792639E+02  0.20951167901E+02  0.44189631217E+02  0.41800000000E+01 0.  1.
         -5    1    4    4    0  501 -0.60551210022E+02 -0.82690056204E+02 -0.20769119225E+02  0.10465621407E+03  0.41800000000E+01 0.  1.
</event>
<event>
11    1  0.8039394E-009  0.1501156E+03  0.7561462E-02  0.1096761E+00
         22   -1    0    0    0    0  0.00000000000E+00  0.00000000000E+00  0.36099342974E+03  0.36099342974E+03  0.00000000000E+00 0.  1.
         22   -1    0    0    0    0 -0.00000000000E+00 -0.00000000000E+00 -0.11227868960E+04  0.11227868960E+04  0.00000000000E+00 0. -1.
         24    2    1    2    0    0  0.29454397169E+02  0.78103551723E+02 -0.10718997475E+04  0.10778137100E+04  0.75799726050E+02 0.  0.
         25    2    1    2    0    0  0.17449761082E+02 -0.72164909043E+02  0.90078668143E+02  0.17109654726E+03  0.12509034243E+03 0.  0.
        -24    2    1    2    0    0 -0.46904158251E+02 -0.59386426798E+01  0.22002761305E+03  0.23487006852E+03  0.67205141490E+02 0.  0.
        -11    1    3    3    0    0  0.16386786576E+02  0.18920425020E+02 -0.74863891672E+02  0.78937389959E+02  0.00000000000E+00 0.  1.
         12    1    3    3    0    0  0.13067610594E+02  0.59183126703E+02 -0.99703585580E+03  0.99887632002E+03  0.00000000000E+00 0. -1.
         13    1    5    5    0    0 -0.50283139549E+02 -0.28499847452E+02  0.13537060783E+03  0.14719319580E+03  0.00000000000E+00 0. -1.
        -14    1    5    5    0    0  0.33789812973E+01  0.22561204772E+02  0.84657005226E+02  0.87676872716E+02  0.00000000000E+00 0.  1.
          5    1    4    4  501    0 -0.33633089220E+02  0.16185002132E+02  0.44677678715E+01  0.37822907533E+02  0.41800000000E+01 0. -1.
         -5    1    4    4    0  501  0.51082850302E+02 -0.88349911175E+02  0.85610900271E+02  0.13327363972E+03  0.41800000000E+01 0. -1.
</event>
<event>
11    1  0.8039394E-009  0.2238247E+03  0.7561462E-02  0.1038848E+00
         22   -1    0    0    0    0  0.00000000000E+00  0.00000000000E+00  0.70710002274E+03  0.70710002274E+03  0.00000000000E+00 0.  1.
         22   -1    0    0    0    0 -0.00000000000E+00 -0.00000000000E+00 -0.16147503343E+04  0.16147503343E+04  0.00000000000E+00 0. -1.
        -24    2    1    2    0    0  0.10162064731E+02 -0.18379056887E+03 -0.12670519748E+04  0.12832655275E+04  0.86414503779E+02 0.  0.
         25    2    1    2    0    0 -0.32866253964E+02  0.19136017250E+03 -0.29741155800E+03  0.37656304164E+03  0.12508870145E+03 0.  0.
         24    2    1    2    0    0  0.22704189233E+02 -0.75696036260E+01  0.65681322121E+03  0.66202178793E+03  0.79350242845E+02 0.  0.
        -11    1    5    5    0    0 -0.22333308958E+02 -0.17041733268E+02  0.40952169114E+03  0.41048412013E+03  0.00000000000E+00 0.  1.
         12    1    5    5    0    0  0.45037498191E+02  0.94721296418E+01  0.24729153006E+03  0.25153766780E+03  0.00000000000E+00 0. -1.
         13    1    3    3    0    0  0.21910842960E+02 -0.18345567844E+03 -0.10677402053E+04  0.10836075014E+04  0.00000000000E+00 0. -1.
        -14    1    3    3    0    0 -0.11748778229E+02 -0.33489043289E+00 -0.19931176948E+03  0.19965802612E+03  0.00000000000E+00 0.  1.
          5    1    4    4  501    0 -0.49097003026E+01 -0.83267506247E+01  0.60883873709E+01  0.12164735665E+02  0.41800000000E+01 0.  1.
         -5    1    4    4    0  501 -0.27956553661E+02  0.19968692312E+03 -0.30349994537E+03  0.36439830598E+03  0.41800000000E+01 0.  1.
</event>
<event>
11    1  0.8039394E-009  0.1372299E+03  0.7561462E-02  0.1110692E+00
         22   -1    0    0    0    0  0.00000000000E+00  0.00000000000E+00  0.18713565487E+04  0.18713565487E+04  0.00000000000E+00 0.  1.
         22   -1    0    0    0    0 -0.00000000000E+00 -0.00000000000E+00 -0.82880774147E+03  0.82880774147E+03  0.00000000000E+00 0. -1.
        -24    2    1    2    0    0  0.76571030512E+01 -0.58928858227E+01 -0.75484669796E+03  0.75945470466E+03  0.82973210645E+02 0.  0.
         25    2    1    2    0    0  0.48197765433E+02 -0.31762987999E+01 -0.64018844488E+01  0.13424603526E+03  0.12509156803E+03 0.  0.
         24    2    1    2    0    0 -0.55854868485E+02  0.90691846226E+01  0.18037973897E+04  0.18064635503E+04  0.80146859077E+02 0.  0.
        -11    1    5    5    0    0 -0.28942112644E+02  0.78465000237E+01  0.16534253856E+04  0.16536972877E+04  0.00000000000E+00 0.  1.
         12    1    5    5    0    0 -0.26912755840E+02  0.12226845989E+01  0.15037200402E+03  0.15276626256E+03  0.00000000000E+00 0. -1.
         13    1    3    3    0    0 -0.14382846312E+02 -0.80650172895E+01 -0.70149735368E+03  0.70169113433E+03  0.00000000000E+00 0. -1.
        -14    1    3    3    0    0  0.22039949363E+02  0.21721314668E+01 -0.53349344276E+02  0.57763570334E+02  0.00000000000E+00 0.  1.
          5    1    4    4  501    0  0.12699181690E+02  0.60018768174E+02 -0.28145996923E+01  0.61554172240E+02  0.41800000000E+01 0.  1.
         -5    1    4    4    0  501  0.35498583743E+02 -0.63195066974E+02 -0.35872847564E+01  0.72691863021E+02  0.41800000000E+01 0.  1.
</event>
<event>
11    1  0.8039394E-009  0.1736130E+03  0.7561462E-02  0.1074930E+00
         22   -1    0    0    0    0  0.00000000000E+00  0.00000000000E+00  0.37704192322E+04  0.37704192322E+04  0.00000000000E+00 0.  1.
         22   -1    0    0    0    0 -0.00000000000E+00 -0.00000000000E+00 -0.41362532277E+03  0.41362532277E+03  0.00000000000E+00 0.  1.
        -24    2    1    2    0    0 -0.98926164054E+02 -0.70702787480E+02 -0.38324781376E+03  0.40988183441E+03  0.79617594400E+02 0.  0.
         25    2    1    2    0    0  0.83077195504E+02  0.34643433571E+02  0.34410404348E+03  0.37703729253E+03  0.12509012476E+03 0.  0.
         24    2    1    2    0    0  0.15848968550E+02  0.36059353908E+02  0.33959376797E+04  0.33971254280E+04  0.80727830050E+02 0.  0.
        -13    1    5    5    0    0 -0.19895812788E+01  0.59946239233E+02  0.22249049250E+04  0.22257132419E+04  0.00000000000E+00 0.  1.
         14    1    5    5    0    0  0.17838549829E+02 -0.23886885325E+02  0.11710327547E+04  0.11714121861E+04  0.00000000000E+00 0. -1.
         13    1    3    3    0    0 -0.17837620347E+02 -0.36424041727E+02 -0.45969528299E+02  0.61303254786E+02  0.00000000000E+00 0. -1.
        -14    1    3    3    0    0 -0.81088543707E+02 -0.34278745753E+02 -0.33727828546E+03  0.34857857962E+03  0.00000000000E+00 0.  1.
          5    1    4    4  501    0  0.11826874585E+02 -0.45096944356E+02  0.11546875004E+03  0.12459580245E+03  0.41800000000E+01 0.  1.
         -5    1    4    4    0  501  0.71250320919E+02  0.79740377928E+02  0.22863529345E+03  0.25244149008E+03  0.41800000000E+01 0.  1.
</event>
<event>
11    1  0.8039394E-009  0.4285686E+03  0.7561462E-02  0.9569033E-01
         22   -1    0    0    0    0  0.00000000000E+00  0.00000000000E+00  0.15935876233E+04  0.15935876233E+04  0.00000000000E+00 0. -1.
         22   -1    0    0    0    0 -0.00000000000E+00 -0.00000000000E+00 -0.33529881427E+03  0.33529881427E+03  0.00000000000E+00 0. -1.
         24    2    1    2    0    0 -0.31068918575E+02  0.72477856792E+02 -0.13285356928E+03  0.17390553214E+03  0.79842005300E+02 0.  0.
         25    2    1    2    0    0  0.32669342654E+03 -0.33623729721E+03  0.25299434507E+03  0.54721065999E+03  0.12509697353E+03 0.  0.
        -24    2    1    2    0    0 -0.29562450797E+03  0.26375944042E+03  0.11381480332E+04  0.12077702454E+04  0.79781752674E+02 0.  0.
        -11    1    3    3    0    0 -0.27121011250E+02  0.48833679595E+01 -0.33377857612E+01  0.27758554495E+02  0.00000000000E+00 0.  1.
         12    1    3    3    0    0 -0.39479073243E+01  0.67594488832E+02 -0.12951578352E+03  0.14614697764E+03  0.00000000000E+00 0. -1.
         11    1    5    5    0    0 -0.28960605578E+03  0.23322167711E+03  0.10226982173E+04  0.10881983560E+04  0.00000000000E+00 0. -1.
        -12    1    5    5    0    0 -0.60184521900E+01  0.30537763309E+02  0.11544981587E+03  0.11957188942E+03  0.00000000000E+00 0.  1.
          5    1    4    4  501    0  0.66776577672E+02 -0.14035618835E+03  0.48771638180E+02  0.16295740555E+03  0.41800000000E+01 0. -1.
         -5    1    4    4    0  501  0.25991684887E+03 -0.19588110886E+03  0.20422270689E+03  0.38425325444E+03  0.41800000000E+01 0. -1.
</event>
<event>
11    1  0.8039394E-009  0.1347737E+03  0.7561462E-02  0.1113539E+00
         22   -1    0    0    0    0  0.00000000000E+00  0.00000000000E+00  0.67219199160E+03  0.67219199160E+03  0.00000000000E+00 0.  1.
         22   -1    0    0    0    0 -0.00000000000E+00 -0.00000000000E+00 -0.84979782302E+03  0.84979782302E+03  0.00000000000E+00 0. -1.
        -24    2    1    2    0    0 -0.37175460607E+02  0.34913624571E+02 -0.77387464317E+03  0.78002933792E+03  0.83443565429E+02 0.  0.
         25    2    1    2    0    0  0.20973604759E+01 -0.45359489296E+02 -0.56517442890E+01  0.13319330742E+03  0.12508650102E+03 0.  0.
         24    2    1    2    0    0  0.35078100131E+02  0.10445864725E+02  0.60192055605E+03  0.60876716928E+03  0.83363789543E+02 0.  0.
        -11    1    5    5    0    0  0.61937331958E+02  0.12361317754E+02  0.37905865848E+03  0.38428440228E+03  0.00000000000E+00 0.  1.
         12    1    5    5    0    0 -0.26859231827E+02 -0.19154530291E+01  0.22286189756E+03  0.22448276700E+03  0.00000000000E+00 0. -1.
         11    1    3    3    0    0 -0.63142424630E+02  0.34185128050E+02 -0.56216891998E+03  0.56673581443E+03  0.00000000000E+00 0. -1.
        -12    1    3    3    0    0  0.25966964023E+02  0.72849652119E+00 -0.21170572319E+03  0.21329352349E+03  0.00000000000E+00 0.  1.
          5    1    4    4  501    0  0.35644346465E+02 -0.50882258674E+02 -0.48076429275E+02  0.78665997321E+02  0.41800000000E+01 0.  1.
         -5    1    4    4    0  501 -0.33546985989E+02  0.55227693780E+01  0.42424684986E+02  0.54527310100E+02  0.41800000000E+01 0.  1.
</event>
<event>
11    1  0.8039394E-009  0.1932915E+03  0.7561462E-02  0.1059372E+00
         22   -1    0    0    0    0  0.00000000000E+00  0.00000000000E+00  0.35250714600E+03  0.35250714600E+03  0.00000000000E+00 0.  1.
         22   -1    0    0    0    0 -0.00000000000E+00 -0.00000000000E+00 -0.74054070029E+03  0.74054070029E+03  0.00000000000E+00 0.  1.
         24    2    1    2    0    0 -0.61677545192E+02  0.26580061776E+02 -0.57120950644E+03  0.58075694818E+03  0.80546342849E+02 0.  0.
         25    2    1    2    0    0  0.19624301235E+03  0.81648825408E+01 -0.41497108330E+02  0.23653336412E+03  0.12509211462E+03 0.  0.
        -24    2    1    2    0    0 -0.13456546716E+03 -0.34744944317E+02  0.22467306048E+03  0.27575753399E+03  0.79051611872E+02 0.  0.
        -13    1    3    3    0    0 -0.76540266132E+02  0.25166377574E+01 -0.42029911249E+03  0.42721901850E+03  0.00000000000E+00 0.  1.
         14    1    3    3    0    0  0.14862720940E+02  0.24063424018E+02 -0.15091039395E+03  0.15353792969E+03  0.00000000000E+00 0. -1.
         13    1    5    5    0    0 -0.30280946468E+02 -0.45904721046E+02  0.79125838896E+02  0.96359107065E+02  0.00000000000E+00 0. -1.
        -14    1    5    5    0    0 -0.10428452069E+03  0.11159776729E+02  0.14554722159E+03  0.17939842693E+03  0.00000000000E+00 0.  1.
          5    1    4    4  501    0  0.11249132109E+03 -0.47327304364E+02  0.11880379698E+02  0.12268979942E+03  0.41800000000E+01 0.  1.
         -5    1    4    4    0  501  0.83751691256E+02  0.55492186905E+02 -0.53377488028E+02  0.11384356470E+03  0.41800000000E+01 0.  1.
</event>
<event>
11    1  0.8039394E-009  0.1420521E+03  0.7561462E-02  0.1105288E+00
         22   -1    0    0    0    0  0.00000000000E+00  0.00000000000E+00  0.34631323086E+03  0.34631323086E+03  0.00000000000E+00 0. -1.
         22   -1    0    0    0    0 -0.00000000000E+00 -0.00000000000E+00 -0.54652540472E+03  0.54652540472E+03  0.00000000000E+00 0. -1.
         24    2    1    2    0    0  0.18401814427E+02  0.97094187980E+01 -0.25527056489E+03  0.26839311799E+03  0.80242787182E+02 0.  0.
         25    2    1    2    0    0  0.42034812394E+02  0.21409728791E+02 -0.25910009683E+03  0.29156223902E+03  0.12510146723E+03 0.  0.
        -24    2    1    2    0    0 -0.60436626820E+02 -0.31119147589E+02  0.31415848786E+03  0.33288327858E+03  0.86572134403E+02 0.  0.
        -13    1    3    3    0    0  0.24917952876E+02  0.28000858879E+02 -0.51482246042E+02  0.63681819470E+02  0.00000000000E+00 0.  1.
         14    1    3    3    0    0 -0.65161384494E+01 -0.18291440081E+02 -0.20378831885E+03  0.20471129852E+03  0.00000000000E+00 0. -1.
         13    1    5    5    0    0 -0.68245474254E+02 -0.52026826323E+02  0.27149756338E+03  0.28473700556E+03  0.00000000000E+00 0. -1.
        -14    1    5    5    0    0  0.78088474335E+01  0.20907678734E+02  0.42660924482E+02  0.48146273022E+02  0.00000000000E+00 0.  1.
          5    1    4    4  501    0  0.47446747764E+02  0.26811871350E+02 -0.30103781812E+02  0.62400163446E+02  0.41800000000E+01 0. -1.
         -5    1    4    4    0  501 -0.54119353700E+01 -0.54021425593E+01 -0.22899631502E+03  0.22916207557E+03  0.41800000000E+01 0. -1.
</event>
<event>
11    1  0.8039394E-009  0.1547695E+03  0.7561462E-02  0.1092103E+00
         22   -1    0    0    0    0  0.00000000000E+00  0.00000000000E+00  0.29600831300E+03  0.29600831300E+03  0.00000000000E+00 0.  1.
         22   -1    0    0    0    0 -0.00000000000E+00 -0.00000000000E+00 -0.19711066700E+04  0.19711066700E+04  0.00000000000E+00 0. -1.
        -24    2    1    2    0    0 -0.51649756197E+02 -0.98222263200E+01 -0.17297303565E+04  0.17323663153E+04  0.79760709159E+02 0.  0.
         25    2    1    2    0    0  0.10595756113E+03 -0.61591858296E+02 -0.19200244007E+03  0.25987062352E+03  0.12508893720E+03 0.  0.
         24    2    1    2    0    0 -0.54307804932E+02  0.71414084616E+02  0.24663443959E+03  0.27487804417E+03  0.81731776052E+02 0.  0.
        -11    1    5    5    0    0 -0.64866239706E+02  0.64684990766E+02  0.24581646479E+03  0.26233091973E+03  0.00000000000E+00 0.  1.
         12    1    5    5    0    0  0.10558434774E+02  0.67290938500E+01  0.81797479775E+00  0.12547124439E+02  0.00000000000E+00 0. -1.
         11    1    3    3    0    0 -0.62387171013E+02 -0.11763921765E+02 -0.78190615756E+03  0.78447931023E+03  0.00000000000E+00 0. -1.
        -12    1    3    3    0    0  0.10737414815E+02  0.19416954450E+01 -0.94782419897E+03  0.94788700509E+03  0.00000000000E+00 0.  1.
          5    1    4    4  501    0 -0.77288129655E+00 -0.50070077248E+02 -0.12120490258E+03  0.13120865364E+03  0.41800000000E+01 0.  1.
         -5    1    4    4    0  501  0.10673044243E+03 -0.11521781048E+02 -0.70797537488E+02  0.12866196988E+03  0.41800000000E+01 0.  1.
</event>
<event>
11    1  0.8039394E-009  0.1335649E+03  0.7561462E-02  0.1114965E+00
         22   -1    0    0    0    0  0.00000000000E+00  0.00000000000E+00  0.69622470025E+02  0.69622470025E+02  0.00000000000E+00 0. -1.
         22   -1    0    0    0    0 -0.00000000000E+00 -0.00000000000E+00 -0.15397777962E+04  0.15397777962E+04  0.00000000000E+00 0.  1.
        -24    2    1    2    0    0  0.47798880643E+01 -0.78669717950E+01 -0.10962010476E+04  0.10997342500E+04  0.87601068370E+02 0.  0.
         25    2    1    2    0    0 -0.41965398720E+02 -0.20731650501E+02 -0.39237480237E+03  0.41448205846E+03  0.12508595138E+03 0.  0.
         24    2    1    2    0    0  0.37185510655E+02  0.28598622296E+02  0.18420523783E+02  0.95183957819E+02  0.80746682469E+02 0.  0.
        -13    1    5    5    0    0 -0.19665430700E+02  0.96143076794E+01  0.26866316868E+02  0.34654913920E+02  0.00000000000E+00 0.  1.
         14    1    5    5    0    0  0.56850941356E+02  0.18984314616E+02 -0.84457930845E+01  0.60529043899E+02  0.00000000000E+00 0. -1.
         11    1    3    3    0    0 -0.25480283733E+02 -0.35390121759E+02 -0.40935667208E+03  0.41167291696E+03  0.00000000000E+00 0. -1.
        -12    1    3    3    0    0  0.30260171797E+02  0.27523149964E+02 -0.68684437552E+03  0.68806133300E+03  0.00000000000E+00 0.  1.
          5    1    4    4  501    0 -0.95539644718E+01  0.49768849376E+02 -0.10318323819E+03  0.11503247215E+03  0.41800000000E+01 0.  1.
         -5    1    4    4    0  501 -0.32411434248E+02 -0.70500499876E+02 -0.28919156418E+03  0.29944958632E+03  0.41800000000E+01 0.  1.
</event>
<event>
11    1  0.8039394E-009  0.2977273E+03  0.7561462E-02  0.1001158E+00
         22   -1    0    0    0    0  0.00000000000E+00  0.00000000000E+00  0.27273371758E+03  0.27273371758E+03  0.00000000000E+00 0. -1.
         22   -1    0    0    0    0 -0.00000000000E+00 -0.00000000000E+00 -0.16630682065E+04  0.16630682065E+04  0.00000000000E+00 0. -1.
        -24    2    1    2    0    0  0.84567316186E+02  0.24869153543E+02 -0.12728408688E+04  0.12784049655E+04  0.80157800460E+02 0.  0.
         25    2    1    2    0    0  0.10670978728E+03 -0.22960314002E+03 -0.20991233135E+03  0.35187399428E+03  0.12509012907E+03 0.  0.
         24    2    1    2    0    0 -0.19127710347E+03  0.20473398648E+03  0.92418711201E+02  0.30552296423E+03  0.79373345421E+02 0.  0.
        -13    1    5    5    0    0 -0.59210867993E+02  0.21219863542E+02  0.36089904742E+02  0.72516830609E+02  0.00000000000E+00 0.  1.
         14    1    5    5    0    0 -0.13206623548E+03  0.18351412294E+03  0.56328806459E+02  0.23300613363E+03  0.00000000000E+00 0. -1.
         13    1    3    3    0    0  0.59282838006E+02  0.49273883953E+02 -0.10483470920E+04  0.10511774331E+04  0.00000000000E+00 0. -1.
        -14    1    3    3    0    0  0.25284478181E+02 -0.24404730410E+02 -0.22449377679E+03  0.22722753249E+03  0.00000000000E+00 0.  1.
          5    1    4    4  501    0 -0.32787881259E+01 -0.56400216611E+02  0.22585956962E+01  0.56694872253E+02  0.41800000000E+01 0. -1.
         -5    1    4    4    0  501  0.10998857541E+03 -0.17320292341E+03 -0.21217092704E+03  0.29517912203E+03  0.41800000000E+01 0. -1.
</event>
<event>
11    1  0.8039394E-009  0.1575774E+03  0.7561462E-02  0.1089378E+00
         22   -1    0    0    0    0  0.00000000000E+00  0.00000000000E+00  0.43980428627E+02  0.43980428627E+02  0.00000000000E+00 0. -1.
         22   -1    0    0    0    0 -0.00000000000E+00 -0.00000000000E+00 -0.14812792442E+04  0.14812792442E+04  0.00000000000E+00 0. -1.
         24    2    1    2    0    0  0.46376091042E+02  0.92020991843E+02 -0.62739579083E+03  0.64444662987E+03  0.10520159527E+03 0.  0.
         25    2    1    2    0    0 -0.98272493271E+02 -0.33738433475E+02 -0.71377408760E+03  0.73206313825E+03  0.12508887010E+03 0.  0.
        -24    2    1    2    0    0  0.51896402229E+02 -0.58282558368E+02 -0.96128937189E+02  0.14874990475E+03  0.82435844291E+02 0.  0.
        -13    1    3    3    0    0  0.35112985621E+02  0.29169738564E+02 -0.71062816067E+02  0.84461347577E+02  0.00000000000E+00 0.  1.
         14    1    3    3    0    0  0.11263105421E+02  0.62851253279E+02 -0.55633297476E+03  0.55998528230E+03  0.00000000000E+00 0. -1.
         11    1    5    5    0    0 -0.15804109067E+02 -0.39142379366E+02 -0.26951830069E+02  0.50082899975E+02  0.00000000000E+00 0. -1.
        -12    1    5    5    0    0  0.67700511296E+02 -0.19140179003E+02 -0.69177107120E+02  0.98667004776E+02  0.00000000000E+00 0.  1.
          5    1    4    4  501    0 -0.69514489967E+02 -0.75659386154E+02 -0.57690971035E+03  0.58600246870E+03  0.41800000000E+01 0. -1.
         -5    1    4    4    0  501 -0.28758003305E+02  0.41920952679E+02 -0.13686437725E+03  0.14606066955E+03  0.41800000000E+01 0. -1.
</event>
<event>
11    1  0.8039394E-009  0.1429405E+03  0.7561462E-02  0.1104319E+00
         22   -1    0    0    0    0  0.00000000000E+00  0.00000000000E+00  0.16044013706E+04  0.16044013706E+04  0.00000000000E+00 0. -1.
         22   -1    0    0    0    0 -0.00000000000E+00 -0.00000000000E+00 -0.19641091867E+04  0.19641091867E+04  0.00000000000E+00 0.  1.
        -24    2    1    2    0    0  0.57173405404E+01  0.65483733650E+02 -0.16672958275E+04  0.16705475894E+04  0.80827375410E+02 0.  0.
         25    2    1    2    0    0  0.22364393708E+01 -0.12705159377E+03 -0.26643873724E+03  0.32059942314E+03  0.12508908937E+03 0.  0.
         24    2    1    2    0    0 -0.79537799113E+01  0.61567860116E+02  0.15740267486E+04  0.15773635448E+04  0.81619134909E+02 0.  0.
        -11    1    5    5    0    0  0.27182393867E+02  0.54395019897E+01  0.80946373176E+03  0.80993827157E+03  0.00000000000E+00 0.  1.
         12    1    5    5    0    0 -0.35136173778E+02  0.56128358126E+02  0.76456301687E+03  0.76742527328E+03  0.00000000000E+00 0. -1.
         13    1    3    3    0    0 -0.20191248475E+02 -0.45941872865E+01 -0.15113404408E+03  0.15254603355E+03  0.00000000000E+00 0. -1.
        -14    1    3    3    0    0  0.25908589015E+02  0.70077920936E+02 -0.15161617834E+04  0.15180015558E+04  0.00000000000E+00 0.  1.
          5    1    4    4  501    0  0.28896828622E+01 -0.30649093287E+02 -0.20244006850E+03  0.20481008501E+03  0.41800000000E+01 0. -1.
         -5    1    4    4    0  501 -0.65324349133E+00 -0.96402500479E+02 -0.63998668734E+02  0.11578933813E+03  0.41800000000E+01 0. -1.
</event>
<event>
11    1  0.8039394E-009  0.1533665E+03  0.7561462E-02  0.1093488E+00
         22   -1    0    0    0    0  0.00000000000E+00  0.00000000000E+00  0.17302233643E+04  0.17302233643E+04  0.00000000000E+00 0.  1.
         22   -1    0    0    0    0 -0.00000000000E+00 -0.00000000000E+00 -0.29002505159E+02  0.29002505159E+02  0.00000000000E+00 0.  1.
        -24    2    1    2    0    0  0.14293444954E+02 -0.81615758546E+02  0.22433608157E+03  0.25187022214E+03  0.79034781560E+02 0.  0.
         25    2    1    2    0    0 -0.17435563403E+02  0.99147351710E+02  0.46258219675E+03  0.48964590636E+03  0.12504650592E+03 0.  0.
         24    2    1    2    0    0  0.31421184490E+01 -0.17531593164E+02  0.10143025809E+04  0.10177097410E+04  0.81278297909E+02 0.  0.
        -11    1    5    5    0    0  0.18098694226E+02 -0.17404741761E+02  0.97959144902E+03  0.97991320777E+03  0.00000000000E+00 0.  1.
         12    1    5    5    0    0 -0.14956575777E+02 -0.12685140339E+00  0.34711131836E+02  0.37796533222E+02  0.00000000000E+00 0. -1.
         11    1    3    3    0    0 -0.69671145639E+01 -0.33571054509E+02  0.17966670284E+03  0.18290894045E+03  0.00000000000E+00 0. -1.
        -12    1    3    3    0    0  0.21260559518E+02 -0.48044704037E+02  0.44669378733E+02  0.68961281697E+02  0.00000000000E+00 0.  1.
          5    1    4    4  501    0  0.24774347290E+02  0.14167937274E+02  0.15815544953E+02  0.32895327820E+02  0.41800000000E+01 0.  1.
         -5    1    4    4    0  501 -0.42209910693E+02  0.84979414436E+02  0.44676665180E+03  0.45675057854E+03  0.41800000000E+01 0.  1.
</event>
<event>
11    1  0.8039394E-009  0.1584636E+03  0.7561462E-02  0.1088531E+00
         22   -1    0    0    0    0  0.00000000000E+00  0.00000000000E+00  0.77212467800E+03  0.77212467800E+03  0.00000000000E+00 0. -1.
         22   -1    0    0    0    0 -0.00000000000E+00 -0.00000000000E+00 -0.14466593405E+04  0.14466593405E+04  0.00000000000E+00 0. -1.
         24    2    1    2    0    0  0.14090349002E+02  0.66852734096E+02 -0.13721399136E+04  0.13760765034E+04  0.78426874363E+02 0.  0.
         25    2    1    2    0    0 -0.10425949751E+03 -0.27853443465E+02  0.36006832558E+02  0.16908895917E+03  0.12509487195E+03 0.  0.
        -24    2    1    2    0    0  0.90169148513E+02 -0.38999290631E+02  0.66159841860E+03  0.67361855591E+03  0.79987945114E+02 0.  0.
        -11    1    3    3    0    0  0.18529898802E+02 -0.48082246871E+01 -0.94431581877E+02  0.96352477032E+02  0.00000000000E+00 0.  1.
         12    1    3    3    0    0 -0.44395498006E+01  0.71660958783E+02 -0.12777083318E+04  0.12797240264E+04  0.00000000000E+00 0. -1.
         11    1    5    5    0    0  0.86312556827E+02 -0.13321417936E+02  0.60593769133E+03  0.61219915340E+03  0.00000000000E+00 0. -1.
        -12    1    5    5    0    0  0.38565916856E+01 -0.25677872695E+02  0.55660727263E+02  0.61419402513E+02  0.00000000000E+00 0.  1.
          5    1    4    4  501    0 -0.27111436273E+02 -0.11299184144E+02 -0.46302504735E+02  0.54991780148E+02  0.41800000000E+01 0. -1.
         -5    1    4    4    0  501 -0.77148061241E+02 -0.16554259322E+02  0.82309337293E+02  0.11409717902E+03  0.41800000000E+01 0. -1.
</event>
<event>
11    1  0.8039394E-009  0.1548094E+03  0.7561462E-02  0.1092063E+00
         22   -1    0    0    0    0  0.00000000000E+00  0.00000000000E+00  0.20366018194E+03  0.20366018194E+03  0.00000000000E+00 0.  1.
         22   -1    0    0    0    0 -0.00000000000E+00 -0.00000000000E+00 -0.17965648209E+04  0.17965648209E+04  0.00000000000E+00 0.  1.
         24    2    1    2    0    0 -0.64258549054E+02 -0.75060452158E+02 -0.12145508492E+04  0.12211453067E+04  0.79365371166E+02 0.  0.
         25    2    1    2    0    0  0.56943581707E+02  0.43101187105E+02 -0.55780155862E+03  0.57609915480E+03  0.12508946209E+03 0.  0.
        -24    2    1    2    0    0  0.73149673469E+01  0.31959265054E+02  0.17944776896E+03  0.20298054126E+03  0.89020755883E+02 0.  0.
        -11    1    3    3    0    0 -0.43883207953E+02  0.46566441600E+01 -0.46673799635E+03  0.46881955752E+03  0.00000000000E+00 0.  1.
         12    1    3    3    0    0 -0.20375341101E+02 -0.79717096318E+02 -0.74781285290E+03  0.75232574921E+03  0.00000000000E+00 0. -1.
         13    1    5    5    0    0  0.38780050460E+02  0.70119202278E+01  0.33862061675E+02  0.51958623537E+02  0.00000000000E+00 0. -1.
        -14    1    5    5    0    0 -0.31465083113E+02  0.24947344826E+02  0.14558570728E+03  0.15102191772E+03  0.00000000000E+00 0.  1.
          5    1    4    4  501    0  0.73980927365E+02  0.61392777177E+02 -0.52922824867E+03  0.53790543992E+03  0.41800000000E+01 0. -1.
         -5    1    4    4    0  501 -0.17037345657E+02 -0.18291590072E+02 -0.28573309953E+02  0.38193714877E+02  0.41800000000E+01 0. -1.
</event>
<event>
11    1  0.8039394E-009  0.1404102E+03  0.7561462E-02  0.1107101E+00
         22   -1    0    0    0    0  0.00000000000E+00  0.00000000000E+00  0.13132499459E+04  0.13132499459E+04  0.00000000000E+00 0. -1.
         22   -1    0    0    0    0 -0.00000000000E+00 -0.00000000000E+00 -0.61141542665E+03  0.61141542665E+03  0.00000000000E+00 0. -1.
        -24    2    1    2    0    0 -0.63477255941E+02  0.48803508107E+01 -0.55335391561E+03  0.56355922770E+03  0.85704535293E+02 0.  0.
         25    2    1    2    0    0  0.64687955121E+02 -0.19172272095E+02  0.47981930969E+02  0.15000450078E+03  0.12508787711E+03 0.  0.
         24    2    1    2    0    0 -0.12106991803E+01  0.14291921284E+02  0.12072065039E+04  0.12111016440E+04  0.95989188964E+02 0.  0.
        -11    1    5    5    0    0  0.28742796552E+02  0.36301290718E+02  0.34487224391E+03  0.34796666031E+03  0.00000000000E+00 0.  1.
         12    1    5    5    0    0 -0.29953495732E+02 -0.22009369434E+02  0.86233425995E+03  0.86313498373E+03  0.00000000000E+00 0. -1.
         11    1    3    3    0    0 -0.71104743476E+02  0.22222703979E+02 -0.51907176623E+03  0.52439034279E+03  0.00000000000E+00 0. -1.
        -12    1    3    3    0    0  0.76274875353E+01 -0.17342353169E+02 -0.34282149380E+02  0.39168884917E+02  0.00000000000E+00 0.  1.
          5    1    4    4  501    0  0.53855354829E+02 -0.54783467247E+02 -0.13402819389E+02  0.78094401175E+02  0.41800000000E+01 0. -1.
         -5    1    4    4    0  501  0.10832600293E+02  0.35611195152E+02  0.61384750358E+02  0.71910099609E+02  0.41800000000E+01 0. -1.
</event>
<event>
11    1  0.8039394E-009  0.1371502E+03  0.7561462E-02  0.1110783E+00
         22   -1    0    0    0    0  0.00000000000E+00  0.00000000000E+00  0.16548964728E+03  0.16548964728E+03  0.00000000000E+00 0.  1.
         22   -1    0    0    0    0 -0.00000000000E+00 -0.00000000000E+00 -0.14360919683E+04  0.14360919683E+04  0.00000000000E+00 0.  1.
         24    2    1    2    0    0  0.23364535973E+02 -0.27880453056E+02 -0.95793907999E+03  0.96205255127E+03  0.81083964005E+02 0.  0.
         25    2    1    2    0    0 -0.40062762546E+02  0.80422240025E+02 -0.44751669945E+03  0.47327674988E+03  0.12508766550E+03 0.  0.
        -24    2    1    2    0    0  0.16698226573E+02 -0.52541786969E+02  0.13485345842E+03  0.16625231443E+03  0.80093112427E+02 0.  0.
        -11    1    3    3    0    0  0.49318519192E+02 -0.36673809406E+02 -0.66807152666E+03  0.67089257662E+03  0.00000000000E+00 0.  1.
         12    1    3    3    0    0 -0.25953983219E+02  0.87933563496E+01 -0.28986755334E+03  0.29115997465E+03  0.00000000000E+00 0. -1.
         13    1    5    5    0    0  0.55761073008E+01  0.13860034986E+02 -0.63996883522E+00  0.14953364255E+02  0.00000000000E+00 0. -1.
        -14    1    5    5    0    0  0.11122119272E+02 -0.66401821955E+02  0.13549342725E+03  0.15129895018E+03  0.00000000000E+00 0.  1.
          5    1    4    4  501    0 -0.39854260813E+02  0.72296997520E+01 -0.33242841175E+02  0.52566049432E+02  0.41800000000E+01 0.  1.
         -5    1    4    4    0  501 -0.20850173317E+00  0.73192540273E+02 -0.41427385827E+03  0.42071070045E+03  0.41800000000E+01 0.  1.
</event>
<event>
11    1  0.8039394E-009  0.1532302E+03  0.7561462E-02  0.1093623E+00
         22   -1    0    0    0    0  0.00000000000E+00  0.00000000000E+00  0.20383976196E+04  0.20383976196E+04  0.00000000000E+00 0. -1.
         22   -1    0    0    0    0 -0.00000000000E+00 -0.00000000000E+00 -0.62796744627E+02  0.62796744627E+02  0.00000000000E+00 0. -1.
        -24    2    1    2    0    0 -0.17365510509E+02 -0.46534317508E+01 -0.11865155401E+02  0.83555795252E+02  0.80731490914E+02 0.  0.
         25    2    1    2    0    0  0.93738592963E+02 -0.35868712781E+02  0.49085231754E+03  0.51638822175E+03  0.12508920641E+03 0.  0.
         24    2    1    2    0    0 -0.76373082454E+02  0.40522144532E+02  0.14966137128E+04  0.15012503472E+04  0.80156769401E+02 0.  0.
        -11    1    5    5    0    0 -0.65735677987E+02  0.18314504751E+02  0.53669039140E+03  0.54101125374E+03  0.00000000000E+00 0.  1.
         12    1    5    5    0    0 -0.10637404468E+02  0.22207639781E+02  0.95992332144E+03  0.96023909350E+03  0.00000000000E+00 0. -1.
         11    1    3    3    0    0 -0.17159193248E+02  0.17612891166E+02 -0.40440156808E+02  0.47329252380E+02  0.00000000000E+00 0. -1.
        -12    1    3    3    0    0 -0.20631726073E+00 -0.22266322917E+02  0.28575001407E+02  0.36226542872E+02  0.00000000000E+00 0.  1.
          5    1    4    4  501    0  0.62759873610E+02  0.55785457859E+01  0.78333866473E+02  0.10061604716E+03  0.41800000000E+01 0.  1.
         -5    1    4    4    0  501  0.30978719354E+02 -0.41447258567E+02  0.41251845107E+03  0.41577217459E+03  0.41800000000E+01 0.  1.
</event>
<event>
11    1  0.8039394E-009  0.1356680E+03  0.7561462E-02  0.1112495E+00
         22   -1    0    0    0    0  0.00000000000E+00  0.00000000000E+00  0.74836344869E+03  0.74836344869E+03  0.00000000000E+00 0. -1.
         22   -1    0    0    0    0 -0.00000000000E+00 -0.00000000000E+00 -0.23873744331E+03  0.23873744331E+03  0.00000000000E+00 0. -1.
         24    2    1    2    0    0  0.79866287854E+01 -0.14889315100E+02 -0.20456526302E+03  0.21966985821E+03  0.78245906136E+02 0.  0.
         25    2    1    2    0    0 -0.38453107294E+02 -0.29348251456E+02  0.17925767369E+03  0.22387702976E+03  0.12509056540E+03 0.  0.
        -24    2    1    2    0    0  0.30466478509E+02  0.44237566556E+02  0.53493359471E+03  0.54355400403E+03  0.80073940433E+02 0.  0.
        -13    1    3    3    0    0  0.12958588841E+02  0.75676706343E+01 -0.12508258757E+01  0.15058526785E+02  0.00000000000E+00 0.  1.
         14    1    3    3    0    0 -0.49719600554E+01 -0.22456985734E+02 -0.20331443714E+03  0.20461133142E+03  0.00000000000E+00 0. -1.
         13    1    5    5    0    0 -0.33082659874E+01  0.58521078412E+02  0.36811752492E+03  0.37275484356E+03  0.00000000000E+00 0. -1.
        -14    1    5    5    0    0  0.33774744496E+02 -0.14283511856E+02  0.16681606979E+03  0.17079916047E+03  0.00000000000E+00 0.  1.
          5    1    4    4  501    0 -0.63857857701E+02  0.22677535766E+02  0.57425206327E+02  0.88922569353E+02  0.41800000000E+01 0.  1.
         -5    1    4    4    0  501  0.25404750407E+02 -0.52025787222E+02  0.12183246737E+03  0.13495446041E+03  0.41800000000E+01 0.  1.
</event>
<event>
11    1  0.8039394E-009  0.1364949E+03  0.7561462E-02  0.1111537E+00
         22   -1    0    0    0    0  0.00000000000E+00  0.00000000000E+00  0.11079284772E+04  0.11079284772E+04  0.00000000000E+00 0. -1.
         22   -1    0    0    0    0 -0.00000000000E+00 -0.00000000000E+00 -0.15792893347E+03  0.15792893347E+03  0.00000000000E+00 0. -1.
         24    2    1    2    0    0 -0.42418716684E+02 -0.31090018624E+02 -0.68391203839E+02  0.11758014123E+03  0.79886144397E+02 0.  0.
         25    2    1    2    0    0  0.95382580443E+02  0.27048425637E+02  0.39340884375E+02  0.16439205610E+03  0.12509032315E+03 0.  0.
        -24    2    1    2    0    0 -0.52963863758E+02  0.40415929872E+01  0.97904986316E+03  0.98388521330E+03  0.81669903102E+02 0.  0.
        -11    1    3    3    0    0 -0.11601247247E+02  0.22496931006E+02  0.10753620665E+00  0.25312297533E+02  0.00000000000E+00 0.  1.
         12    1    3    3    0    0 -0.30817469437E+02 -0.53586949630E+02 -0.68498740046E+02  0.92267843700E+02  0.00000000000E+00 0. -1.
         11    1    5    5    0    0 -0.29468103172E+02 -0.38670709563E+02  0.47203205004E+03  0.47452929219E+03  0.00000000000E+00 0. -1.
        -12    1    5    5    0    0 -0.23495760586E+02  0.42712302550E+02  0.50701781312E+03  0.50935592111E+03  0.00000000000E+00 0.  1.
          5    1    4    4  501    0  0.12522226121E+02  0.66436595792E+02  0.14905593951E+02  0.69356157178E+02  0.41800000000E+01 0. -1.
         -5    1    4    4    0  501  0.82860354322E+02 -0.39388170156E+02  0.24435290424E+02  0.95035898926E+02  0.41800000000E+01 0. -1.
</event>
<event>
11    1  0.8039394E-009  0.1493692E+03  0.7561462E-02  0.1097525E+00
         22   -1    0    0    0    0  0.00000000000E+00  0.00000000000E+00  0.75156890747E+03  0.75156890747E+03  0.00000000000E+00 0.  1.
         22   -1    0    0    0    0 -0.00000000000E+00 -0.00000000000E+00 -0.73921266934E+02  0.73921266934E+02  0.00000000000E+00 0.  1.
         24    2    1    2    0    0  0.63105250657E+02  0.45037575357E+02  0.15345515454E+02  0.11254649890E+03  0.80128482551E+02 0.  0.
         25    2    1    2    0    0 -0.71305971936E+02 -0.75079457645E+02  0.29726599037E+03  0.33872631914E+03  0.12508790372E+03 0.  0.
        -24    2    1    2    0    0  0.82007212788E+01  0.30041882287E+02  0.36503613471E+03  0.37421735636E+03  0.76272430361E+02 0.  0.
        -13    1    3    3    0    0  0.62945797233E+02  0.25793088648E+02 -0.21192388035E+02  0.71250081557E+02  0.00000000000E+00 0.  1.
         14    1    3    3    0    0  0.15945342478E+00  0.19244486709E+02  0.36537903490E+02  0.41296417345E+02  0.00000000000E+00 0. -1.
         11    1    5    5    0    0 -0.14854083968E+02 -0.15871699091E+02  0.20469748325E+03  0.20584852268E+03  0.00000000000E+00 0. -1.
        -12    1    5    5    0    0  0.23054805247E+02  0.45913581378E+02  0.16033865147E+03  0.16836883368E+03  0.00000000000E+00 0.  1.
          5    1    4    4  501    0 -0.36682191785E+02 -0.42390381975E+02  0.28344876922E+03  0.28896921090E+03  0.41800000000E+01 0.  1.
         -5    1    4    4    0  501 -0.34623780151E+02 -0.32689075669E+02  0.13817221148E+02  0.49757108239E+02  0.41800000000E+01 0.  1.
</event>
<event>
11    1  0.8039394E-009  0.1436020E+03  0.7561462E-02  0.1103602E+00
         22   -1    0    0    0    0  0.00000000000E+00  0.00000000000E+00  0.80627802480E+03  0.80627802480E+03  0.00000000000E+00 0. -1.
         22   -1    0    0    0    0 -0.00000000000E+00 -0.00000000000E+00 -0.26458057117E+03  0.26458057117E+03  0.00000000000E+00 0.  1.
         24    2    1    2    0    0  0.61357588073E+02  0.32178014242E+02 -0.22789329070E+03  0.25203662119E+03  0.82382815315E+02 0.  0.
         25    2    1    2    0    0 -0.87637101043E+02 -0.57055633969E+02  0.30560800099E+03  0.34638015457E+03  0.12508938551E+03 0.  0.
        -24    2    1    2    0    0  0.26279512970E+02  0.24877619728E+02  0.46398274334E+03  0.47244182021E+03  0.81312844017E+02 0.  0.
        -13    1    3    3    0    0 -0.86067554781E+01  0.34183807552E+02 -0.10303402566E+03  0.10889728823E+03  0.00000000000E+00 0.  1.
         14    1    3    3    0    0  0.69964343551E+02 -0.20057933100E+01 -0.12485926504E+03  0.14313933296E+03  0.00000000000E+00 0. -1.
         11    1    5    5    0    0  0.29689438140E+02 -0.21454647976E+02  0.12392384397E+03  0.12922416091E+03  0.00000000000E+00 0. -1.
        -12    1    5    5    0    0 -0.34099251702E+01  0.46332267704E+02  0.34005889937E+03  0.34321765931E+03  0.00000000000E+00 0.  1.
          5    1    4    4  501    0  0.19707304882E+02 -0.20563242073E+02  0.11237426834E+02  0.30902701372E+02  0.41800000000E+01 0.  1.
         -5    1    4    4    0  501 -0.10734440592E+03 -0.36492391897E+02  0.29437057415E+03  0.31547745320E+03  0.41800000000E+01 0.  1.
</event>
<event>
11    1  0.8039394E-009  0.1304871E+03  0.7561462E-02  0.1118672E+00
         22   -1    0    0    0    0  0.00000000000E+00  0.00000000000E+00  0.18738809512E+03  0.18738809512E+03  0.00000000000E+00 0. -1.
         22   -1    0    0    0    0 -0.00000000000E+00 -0.00000000000E+00 -0.55124589200E+03  0.55124589200E+03  0.00000000000E+00 0. -1.
        -24    2    1    2    0    0 -0.19794918624E+02  0.29728898228E+02 -0.46215290980E+03  0.47065259453E+03  0.81565351127E+02 0.  0.
         25    2    1    2    0    0  0.21111793438E+02 -0.59238207425E+02  0.38133307844E+01  0.14006126562E+03  0.12509094130E+03 0.  0.
         24    2    1    2    0    0 -0.13168748137E+01  0.29509309197E+02  0.94481782144E+02  0.12792012697E+03  0.81019863231E+02 0.  0.
        -11    1    5    5    0    0  0.11400858564E+02  0.18284251840E+02 -0.87849391120E+01  0.23269477788E+02  0.00000000000E+00 0.  1.
         12    1    5    5    0    0 -0.12717733378E+02  0.11225057357E+02  0.10326672126E+03  0.10465064918E+03  0.00000000000E+00 0. -1.
         13    1    3    3    0    0 -0.19596761574E+02  0.22917653554E+02 -0.46282423253E+03  0.46380547876E+03  0.00000000000E+00 0. -1.
        -14    1    3    3    0    0 -0.19815705042E+00  0.68112446748E+01  0.67132272367E+00  0.68471157750E+01  0.00000000000E+00 0.  1.
          5    1    4    4  501    0 -0.33999654862E+00 -0.88842568399E+02 -0.26041839063E+02  0.92675602718E+02  0.41800000000E+01 0. -1.
         -5    1    4    4    0  501  0.21451789987E+02  0.29604360974E+02  0.29855169847E+02  0.47385662904E+02  0.41800000000E+01 0. -1.
</event>
<event>
11    1  0.8039394E-009  0.2855522E+03  0.7561462E-02  0.1006498E+00
         22   -1    0    0    0    0  0.00000000000E+00  0.00000000000E+00  0.18806727330E+04  0.18806727330E+04  0.00000000000E+00 0. -1.
         22   -1    0    0    0    0 -0.00000000000E+00 -0.00000000000E+00 -0.27100305555E+03  0.27100305555E+03  0.00000000000E+00 0. -1.
         24    2    1    2    0    0 -0.10502178991E+03  0.24149210047E+03 -0.18000468681E+03  0.32903404333E+03  0.80707517909E+02 0.  0.
         25    2    1    2    0    0  0.25179000637E+02 -0.16308770465E+03  0.10765813302E+04  0.10963148738E+04  0.12508940986E+03 0.  0.
        -24    2    1    2    0    0  0.79842789276E+02 -0.78404395819E+02  0.71309303406E+03  0.72632687143E+03  0.80789409293E+02 0.  0.
        -11    1    3    3    0    0  0.25305234645E+01  0.25539999258E+01  0.64866171676E+01  0.74163782876E+01  0.00000000000E+00 0.  1.
         12    1    3    3    0    0 -0.10755231338E+03  0.23893810055E+03 -0.18649130398E+03  0.32161766504E+03  0.00000000000E+00 0. -1.
         11    1    5    5    0    0 -0.10168511521E+02 -0.24058567427E+02  0.25438567183E+03  0.25572305982E+03  0.00000000000E+00 0. -1.
        -12    1    5    5    0    0  0.90011300797E+02 -0.54345828391E+02  0.45870736223E+03  0.47060381161E+03  0.00000000000E+00 0.  1.
          5    1    4    4  501    0  0.56164165751E+02 -0.16403086151E+03  0.84356525239E+03  0.86120865327E+03  0.41800000000E+01 0. -1.
         -5    1    4    4    0  501 -0.30985165113E+02  0.94315685279E+00  0.23301607780E+03  0.23510622049E+03  0.41800000000E+01 0. -1.
</event>
<event>
11    1  0.8039394E-009  0.1299242E+03  0.7561462E-02  0.1119362E+00
         22   -1    0    0    0    0  0.00000000000E+00  0.00000000000E+00  0.59343490662E+03  0.59343490662E+03  0.00000000000E+00 0. -1.
         22   -1    0    0    0    0 -0.00000000000E+00 -0.00000000000E+00 -0.26240935132E+03  0.26240935132E+03  0.00000000000E+00 0. -1.
         24    2    1    2    0    0  0.89052889434E+01 -0.33210851380E+02 -0.22086161949E+03  0.23746210970E+03  0.80163169585E+02 0.  0.
         25    2    1    2    0    0  0.18164751618E+02  0.55397270919E+02  0.13572775691E+03  0.19356772483E+03  0.12509046436E+03 0.  0.
        -24    2    1    2    0    0 -0.27070040561E+02 -0.22186419539E+02  0.41615941789E+03  0.42481442340E+03  0.77804941554E+02 0.  0.
        -13    1    3    3    0    0  0.20197981604E+01 -0.50984492044E+02 -0.77179448885E+02  0.92521161600E+02  0.00000000000E+00 0.  1.
         14    1    3    3    0    0  0.68854907830E+01  0.17773640664E+02 -0.14368217061E+03  0.14494094810E+03  0.00000000000E+00 0. -1.
         11    1    5    5    0    0 -0.32436077839E+02 -0.75287057109E+01  0.40307109638E+03  0.40444417327E+03  0.00000000000E+00 0. -1.
        -12    1    5    5    0    0  0.53660372770E+01 -0.14657713828E+02  0.13088321505E+02  0.20370250135E+02  0.00000000000E+00 0.  1.
          5    1    4    4  501    0 -0.27198870459E+02 -0.14070411138E+02 -0.38434193736E+01  0.31144811708E+02  0.41800000000E+01 0. -1.
         -5    1    4    4    0  501  0.45363622077E+02  0.69467682057E+02  0.13957117628E+03  0.16242291312E+03  0.41800000000E+01 0. -1.
</event>
<event>
11    1  0.8039394E-009  0.1551504E+03  0.7561462E-02  0.1091729E+00
         22   -1    0    0    0    0  0.00000000000E+00  0.00000000000E+00  0.14356952290E+03  0.14356952290E+03  0.00000000000E+00 0. -1.
         22   -1    0    0    0    0 -0.00000000000E+00 -0.00000000000E+00 -0.11368812427E+04  0.11368812427E+04  0.00000000000E+00 0.  1.
         24    2    1    2    0    0  0.84641922490E+02 -0.47984827485E+02 -0.91893279406E+03  0.92762085873E+03  0.81093642453E+02 0.  0.
         25    2    1    2    0    0 -0.63203817020E+02  0.88369049721E+01 -0.17050838850E+03  0.22089357897E+03  0.12509216325E+03 0.  0.
        -24    2    1    2    0    0 -0.21438105470E+02  0.39147922513E+02  0.96129462707E+02  0.13193632794E+03  0.78575879422E+02 0.  0.
        -11    1    3    3    0    0  0.35235968712E+02 -0.42924476877E+02 -0.73518695925E+03  0.73728145864E+03  0.00000000000E+00 0.  1.
         12    1    3    3    0    0  0.49405953778E+02 -0.50603506084E+01 -0.18374583481E+03  0.19033940009E+03  0.00000000000E+00 0. -1.
         11    1    5    5    0    0 -0.14754142257E+02  0.15960730414E+02  0.10423731944E+03  0.10647933318E+03  0.00000000000E+00 0. -1.
        -12    1    5    5    0    0 -0.66839632127E+01  0.23187192099E+02 -0.81078567344E+01  0.25456994765E+02  0.00000000000E+00 0.  1.
          5    1    4    4  501    0 -0.35789040434E+02 -0.25481864819E+02  0.65250332206E+00  0.44137048048E+02  0.41800000000E+01 0. -1.
         -5    1    4    4    0  501 -0.27414776586E+02  0.34318769791E+02 -0.17116089182E+03  0.17675653092E+03  0.41800000000E+01 0. -1.
</event>
<event>
11    1  0.8039394E-009  0.2720279E+03  0.7561462E-02  0.1012778E+00
         22   -1    0    0    0    0  0.00000000000E+00  0.00000000000E+00  0.16418839511E+03  0.16418839511E+03  0.00000000000E+00 0. -1.
         22   -1    0    0    0    0 -0.00000000000E+00 -0.00000000000E+00 -0.35390575855E+04  0.35390575855E+04  0.00000000000E+00 0. -1.
         24    2    1    2    0    0 -0.54473301768E+02  0.23583231745E+02 -0.29723474149E+04  0.29740322374E+04  0.80592088242E+02 0.  0.
         25    2    1    2    0    0 -0.19931621712E+03  0.19284300002E+01 -0.39816235072E+03  0.46250589844E+03  0.12509106809E+03 0.  0.
        -24    2    1    2    0    0  0.25378951888E+03 -0.25511661746E+02 -0.43594247891E+01  0.26670784480E+03  0.77808130110E+02 0.  0.
        -11    1    3    3    0    0 -0.10087409723E+02  0.39256344716E+02 -0.68341705767E+03  0.68461791617E+03  0.00000000000E+00 0.  1.
         12    1    3    3    0    0 -0.44385892045E+02 -0.15673112970E+02 -0.22889303573E+04  0.22894143212E+04  0.00000000000E+00 0. -1.
         13    1    5    5    0    0  0.15955705929E+03  0.48284359124E+01  0.28997970703E+02  0.16224256922E+03  0.00000000000E+00 0. -1.
        -14    1    5    5    0    0  0.94232459598E+02 -0.30340097658E+02 -0.33357395493E+02  0.10446527558E+03  0.00000000000E+00 0.  1.
          5    1    4    4  501    0 -0.38958922807E+02  0.53914494207E+02 -0.10843535799E+03  0.12728027975E+03  0.41800000000E+01 0.  1.
         -5    1    4    4    0  501 -0.16035729431E+03 -0.51986064206E+02 -0.28972699274E+03  0.33522561869E+03  0.41800000000E+01 0.  1.
</event>
<event>
11    1  0.8039394E-009  0.2952534E+03  0.7561462E-02  0.1002220E+00
         22   -1    0    0    0    0  0.00000000000E+00  0.00000000000E+00  0.12847522315E+04  0.12847522315E+04  0.00000000000E+00 0. -1.
         22   -1    0    0    0    0 -0.00000000000E+00 -0.00000000000E+00 -0.69059576954E+03  0.69059576954E+03  0.00000000000E+00 0.  1.
        -24    2    1    2    0    0  0.20890278562E+03  0.17225973404E+03 -0.59947008411E+03  0.66264760371E+03  0.80147833102E+02 0.  0.
         25    2    1    2    0    0 -0.17631260564E+03 -0.15516783898E+03  0.25411431069E+03  0.36794682296E+03  0.12509032125E+03 0.  0.
         24    2    1    2    0    0 -0.32590179974E+02 -0.17091895060E+02  0.93951223541E+03  0.94475357439E+03  0.92313721212E+02 0.  0.
        -11    1    5    5    0    0 -0.57337960827E+02 -0.35547609654E+02  0.57742546077E+03  0.58135310875E+03  0.00000000000E+00 0.  1.
         12    1    5    5    0    0  0.24747780853E+02  0.18455714594E+02  0.36208677464E+03  0.36340046564E+03  0.00000000000E+00 0. -1.
         13    1    3    3    0    0  0.67237018103E+02  0.10639588026E+03 -0.25262349928E+03  0.28224020325E+03  0.00000000000E+00 0. -1.
        -14    1    3    3    0    0  0.14166576752E+03  0.65863853776E+02 -0.34684658483E+03  0.38040740047E+03  0.00000000000E+00 0.  1.
          5    1    4    4  501    0 -0.12102819375E+03 -0.36090756143E+02  0.17056915497E+03  0.21227735486E+03  0.41800000000E+01 0. -1.
         -5    1    4    4    0  501 -0.55284411899E+02 -0.11907708283E+03  0.83545155721E+02  0.15566946810E+03  0.41800000000E+01 0. -1.
</event>
<event>
11    1  0.8039394E-009  0.3379675E+03  0.7561462E-02  0.9852908E-01
         22   -1    0    0    0    0  0.00000000000E+00  0.00000000000E+00  0.13672916193E+03  0.13672916193E+03  0.00000000000E+00 0.  1.
         22   -1    0    0    0    0 -0.00000000000E+00 -0.00000000000E+00 -0.11499711137E+04  0.11499711137E+04  0.00000000000E+00 0.  1.
         24    2    1    2    0    0 -0.30048707039E+03 -0.88547817252E+02 -0.60582457100E+03  0.68453815623E+03  0.58616389259E+02 0.  0.
         25    2    1    2    0    0  0.28539399434E+03  0.14051160484E+03 -0.36092913491E+03  0.49710227725E+03  0.12509032945E+03 0.  0.
        -24    2    1    2    0    0  0.15093076049E+02 -0.51963787584E+02 -0.46488245886E+02  0.10505984219E+03  0.77125723787E+02 0.  0.
        -13    1    3    3    0    0 -0.19850982393E+03 -0.86189069775E+02 -0.39814020903E+03  0.45315596873E+03  0.00000000000E+00 0.  1.
         14    1    3    3    0    0 -0.10197724646E+03 -0.23587474764E+01 -0.20768436197E+03  0.23138218750E+03  0.00000000000E+00 0. -1.
         11    1    5    5    0    0 -0.95202686114E+01  0.13752633393E+02  0.56298589151E+01  0.17648392309E+02  0.00000000000E+00 0. -1.
        -12    1    5    5    0    0  0.24613344660E+02 -0.65716420977E+02 -0.52118104802E+02  0.87411449876E+02  0.00000000000E+00 0.  1.
          5    1    4    4  501    0  0.18429508448E+03  0.23329043364E+02 -0.17618520337E+03  0.25606175176E+03  0.41800000000E+01 0.  1.
         -5    1    4    4    0  501  0.10109890986E+03  0.11718256147E+03 -0.18474393154E+03  0.24104052549E+03  0.41800000000E+01 0.  1.
</event>
<event>
11    1  0.8039394E-009  0.1262657E+03  0.7561462E-02  0.1123944E+00
         22   -1    0    0    0    0  0.00000000000E+00  0.00000000000E+00  0.11906929184E+04  0.11906929184E+04  0.00000000000E+00 0. -1.
         22   -1    0    0    0    0 -0.00000000000E+00 -0.00000000000E+00 -0.72099767972E+03  0.72099767972E+03  0.00000000000E+00 0.  1.
        -24    2    1    2    0    0 -0.12981008035E+01  0.18064868382E+02 -0.60263170763E+03  0.60923257445E+03  0.87586130146E+02 0.  0.
         25    2    1    2    0    0  0.31236945521E+02 -0.22715903622E+01 -0.76895590105E+02  0.15013913644E+03  0.12509165289E+03 0.  0.
         24    2    1    2    0    0 -0.29938844717E+02 -0.15793278020E+02  0.11492225364E+04  0.11523188873E+04  0.77334452904E+02 0.  0.
        -13    1    5    5    0    0  0.19954605579E+02  0.12344186513E+02  0.20041814139E+03  0.20178700806E+03  0.00000000000E+00 0.  1.
         14    1    5    5    0    0 -0.49893450296E+02 -0.28137464533E+02  0.94880439505E+03  0.95053187919E+03  0.00000000000E+00 0. -1.
         11    1    3    3    0    0 -0.99531477787E+01 -0.21319307642E+02 -0.51413120974E+02  0.56541020837E+02  0.00000000000E+00 0. -1.
        -12    1    3    3    0    0  0.86550469752E+01  0.39384176024E+02 -0.55121858666E+03  0.55269155362E+03  0.00000000000E+00 0.  1.
          5    1    4    4  501    0 -0.32642147914E+02 -0.44390077846E+01  0.16349753177E+02  0.37013530492E+02  0.41800000000E+01 0. -1.
         -5    1    4    4    0  501  0.63879093435E+02  0.21674174224E+01 -0.93245343282E+02  0.11312560594E+03  0.41800000000E+01 0. -1.
</event>
<event>
11    1  0.8039394E-009  0.7830390E+03  0.7561462E-02  0.8918153E-01
         22   -1    0    0    0    0  0.00000000000E+00  0.00000000000E+00  0.10983899143E+04  0.10983899143E+04  0.00000000000E+00 0. -1.
         22   -1    0    0    0    0 -0.00000000000E+00 -0.00000000000E+00 -0.33051092426E+04  0.33051092426E+04  0.00000000000E+00 0.  1.
         24    2    1    2    0    0 -0.14903977339E+02  0.36724691204E+03 -0.22311969365E+04  0.22626836089E+04  0.80030754242E+02 0.  0.
         25    2    1    2    0    0  0.52959654618E+03 -0.88206046242E+03 -0.58302047981E+03  0.11891438598E+04  0.12508828227E+03 0.  0.
        -24    2    1    2    0    0 -0.51469256884E+03  0.51481355037E+03  0.60749808802E+03  0.95167168810E+03  0.81753549881E+02 0.  0.
        -11    1    3    3    0    0 -0.13967493228E+02  0.15837886839E+03 -0.12051679885E+04  0.12156104793E+04  0.00000000000E+00 0.  1.
         12    1    3    3    0    0 -0.93648411063E+00  0.20886804365E+03 -0.10260289480E+04  0.10470731296E+04  0.00000000000E+00 0. -1.
         11    1    5    5    0    0 -0.40659033134E+03  0.35621943855E+03  0.45326253504E+03  0.70544660436E+03  0.00000000000E+00 0. -1.
        -12    1    5    5    0    0 -0.10810223750E+03  0.15859411182E+03  0.15423555298E+03  0.24622508373E+03  0.00000000000E+00 0.  1.
          5    1    4    4  501    0  0.15707763870E+03 -0.37943910138E+03 -0.22333520478E+03  0.46748636593E+03  0.41800000000E+01 0. -1.
         -5    1    4    4    0  501  0.37251890748E+03 -0.50262136103E+03 -0.35968527502E+03  0.72165749387E+03  0.41800000000E+01 0. -1.
</event>
<event>
11    1  0.1162758E-008  0.1525483E+03  0.7561462E-02  0.1094303E+00
         22   -1    0    0    0    0  0.00000000000E+00  0.00000000000E+00  0.19528000434E+04  0.19528000434E+04  0.00000000000E+00 0. -1.
         22   -1    0    0    0    0 -0.00000000000E+00 -0.00000000000E+00 -0.95084537689E+03  0.95084537689E+03  0.00000000000E+00 0. -1.
        -24    2    1    2    0    0 -0.60841921071E+02 -0.74954911206E+02 -0.62889410727E+03  0.64115563385E+03  0.79074462267E+02 0.  0.
         25    2    1    2    0    0  0.83916879406E+02  0.15655961645E+01 -0.29593229428E+03  0.33206559108E+03  0.12508852961E+03 0.  0.
         24    2    1    2    0    0 -0.23074958335E+02  0.73389315041E+02  0.19267810681E+04  0.19304241954E+04  0.90187829438E+02 0.  0.
        -11    1    5    5    0    0 -0.25737912707E+02 -0.11911260425E+02  0.75858391412E+03  0.75911387357E+03  0.00000000000E+00 0.  1.
         12    1    5    5    0    0  0.26629543716E+01  0.85300575466E+02  0.11681971539E+04  0.11713103218E+04  0.00000000000E+00 0. -1.
         11    1    3    3    0    0 -0.32809649804E+02 -0.29390651338E+02 -0.49520471003E+03  0.49715992230E+03  0.00000000000E+00 0. -1.
        -12    1    3    3    0    0 -0.28032271267E+02 -0.45564259868E+02 -0.13368939724E+03  0.14399571155E+03  0.00000000000E+00 0.  1.
          5    1    4    4  501    0  0.18320510548E+02  0.37853503863E+02 -0.22446511824E+03  0.22840882331E+03  0.41800000000E+01 0.  1.
         -5    1    4    4    0  501  0.65596368858E+02 -0.36287907698E+02 -0.71467176041E+02  0.10365676777E+03  0.41800000000E+01 0.  1.
</event>
<event>
11    1  0.8039394E-009  0.3559700E+03  0.7561462E-02  0.9789422E-01
         22   -1    0    0    0    0  0.00000000000E+00  0.00000000000E+00  0.20087192659E+04  0.20087192659E+04  0.00000000000E+00 0.  1.
         22   -1    0    0    0    0 -0.00000000000E+00 -0.00000000000E+00 -0.35487634935E+03  0.35487634935E+03  0.00000000000E+00 0.  1.
        -24    2    1    2    0    0 -0.29383499760E+03 -0.25707303717E+02 -0.89023790472E+02  0.31838749234E+03  0.80283801155E+02 0.  0.
         25    2    1    2    0    0  0.50474427839E+03 -0.91694530056E+02  0.35934782496E+03  0.63871161997E+03  0.12508797212E+03 0.  0.
         24    2    1    2    0    0 -0.21090928079E+03  0.11740183377E+03  0.13835188821E+04  0.14064965030E+04  0.76432980436E+02 0.  0.
        -13    1    5    5    0    0 -0.20747652157E+03  0.12370965840E+03  0.13705277759E+04  0.13916526044E+04  0.00000000000E+00 0.  1.
         14    1    5    5    0    0 -0.34327592211E+01 -0.63078246268E+01  0.12991106148E+02  0.14843898624E+02  0.00000000000E+00 0. -1.
         13    1    3    3    0    0 -0.13780002588E+03 -0.34414294832E+02 -0.77214891140E+02  0.16166425157E+03  0.00000000000E+00 0. -1.
        -14    1    3    3    0    0 -0.15603497172E+03  0.87069911150E+01 -0.11808899332E+02  0.15672324077E+03  0.00000000000E+00 0.  1.
          5    1    4    4  501    0  0.58060724242E+02 -0.50947172497E+02  0.33537396424E+02  0.84314242236E+02  0.41800000000E+01 0. -1.
         -5    1    4    4    0  501  0.44668355415E+03 -0.40747357560E+02  0.32581042853E+03  0.55439737773E+03  0.41800000000E+01 0. -1.
</event>
<event>
11    1  0.8039394E-009  0.1591958E+03  0.7561462E-02  0.1087836E+00
         22   -1    0    0    0    0  0.00000000000E+00  0.00000000000E+00  0.41757527205E+03  0.41757527205E+03  0.00000000000E+00 0. -1.
         22   -1    0    0    0    0 -0.00000000000E+00 -0.00000000000E+00 -0.24441809212E+03  0.24441809212E+03  0.00000000000E+00 0.  1.
         24    2    1    2    0    0  0.44839531610E+02 -0.76691969396E+01 -0.10592769343E+03  0.14025458474E+03  0.79882865040E+02 0.  0.
         25    2    1    2    0    0 -0.75658833579E+02 -0.85029889318E+02 -0.43976304290E+02  0.17474588339E+03  0.12509143555E+03 0.  0.
        -24    2    1    2    0    0  0.30819301969E+02  0.92699086258E+02  0.32306117766E+03  0.34699289605E+03  0.80576643207E+02 0.  0.
        -11    1    3    3    0    0  0.40437228263E+02  0.31855116531E+02 -0.68113325293E+02  0.85377649073E+02  0.00000000000E+00 0.  1.
         12    1    3    3    0    0  0.44023033476E+01 -0.39524313470E+02 -0.37814368139E+02  0.54876935664E+02  0.00000000000E+00 0. -1.
         13    1    5    5    0    0  0.48983180262E+02  0.44050108661E+02  0.11483383396E+03  0.13238796563E+03  0.00000000000E+00 0. -1.
        -14    1    5    5    0    0 -0.18163878293E+02  0.48648977597E+02  0.20822734370E+03  0.21460493042E+03  0.00000000000E+00 0.  1.
          5    1    4    4  501    0 -0.23466231083E+02 -0.10341630300E+03 -0.37284868094E+01  0.10619307765E+03  0.41800000000E+01 0.  1.
         -5    1    4    4    0  501 -0.52192602496E+02  0.18386413679E+02 -0.40247817481E+02  0.68552805743E+02  0.41800000000E+01 0.  1.
</event>
<event>
11    1  0.8039394E-009  0.1325827E+03  0.7561462E-02  0.1116136E+00
         22   -1    0    0    0    0  0.00000000000E+00  0.00000000000E+00  0.26216408927E+03  0.26216408927E+03  0.00000000000E+00 0. -1.
         22   -1    0    0    0    0 -0.00000000000E+00 -0.00000000000E+00 -0.10765982378E+04  0.10765982378E+04  0.00000000000E+00 0. -1.
         24    2    1    2    0    0  0.19436484879E+02  0.37677059178E+02 -0.79523856061E+03  0.80226123788E+03  0.97063833645E+02 0.  0.
         25    2    1    2    0    0 -0.78771053695E+02 -0.11030746485E+02 -0.24607407913E+03  0.28727451565E+03  0.12509052184E+03 0.  0.
        -24    2    1    2    0    0  0.59334568817E+02 -0.26646312693E+02  0.22687849121E+03  0.24922657353E+03  0.80058841754E+02 0.  0.
        -13    1    3    3    0    0 -0.31244437139E+02 -0.11929761520E+02 -0.32307810878E+03  0.32480455420E+03  0.00000000000E+00 0.  1.
         14    1    3    3    0    0  0.50680922017E+02  0.49606820699E+02 -0.47216045183E+03  0.47745668368E+03  0.00000000000E+00 0. -1.
         11    1    5    5    0    0  0.43335981611E+02 -0.54297092442E+02  0.17520873813E+03  0.18847886743E+03  0.00000000000E+00 0. -1.
        -12    1    5    5    0    0  0.15998587206E+02  0.27650779749E+02  0.51669753078E+02  0.60747706100E+02  0.00000000000E+00 0.  1.
          5    1    4    4  501    0 -0.10445358266E+03 -0.19672590397E+02 -0.23452984743E+03  0.25752530649E+03  0.41800000000E+01 0. -1.
         -5    1    4    4    0  501  0.25682528967E+02  0.86418439115E+01 -0.11544231692E+02  0.29749209160E+02  0.41800000000E+01 0. -1.
</event>
<event>
11    1  0.8039394E-009  0.2193127E+03  0.7561462E-02  0.1041649E+00
         22   -1    0    0    0    0  0.00000000000E+00  0.00000000000E+00  0.26763158966E+03  0.26763158966E+03  0.00000000000E+00 0.  1.
         22   -1    0    0    0    0 -0.00000000000E+00 -0.00000000000E+00 -0.57786765947E+03  0.57786765947E+03  0.00000000000E+00 0. -1.
        -24    2    1    2    0    0  0.14079431420E+03 -0.10522417231E+03 -0.35802631647E+03  0.40692233250E+03  0.80670788102E+02 0.  0.
         25    2    1    2    0    0 -0.20115078227E+03  0.50094645962E+02 -0.90601098447E+02  0.25850766285E+03  0.12508613812E+03 0.  0.
         24    2    1    2    0    0  0.60356468067E+02  0.55129526349E+02  0.13839134511E+03  0.18006925378E+03  0.81182534098E+02 0.  0.
        -11    1    5    5    0    0  0.72271133917E+02  0.24544411015E+02  0.12062864857E+03  0.14274738445E+03  0.00000000000E+00 0.  1.
         12    1    5    5    0    0 -0.11914665850E+02  0.30585115335E+02  0.17762696538E+02  0.37321869335E+02  0.00000000000E+00 0. -1.
         13    1    3    3    0    0  0.20983132915E+02 -0.29293591269E+02 -0.15577582834E+03  0.15988907108E+03  0.00000000000E+00 0. -1.
        -14    1    3    3    0    0  0.11981118129E+03 -0.75930581043E+02 -0.20225048813E+03  0.24703326142E+03  0.00000000000E+00 0.  1.
          5    1    4    4  501    0 -0.71447481054E+02  0.12319965716E+02 -0.99356179270E+02  0.12306765157E+03  0.41800000000E+01 0. -1.
         -5    1    4    4    0  501 -0.12970330122E+03  0.37774680246E+02  0.87550808236E+01  0.13544001128E+03  0.41800000000E+01 0. -1.
</event>
<event>
11    1  0.8039394E-009  0.1672279E+03  0.7561462E-02  0.1080470E+00
         22   -1    0    0    0    0  0.00000000000E+00  0.00000000000E+00  0.14969126982E+04  0.14969126982E+04  0.00000000000E+00 0.  1.
         22   -1    0    0    0    0 -0.00000000000E+00 -0.00000000000E+00 -0.21540216391E+03  0.21540216391E+03  0.00000000000E+00 0.  1.
        -24    2    1    2    0    0  0.54303539803E+02  0.32838492759E+02 -0.14231583732E+03  0.17968502591E+03  0.89474409426E+02 0.  0.
         25    2    1    2    0    0 -0.13864859459E+03  0.36839067608E+02  0.12880045751E+03  0.22982102433E+03  0.12509035008E+03 0.  0.
         24    2    1    2    0    0  0.84345054784E+02 -0.69677560367E+02  0.12950259141E+04  0.13028088119E+04  0.90827481668E+02 0.  0.
        -11    1    5    5    0    0  0.87832098972E+02 -0.48096343063E+02  0.12326893404E+04  0.12367500741E+04  0.00000000000E+00 0.  1.
         12    1    5    5    0    0 -0.34870441882E+01 -0.21581217304E+02  0.62336573737E+02  0.66058737823E+02  0.00000000000E+00 0. -1.
         13    1    3    3    0    0  0.54359043345E+02  0.35732370451E+00 -0.28606952398E+02  0.61427933378E+02  0.00000000000E+00 0. -1.
        -14    1    3    3    0    0 -0.55503542584E-01  0.32481169055E+02 -0.11370888492E+03  0.11825709253E+03  0.00000000000E+00 0.  1.
          5    1    4    4  501    0 -0.15756124123E+02 -0.28283048473E+02 -0.91311500931E+01  0.33897442091E+02  0.41800000000E+01 0.  1.
         -5    1    4    4    0  501 -0.12289247046E+03  0.65122116081E+02  0.13793160760E+03  0.19592358224E+03  0.41800000000E+01 0.  1.
</event>
<event>
11    1  0.8039394E-009  0.1669331E+03  0.7561462E-02  0.1080732E+00
         22   -1    0    0    0    0  0.00000000000E+00  0.00000000000E+00  0.10653730232E+03  0.10653730232E+03  0.00000000000E+00 0.  1.
         22   -1    0    0    0    0 -0.00000000000E+00 -0.00000000000E+00 -0.11228359628E+04  0.11228359628E+04  0.00000000000E+00 0. -1.
         24    2    1    2    0    0 -0.41667679869E+02 -0.11608422720E+03 -0.81599634078E+03  0.82920144871E+03  0.80704838873E+02 0.  0.
         25    2    1    2    0    0 -0.55873233438E+02  0.78165315653E+02 -0.21484410165E+03  0.26652721289E+03  0.12508849833E+03 0.  0.
        -24    2    1    2    0    0  0.97540913308E+02  0.37918911550E+02  0.14541781957E+02  0.13364460351E+03  0.81837295918E+02 0.  0.
        -13    1    3    3    0    0 -0.23497887859E+02 -0.12110593246E+03 -0.61032225308E+03  0.62266527943E+03  0.00000000000E+00 0.  1.
         14    1    3    3    0    0 -0.18169792010E+02  0.50217052526E+01 -0.20567408771E+03  0.20653616928E+03  0.00000000000E+00 0. -1.
         11    1    5    5    0    0  0.27818558191E+02  0.53174685977E+02  0.16524084726E+02  0.62245198888E+02  0.00000000000E+00 0. -1.
        -12    1    5    5    0    0  0.69722355116E+02 -0.15255774426E+02 -0.19823027684E+01  0.71399404623E+02  0.00000000000E+00 0.  1.
          5    1    4    4  501    0 -0.74691960735E+02  0.82355247074E+02 -0.21965143531E+03  0.24622246273E+03  0.41800000000E+01 0.  1.
         -5    1    4    4    0  501  0.18818727297E+02 -0.41899314207E+01  0.48073336585E+01  0.20304750166E+02  0.41800000000E+01 0.  1.
</event>
<event>
11    1  0.8039394E-009  0.1625063E+03  0.7561462E-02  0.1084743E+00
         22   -1    0    0    0    0  0.00000000000E+00  0.00000000000E+00  0.92993235094E+03  0.92993235094E+03  0.00000000000E+00 0.  1.
         22   -1    0    0    0    0 -0.00000000000E+00 -0.00000000000E+00 -0.16239427395E+04  0.16239427395E+04  0.00000000000E+00 0. -1.
         24    2    1    2    0    0  0.98359608878E+02 -0.33421542699E+02 -0.16054994416E+04  0.16108412908E+04  0.79934942044E+02 0.  0.
         25    2    1    2    0    0 -0.59229476441E+02  0.56589336002E+02  0.52127409031E+03  0.54229561178E+03  0.12508944599E+03 0.  0.
        -24    2    1    2    0    0 -0.39130132437E+02 -0.23167793303E+02  0.39021496271E+03  0.40073818789E+03  0.79091492588E+02 0.  0.
        -13    1    3    3    0    0  0.47469379355E+02 -0.46080801408E+02 -0.53765665664E+03  0.54171160470E+03  0.00000000000E+00 0.  1.
         14    1    3    3    0    0  0.50890229522E+02  0.12659258708E+02 -0.10678427850E+04  0.10691296861E+04  0.00000000000E+00 0. -1.
         13    1    5    5    0    0 -0.24041208053E+02  0.27875262975E+02  0.12865713757E+03  0.13381953900E+03  0.00000000000E+00 0. -1.
        -14    1    5    5    0    0 -0.15088924384E+02 -0.51043056278E+02  0.26155782514E+03  0.26691864889E+03  0.00000000000E+00 0.  1.
          5    1    4    4  501    0 -0.62924382208E+02  0.89661325874E+02  0.45499888863E+03  0.46801719230E+03  0.41800000000E+01 0. -1.
         -5    1    4    4    0  501  0.36949057677E+01 -0.33071989872E+02  0.66275201681E+02  0.74278419480E+02  0.41800000000E+01 0. -1.
</event>
<event>
11    1  0.8039394E-009  0.5502397E+03  0.7561462E-02  0.9287774E-01
         22   -1    0    0    0    0  0.00000000000E+00  0.00000000000E+00  0.84751651200E+03  0.84751651200E+03  0.00000000000E+00 0. -1.
         22   -1    0    0    0    0 -0.00000000000E+00 -0.00000000000E+00 -0.70776151483E+03  0.70776151483E+03  0.00000000000E+00 0. -1.
        -24    2    1    2    0    0  0.35510692257E+03  0.30115537776E+03 -0.39910384146E+03  0.61831926735E+03  0.78989569482E+02 0.  0.
         25    2    1    2    0    0 -0.47348453713E+03 -0.28657882644E+03  0.55517212672E+03  0.79383784144E+03  0.12508955811E+03 0.  0.
         24    2    1    2    0    0  0.11837761455E+03 -0.14576551322E+02 -0.16313288086E+02  0.14312091805E+03  0.77406319764E+02 0.  0.
        -13    1    5    5    0    0  0.29824807079E+02  0.28631120123E+02  0.68405585467E+01  0.41905290811E+02  0.00000000000E+00 0.  1.
         14    1    5    5    0    0  0.88552807474E+02 -0.43207671445E+02 -0.23153846633E+02  0.10121562724E+03  0.00000000000E+00 0. -1.
         11    1    3    3    0    0  0.32462331222E+03  0.24308464656E+03 -0.32801715964E+03  0.52159917298E+03  0.00000000000E+00 0. -1.
        -12    1    3    3    0    0  0.30483610350E+02  0.58070731202E+02 -0.71086681821E+02  0.96720094368E+02  0.00000000000E+00 0.  1.
          5    1    4    4  501    0 -0.11598893093E+03 -0.25638899634E+02  0.16789208393E+03  0.20570855480E+03  0.41800000000E+01 0. -1.
         -5    1    4    4    0  501 -0.35749560620E+03 -0.26093992681E+03  0.38728004279E+03  0.58812928663E+03  0.41800000000E+01 0. -1.
</event>
<event>
11    1  0.8039394E-009  0.8591860E+03  0.7561462E-02  0.8825850E-01
         22   -1    0    0    0    0  0.00000000000E+00  0.00000000000E+00  0.11479186347E+04  0.11479186347E+04  0.00000000000E+00 0. -1.
         22   -1    0    0    0    0 -0.00000000000E+00 -0.00000000000E+00 -0.10703683313E+04  0.10703683313E+04  0.00000000000E+00 0. -1.
         24    2    1    2    0    0  0.68281091270E+03 -0.51744063859E+03 -0.37691162883E+03  0.93940633285E+03  0.80289010967E+02 0.  0.
         25    2    1    2    0    0 -0.47377025353E+03  0.73039270455E+03  0.39534232627E+03  0.96430005373E+03  0.12508909902E+03 0.  0.
        -24    2    1    2    0    0 -0.20904065917E+03 -0.21295206596E+03  0.59119606037E+02  0.31458057940E+03  0.80120119410E+02 0.  0.
        -13    1    3    3    0    0  0.16192952816E+03 -0.83919908566E+02 -0.91867065776E+02  0.20421381177E+03  0.00000000000E+00 0.  1.
         14    1    3    3    0    0  0.52088138453E+03 -0.43352073003E+03 -0.28504456306E+03  0.73519252107E+03  0.00000000000E+00 0. -1.
         13    1    5    5    0    0 -0.14910833823E+03 -0.10965415760E+03  0.97218511784E+01  0.18534250781E+03  0.00000000000E+00 0. -1.
        -14    1    5    5    0    0 -0.59932320939E+02 -0.10329790836E+03  0.49397754858E+02  0.12923807159E+03  0.00000000000E+00 0.  1.
          5    1    4    4  501    0 -0.42405951564E+03  0.70350086091E+03  0.38281792569E+03  0.90625988035E+03  0.41800000000E+01 0. -1.
         -5    1    4    4    0  501 -0.49710737893E+02  0.26891843641E+02  0.12524400588E+02  0.58040173383E+02  0.41800000000E+01 0. -1.
</event>
<event>
11    1  0.8039394E-009  0.2475276E+03  0.7561462E-02  0.1025225E+00
         22   -1    0    0    0    0  0.00000000000E+00  0.00000000000E+00  0.20781663428E+03  0.20781663428E+03  0.00000000000E+00 0. -1.
         22   -1    0    0    0    0 -0.00000000000E+00 -0.00000000000E+00 -0.72911301263E+03  0.72911301263E+03  0.00000000000E+00 0.  1.
         24    2    1    2    0    0  0.51075784634E+02 -0.82001253085E+02 -0.36680224676E+03  0.38779983751E+03  0.80696248128E+02 0.  0.
         25    2    1    2    0    0  0.65221333025E+01  0.26677982660E+03 -0.15804479782E+03  0.33441291353E+03  0.12505928400E+03 0.  0.
        -24    2    1    2    0    0 -0.57597917937E+02 -0.18477857352E+03  0.35506662339E+01  0.21471689586E+03  0.92898314059E+02 0.  0.
        -13    1    3    3    0    0  0.30696912334E+02 -0.87747667982E+02 -0.34540939399E+03  0.35770043768E+03  0.00000000000E+00 0.  1.
         14    1    3    3    0    0  0.20378872300E+02  0.57464148967E+01 -0.21392852777E+02  0.30099399833E+02  0.00000000000E+00 0. -1.
         13    1    5    5    0    0 -0.47527217653E+02 -0.17819600358E+03  0.28882546408E+02  0.18667311965E+03  0.00000000000E+00 0. -1.
        -14    1    5    5    0    0 -0.10070700284E+02 -0.65825699323E+01 -0.25331880174E+02  0.28043776213E+02  0.00000000000E+00 0.  1.
          5    1    4    4  501    0  0.17240050488E+02  0.17405214285E+03 -0.32554914359E+02  0.17795691226E+03  0.41800000000E+01 0.  1.
         -5    1    4    4    0  501 -0.10717917185E+02  0.92727683753E+02 -0.12548988347E+03  0.15645600128E+03  0.41800000000E+01 0.  1.
</event>
<event>
11    1  0.8039394E-009  0.1610672E+03  0.7561462E-02  0.1086078E+00
         22   -1    0    0    0    0  0.00000000000E+00  0.00000000000E+00  0.57171367525E+03  0.57171367525E+03  0.00000000000E+00 0. -1.
         22   -1    0    0    0    0 -0.00000000000E+00 -0.00000000000E+00 -0.21442638051E+04  0.21442638051E+04  0.00000000000E+00 0. -1.
         24    2    1    2    0    0  0.97862456348E+02  0.19684855714E+02 -0.20056488677E+04  0.20095918355E+04  0.76599026800E+02 0.  0.
         25    2    1    2    0    0 -0.17349400597E+03 -0.31332748651E+02 -0.40690606218E+02  0.21996493437E+03  0.12508771191E+03 0.  0.
        -24    2    1    2    0    0  0.75631549623E+02  0.11647892936E+02  0.47378934400E+03  0.48642071055E+03  0.79202023062E+02 0.  0.
        -13    1    3    3    0    0 -0.67035284547E+01 -0.12120964472E+02 -0.39267569800E+03  0.39291991407E+03  0.00000000000E+00 0.  1.
         14    1    3    3    0    0  0.10456598480E+03  0.31805820186E+02 -0.16129731697E+04  0.16166719214E+04  0.00000000000E+00 0. -1.
         11    1    5    5    0    0  0.73124048091E+02  0.38424800006E+02  0.33360728742E+03  0.34368214077E+03  0.00000000000E+00 0. -1.
        -12    1    5    5    0    0  0.25075015319E+01 -0.26776907070E+02  0.14018205658E+03  0.14273856978E+03  0.00000000000E+00 0.  1.
          5    1    4    4  501    0 -0.12834650726E+03 -0.15792862266E+02 -0.84907453891E+02  0.15475460753E+03  0.41800000000E+01 0.  1.
         -5    1    4    4    0  501 -0.45147498710E+02 -0.15539886384E+02  0.44216847673E+02  0.65210326841E+02  0.41800000000E+01 0.  1.
</event>
<event>
11    1  0.8039394E-009  0.4617079E+03  0.7561462E-02  0.9483407E-01
         22   -1    0    0    0    0  0.00000000000E+00  0.00000000000E+00  0.31790089930E+03  0.31790089930E+03  0.00000000000E+00 0.  1.
         22   -1    0    0    0    0 -0.00000000000E+00 -0.00000000000E+00 -0.21635452578E+04  0.21635452578E+04  0.00000000000E+00 0.  1.
        -24    2    1    2    0    0 -0.50496976809E+02  0.13685766945E+02 -0.12612140969E+04  0.12651154393E+04  0.84373168820E+02 0.  0.
         25    2    1    2    0    0  0.33567084461E+03  0.31995676539E+03 -0.59968055145E+03  0.76831757320E+03  0.12509149395E+03 0.  0.
         24    2    1    2    0    0 -0.28517386780E+03 -0.33364253234E+03  0.15250289905E+02  0.44801314456E+03  0.88553554938E+02 0.  0.
        -11    1    5    5    0    0 -0.20640306989E+03 -0.17517494923E+03  0.53631548608E+01  0.27077158922E+03  0.00000000000E+00 0.  1.
         12    1    5    5    0    0 -0.78770797912E+02 -0.15846758311E+03  0.98871350438E+01  0.17724155534E+03  0.00000000000E+00 0. -1.
         13    1    3    3    0    0  0.19403087070E+02 -0.77917118200E+01 -0.48898051230E+03  0.48942735106E+03  0.00000000000E+00 0. -1.
        -14    1    3    3    0    0 -0.69900063879E+02  0.21477478765E+02 -0.77223358462E+03  0.77568808824E+03  0.00000000000E+00 0.  1.
          5    1    4    4  501    0  0.36658017893E+02  0.29994774209E+01 -0.17048816596E+02  0.40754652348E+02  0.41800000000E+01 0.  1.
         -5    1    4    4    0  501  0.29901282672E+03  0.31695728797E+03 -0.58263173485E+03  0.72756292085E+03  0.41800000000E+01 0.  1.
</event>
<event>
11    1  0.8039394E-009  0.8256688E+03  0.7561462E-02  0.8865188E-01
         22   -1    0    0    0    0  0.00000000000E+00  0.00000000000E+00  0.18510887413E+04  0.18510887413E+04  0.00000000000E+00 0.  1.
         22   -1    0    0    0    0 -0.00000000000E+00 -0.00000000000E+00 -0.60702192675E+03  0.60702192675E+03  0.00000000000E+00 0. -1.
         24    2    1    2    0    0  0.18114207456E+03  0.94150509147E+02 -0.13784597122E+03  0.25903002918E+03  0.80114135367E+02 0.  0.
         25    2    1    2    0    0  0.86968575366E+01  0.74817769856E+03  0.30847126075E+03  0.81893077421E+03  0.12509032852E+03 0.  0.
        -24    2    1    2    0    0 -0.18983893210E+03 -0.84232820771E+03  0.10734415250E+04  0.13801498646E+04  0.83554243359E+02 0.  0.
        -11    1    3    3    0    0  0.74571016527E+02  0.31683206189E+02 -0.10227846294E+03  0.13048197593E+03  0.00000000000E+00 0.  1.
         12    1    3    3    0    0  0.10657105804E+03  0.62467302958E+02 -0.35567508281E+02  0.12854805325E+03  0.00000000000E+00 0. -1.
         11    1    5    5    0    0 -0.13754731430E+03 -0.42868652528E+03  0.53793055031E+03  0.70147036829E+03  0.00000000000E+00 0. -1.
        -12    1    5    5    0    0 -0.52291617801E+02 -0.41364168243E+03  0.53551097468E+03  0.67867949633E+03  0.00000000000E+00 0.  1.
          5    1    4    4  501    0  0.42962889307E+02  0.41268678830E+03  0.11704771251E+03  0.43113087862E+03  0.41800000000E+01 0. -1.
         -5    1    4    4    0  501 -0.34266031770E+02  0.33549091026E+03  0.19142354824E+03  0.38779989559E+03  0.41800000000E+01 0. -1.
</event>
<event>
11    1  0.8039394E-009  0.1438636E+03  0.7561462E-02  0.1103319E+00
         22   -1    0    0    0    0  0.00000000000E+00  0.00000000000E+00  0.66756145880E+03  0.66756145880E+03  0.00000000000E+00 0.  1.
         22   -1    0    0    0    0 -0.00000000000E+00 -0.00000000000E+00 -0.47113432150E+03  0.47113432150E+03  0.00000000000E+00 0. -1.
         24    2    1    2    0    0 -0.51491016336E+02 -0.48357167593E+02 -0.43803997799E+03  0.45115651651E+03  0.81691123457E+02 0.  0.
         25    2    1    2    0    0  0.53154670037E+02  0.72191471864E+02  0.24853998750E+03  0.29233063873E+03  0.12509216361E+03 0.  0.
        -24    2    1    2    0    0 -0.16636537008E+01 -0.23834304271E+02  0.38592712780E+03  0.39520862506E+03  0.81726785977E+02 0.  0.
        -13    1    3    3    0    0  0.10276357156E+02 -0.42369969846E+02 -0.13637118940E+03  0.14317094384E+03  0.00000000000E+00 0.  1.
         14    1    3    3    0    0 -0.61767373492E+02 -0.59871977467E+01 -0.30166878859E+03  0.30798557267E+03  0.00000000000E+00 0. -1.
         13    1    5    5    0    0 -0.49073578981E+01 -0.36804612980E+02  0.72121015424E+02  0.81117831356E+02  0.00000000000E+00 0. -1.
        -14    1    5    5    0    0  0.32437041973E+01  0.12970308709E+02  0.31380611238E+03  0.31409079371E+03  0.00000000000E+00 0.  1.
          5    1    4    4  501    0 -0.93659460998E+01 -0.12180335214E+02 -0.59465955556E+01  0.16997526613E+02  0.41800000000E+01 0.  1.
         -5    1    4    4    0  501  0.62520616136E+02  0.84371807078E+02  0.25448658305E+03  0.27533311211E+03  0.41800000000E+01 0.  1.
</event>
<event>
11    1  0.8039394E-009  0.1861518E+03  0.7561462E-02  0.1064773E+00
         22   -1    0    0    0    0  0.00000000000E+00  0.00000000000E+00  0.10883673664E+04  0.10883673664E+04  0.00000000000E+00 0.  1.
         22   -1    0    0    0    0 -0.00000000000E+00 -0.00000000000E+00 -0.14796088387E+04  0.14796088387E+04  0.00000000000E+00 0.  1.
         24    2    1    2    0    0 -0.70604393933E+02  0.23230714432E+02 -0.12895046695E+04  0.12941872023E+04  0.81077588629E+02 0.  0.
         25    2    1    2    0    0  0.17416018484E+03 -0.11079351942E+03 -0.10145847915E+03  0.26181381131E+03  0.12508267215E+03 0.  0.
        -24    2    1    2    0    0 -0.10355579091E+03  0.87562804984E+02  0.99972167634E+03  0.10119751915E+04  0.79115809949E+02 0.  0.
        -13    1    3    3    0    0 -0.38250072143E+02 -0.18762230460E+01 -0.10821293773E+04  0.10828068052E+04  0.00000000000E+00 0.  1.
         14    1    3    3    0    0 -0.32354321790E+02  0.25106937478E+02 -0.20737529222E+03  0.21138039709E+03  0.00000000000E+00 0. -1.
         13    1    5    5    0    0 -0.19587799609E+02 -0.11392237778E+02  0.80179798257E+02  0.83320255782E+02  0.00000000000E+00 0. -1.
        -14    1    5    5    0    0 -0.83967991298E+02  0.98955042763E+02  0.91954187808E+03  0.92865493570E+03  0.00000000000E+00 0.  1.
          5    1    4    4  501    0  0.16999860277E+03 -0.82093112733E+02 -0.38985629488E+02  0.19281119213E+03  0.41800000000E+01 0.  1.
         -5    1    4    4    0  501  0.41615820694E+01 -0.28700406683E+02 -0.62472849662E+02  0.69002619183E+02  0.41800000000E+01 0.  1.
</event>
<event>
11    1  0.8039394E-009  0.3419146E+03  0.7561462E-02  0.9838631E-01
         22   -1    0    0    0    0  0.00000000000E+00  0.00000000000E+00  0.40384713376E+03  0.40384713376E+03  0.00000000000E+00 0.  1.
         22   -1    0    0    0    0 -0.00000000000E+00 -0.00000000000E+00 -0.11312325866E+04  0.11312325866E+04  0.00000000000E+00 0. -1.
         24    2    1    2    0    0 -0.15072608274E+02 -0.65527851110E+02 -0.27825256019E+03  0.29832654319E+03  0.83983071666E+02 0.  0.
         25    2    1    2    0    0 -0.13696756786E+03  0.33990475517E+03 -0.71826372618E+03  0.81599408542E+03  0.12509280498E+03 0.  0.
        -24    2    1    2    0    0  0.15204017613E+03 -0.27437690406E+03  0.26913083357E+03  0.42075909171E+03  0.78790272482E+02 0.  0.
        -11    1    3    3    0    0 -0.29221949904E+02 -0.51242113510E+02 -0.81817774817E+02  0.10086537974E+03  0.00000000000E+00 0.  1.
         12    1    3    3    0    0  0.14149341629E+02 -0.14285737600E+02 -0.19643478537E+03  0.19746116345E+03  0.00000000000E+00 0. -1.
         11    1    5    5    0    0  0.96609669827E+02 -0.22845099727E+03  0.18149587378E+03  0.30735002629E+03  0.00000000000E+00 0. -1.
        -12    1    5    5    0    0  0.55430506307E+02 -0.45925906797E+02  0.87634959783E+02  0.11340906543E+03  0.00000000000E+00 0.  1.
          5    1    4    4  501    0 -0.10455506433E+03  0.11339441069E+03 -0.23279502891E+03  0.27928668378E+03  0.41800000000E+01 0.  1.
         -5    1    4    4    0  501 -0.32412503530E+02  0.22651034449E+03 -0.48546869727E+03  0.53670740164E+03  0.41800000000E+01 0.  1.
</event>
<event>
11    1  0.8039394E-009  0.1687947E+03  0.7561462E-02  0.1079085E+00
         22   -1    0    0    0    0  0.00000000000E+00  0.00000000000E+00  0.36769864311E+03  0.36769864311E+03  0.00000000000E+00 0. -1.
         22   -1    0    0    0    0 -0.00000000000E+00 -0.00000000000E+00 -0.47367414523E+03  0.47367414523E+03  0.00000000000E+00 0. -1.
         24    2    1    2    0    0  0.22498264821E+02  0.11318321023E+03 -0.35520060243E+03  0.38283416128E+03  0.84130351725E+02 0.  0.
         25    2    1    2    0    0 -0.33297538744E+02 -0.98591174626E+02 -0.31811558570E+02  0.16579508677E+03  0.12508832775E+03 0.  0.
        -24    2    1    2    0    0  0.10799273923E+02 -0.14592035604E+02  0.28103665887E+03  0.29274354028E+03  0.79922618364E+02 0.  0.
        -11    1    3    3    0    0 -0.13438453007E+02  0.27197868999E+01 -0.62713148662E+01  0.15077090241E+02  0.00000000000E+00 0.  1.
         12    1    3    3    0    0  0.35936717827E+02  0.11046342333E+03 -0.34892928756E+03  0.36775707104E+03  0.00000000000E+00 0. -1.
         11    1    5    5    0    0  0.53823563860E+01  0.30043047465E+01  0.27229086852E+03  0.27236062984E+03  0.00000000000E+00 0. -1.
        -12    1    5    5    0    0  0.54169175367E+01 -0.17596340350E+02  0.87457903574E+01  0.20382910447E+02  0.00000000000E+00 0.  1.
          5    1    4    4  501    0 -0.23067381361E+02 -0.93977547663E+01 -0.65197859057E+02  0.69918918063E+02  0.41800000000E+01 0.  1.
         -5    1    4    4    0  501 -0.10230157383E+02 -0.89193419860E+02  0.33386300487E+02  0.95876168711E+02  0.41800000000E+01 0.  1.
</event>
<event>
11    1  0.8654550E-009  0.1637389E+03  0.7561462E-02  0.1083612E+00
         22   -1    0    0    0    0  0.00000000000E+00  0.00000000000E+00  0.75865571732E+03  0.75865571732E+03  0.00000000000E+00 0. -1.
         22   -1    0    0    0    0 -0.00000000000E+00 -0.00000000000E+00 -0.62011670866E+03  0.62011670866E+03  0.00000000000E+00 0. -1.
         24    2    1    2    0    0  0.41711114060E+02  0.57565593974E+01 -0.46317172617E+03  0.47220682615E+03  0.81720766790E+02 0.  0.
         25    2    1    2    0    0  0.18482623763E+02 -0.93513112234E+02 -0.10390142569E+03  0.18849078185E+03  0.12508780533E+03 0.  0.
        -24    2    1    2    0    0 -0.60193737822E+02  0.87756552836E+02  0.70561216052E+03  0.71807481798E+03  0.80115070311E+02 0.  0.
        -13    1    3    3    0    0  0.37227639706E+02 -0.10299693719E+02 -0.81697061669E+02  0.90368084710E+02  0.00000000000E+00 0.  1.
         14    1    3    3    0    0  0.44834743537E+01  0.16056253117E+02 -0.38147466451E+03  0.38183874144E+03  0.00000000000E+00 0. -1.
         13    1    5    5    0    0 -0.29022294084E+02  0.19913730214E+02  0.46051861189E+03  0.46186171318E+03  0.00000000000E+00 0. -1.
        -14    1    5    5    0    0 -0.31171443738E+02  0.67842822623E+02  0.24509354863E+03  0.25621310479E+03  0.00000000000E+00 0.  1.
          5    1    4    4  501    0 -0.30270931885E+02 -0.10193702516E+03 -0.81383692989E+02  0.13397113234E+03  0.41800000000E+01 0.  1.
         -5    1    4    4    0  501  0.48753555648E+02  0.84239129251E+01 -0.22517732700E+02  0.54519649515E+02  0.41800000000E+01 0.  1.
</event>
<event>
11    1  0.8039394E-009  0.1465445E+03  0.7561462E-02  0.1100463E+00
         22   -1    0    0    0    0  0.00000000000E+00  0.00000000000E+00  0.17031526114E+04  0.17031526114E+04  0.00000000000E+00 0.  1.
         22   -1    0    0    0    0 -0.00000000000E+00 -0.00000000000E+00 -0.50034656561E+03  0.50034656561E+03  0.00000000000E+00 0. -1.
         24    2    1    2    0    0  0.17019942009E+02  0.39318073460E+02 -0.47839868442E+03  0.48720814112E+03  0.81675468719E+02 0.  0.
         25    2    1    2    0    0 -0.39742833155E+02 -0.10627015726E+03  0.45293176534E+03  0.48339267476E+03  0.12509378421E+03 0.  0.
        -24    2    1    2    0    0  0.22722891146E+02  0.66952083795E+02  0.12282729648E+04  0.12328983611E+04  0.79906078395E+02 0.  0.
        -11    1    3    3    0    0  0.29665869325E+01  0.35276071892E+02 -0.69026483918E+02  0.77574850102E+02  0.00000000000E+00 0.  1.
         12    1    3    3    0    0  0.14053355076E+02  0.40420015684E+01 -0.40937220050E+03  0.40963329102E+03  0.00000000000E+00 0. -1.
         13    1    5    5    0    0 -0.17480462669E+02 -0.16823167277E+01  0.49737070645E+03  0.49768063696E+03  0.00000000000E+00 0. -1.
        -14    1    5    5    0    0  0.40203353815E+02  0.68634400523E+02  0.73090225837E+03  0.73521772414E+03  0.00000000000E+00 0.  1.
          5    1    4    4  501    0  0.52417610462E+01 -0.77053757652E+02  0.40177442787E+03  0.40915146452E+03  0.41800000000E+01 0.  1.
         -5    1    4    4    0  501 -0.44984594201E+02 -0.29216399603E+02  0.51157337467E+02  0.74241210240E+02  0.41800000000E+01 0.  1.
</event>
<event>
11    1  0.8039394E-009  0.2153176E+03  0.7561462E-02  0.1044191E+00
         22   -1    0    0    0    0  0.00000000000E+00  0.00000000000E+00  0.72242953478E+03  0.72242953478E+03  0.00000000000E+00 0. -1.
         22   -1    0    0    0    0 -0.00000000000E+00 -0.00000000000E+00 -0.10510976360E+04  0.10510976360E+04  0.00000000000E+00 0. -1.
        -24    2    1    2    0    0 -0.17382797742E+03 -0.52851675289E+02 -0.83754428611E+03  0.86086749527E+03  0.81258525117E+02 0.  0.
         25    2    1    2    0    0  0.10201051343E+03  0.13898328298E+03 -0.13629249196E+03  0.25287420357E+03  0.12508885509E+03 0.  0.
         24    2    1    2    0    0  0.71817463990E+02 -0.86131607693E+02  0.64516867684E+03  0.65978547194E+03  0.80609214333E+02 0.  0.
        -13    1    5    5    0    0  0.20788103142E+02 -0.62468912314E+02  0.18851893782E+03  0.19968450154E+03  0.00000000000E+00 0.  1.
         14    1    5    5    0    0  0.51029360848E+02 -0.23662695379E+02  0.45664973902E+03  0.46010097040E+03  0.00000000000E+00 0. -1.
         11    1    3    3    0    0 -0.17716638941E+03 -0.37680072038E+02 -0.72635299995E+03  0.74859628499E+03  0.00000000000E+00 0. -1.
        -12    1    3    3    0    0  0.33384119926E+01 -0.15171603251E+02 -0.11119128616E+03  0.11227121028E+03  0.00000000000E+00 0.  1.
          5    1    4    4  501    0 -0.13613282861E+02  0.80262812637E+02 -0.68540694157E+02  0.10650229912E+03  0.41800000000E+01 0. -1.
         -5    1    4    4    0  501  0.11562379629E+03  0.58720470346E+02 -0.67751797802E+02  0.14637190445E+03  0.41800000000E+01 0. -1.
</event>
<event>
11    1  0.8039394E-009  0.1997299E+03  0.7561462E-02  0.1054715E+00
         22   -1    0    0    0    0  0.00000000000E+00  0.00000000000E+00  0.29814449790E+04  0.29814449790E+04  0.00000000000E+00 0.  1.
         22   -1    0    0    0    0 -0.00000000000E+00 -0.00000000000E+00 -0.10247829949E+03  0.10247829949E+03  0.00000000000E+00 0. -1.
         24    2    1    2    0    0  0.14905001694E+03 -0.85948168697E+02  0.42304465737E+02  0.19583805128E+03  0.83425890804E+02 0.  0.
         25    2    1    2    0    0 -0.12332213190E+03  0.49730054239E+01  0.29251293451E+03  0.34123889133E+03  0.12508830920E+03 0.  0.
        -24    2    1    2    0    0 -0.25727885043E+02  0.80975163273E+02  0.25441492792E+04  0.25468463359E+04  0.80695739054E+02 0.  0.
        -11    1    3    3    0    0  0.28720266147E+02  0.66096685741E+01  0.32262095070E+02  0.43696500827E+02  0.00000000000E+00 0.  1.
         12    1    3    3    0    0  0.12032975079E+03 -0.92557837271E+02  0.10042370667E+02  0.15214155045E+03  0.00000000000E+00 0. -1.
         11    1    5    5    0    0  0.79812778425E+01  0.59764028686E+02  0.81049320910E+03  0.81273284782E+03  0.00000000000E+00 0. -1.
        -12    1    5    5    0    0 -0.33709162885E+02  0.21211134587E+02  0.17336560701E+04  0.17341134880E+04  0.00000000000E+00 0.  1.
          5    1    4    4  501    0 -0.56942417197E+02 -0.59809078945E+02  0.12979305776E+03  0.15389371347E+03  0.41800000000E+01 0.  1.
         -5    1    4    4    0  501 -0.66379714699E+02  0.64782084369E+02  0.16271987675E+03  0.18734517786E+03  0.41800000000E+01 0.  1.
</event>
<event>
11    1  0.8039394E-009  0.1900891E+03  0.7561462E-02  0.1061762E+00
         22   -1    0    0    0    0  0.00000000000E+00  0.00000000000E+00  0.37124932136E+03  0.37124932136E+03  0.00000000000E+00 0. -1.
         22   -1    0    0    0    0 -0.00000000000E+00 -0.00000000000E+00 -0.21614685886E+03  0.21614685886E+03  0.00000000000E+00 0.  1.
        -24    2    1    2    0    0  0.11948005239E+03  0.75507333206E+02 -0.66745559977E+02  0.17510370444E+03  0.78927164175E+02 0.  0.
         25    2    1    2    0    0 -0.84706508888E+02 -0.13263795361E+03  0.42848782614E+02  0.20555240138E+03  0.12509097552E+03 0.  0.
         24    2    1    2    0    0 -0.34773543506E+02  0.57130620404E+02  0.17899923987E+03  0.20674007439E+03  0.78915292383E+02 0.  0.
        -11    1    5    5    0    0  0.38267864430E+00  0.26709551991E+01 -0.82016404893E+01  0.86340808044E+01  0.00000000000E+00 0.  1.
         12    1    5    5    0    0 -0.35156222150E+02  0.54459665204E+02  0.18720088036E+03  0.19810599359E+03  0.00000000000E+00 0. -1.
         13    1    3    3    0    0  0.23266013182E+01 -0.13822054270E+02 -0.10044746781E+02  0.17244106118E+02  0.00000000000E+00 0. -1.
        -14    1    3    3    0    0  0.11715345108E+03  0.89329387476E+02 -0.56700813196E+02  0.15785959832E+03  0.00000000000E+00 0.  1.
          5    1    4    4  501    0  0.14347601996E+01 -0.76078154221E+02 -0.27158975239E+02  0.80901337582E+02  0.41800000000E+01 0.  1.
         -5    1    4    4    0  501 -0.86141269087E+02 -0.56559799388E+02  0.70007757853E+02  0.12465106380E+03  0.41800000000E+01 0.  1.
</event>
<event>
11    1  0.8039394E-009  0.1403674E+03  0.7561462E-02  0.1107149E+00
         22   -1    0    0    0    0  0.00000000000E+00  0.00000000000E+00  0.84572449761E+02  0.84572449761E+02  0.00000000000E+00 0. -1.
         22   -1    0    0    0    0 -0.00000000000E+00 -0.00000000000E+00 -0.17385458679E+04  0.17385458679E+04  0.00000000000E+00 0. -1.
         24    2    1    2    0    0  0.29692034187E+02  0.59882508734E+02 -0.15269922186E+04  0.15306580715E+04  0.82105811006E+02 0.  0.
         25    2    1    2    0    0  0.18862265137E+02 -0.31229258810E+02 -0.14213793507E+03  0.19282424012E+03  0.12508774256E+03 0.  0.
        -24    2    1    2    0    0 -0.48554299324E+02 -0.28653249924E+02  0.15156735525E+02  0.99636006130E+02  0.80740809828E+02 0.  0.
        -11    1    3    3    0    0 -0.20291718464E+02  0.24216567991E+01 -0.13046789415E+03  0.13205865993E+03  0.00000000000E+00 0.  1.
         12    1    3    3    0    0  0.49983752651E+02  0.57460851935E+02 -0.13965243245E+04  0.13985994115E+04  0.00000000000E+00 0. -1.
         13    1    5    5    0    0 -0.33967111032E+01 -0.37906307605E+01  0.41454683124E+02  0.41765982339E+02  0.00000000000E+00 0. -1.
        -14    1    5    5    0    0 -0.45157588221E+02 -0.24862619164E+02 -0.26297947599E+02  0.57870023791E+02  0.00000000000E+00 0.  1.
          5    1    4    4  501    0  0.69231147476E+02 -0.78468794914E+00 -0.60134141800E+02  0.91799536633E+02  0.41800000000E+01 0.  1.
         -5    1    4    4    0  501 -0.50368882339E+02 -0.30444570861E+02 -0.82003793274E+02  0.10102470349E+03  0.41800000000E+01 0.  1.
</event>
<event>
11    1  0.8039394E-009  0.2302923E+03  0.7561462E-02  0.1034955E+00
         22   -1    0    0    0    0  0.00000000000E+00  0.00000000000E+00  0.12947410724E+04  0.12947410724E+04  0.00000000000E+00 0. -1.
         22   -1    0    0    0    0 -0.00000000000E+00 -0.00000000000E+00 -0.27883202919E+04  0.27883202919E+04  0.00000000000E+00 0. -1.
         24    2    1    2    0    0 -0.80021877992E+02  0.17842176842E+03 -0.26946828772E+04  0.27032417201E+04  0.89230938233E+02 0.  0.
         25    2    1    2    0    0 -0.66911109697E+02 -0.16232863743E+03  0.56666269126E+02  0.22290202019E+03  0.12508621594E+03 0.  0.
        -24    2    1    2    0    0  0.14693298769E+03 -0.16093130992E+02  0.11444373886E+04  0.11569176239E+04  0.82904526057E+02 0.  0.
        -13    1    3    3    0    0 -0.24779566161E+01  0.32078739866E+02 -0.16286102288E+03  0.16600873048E+03  0.00000000000E+00 0.  1.
         14    1    3    3    0    0 -0.77543921376E+02  0.14634302856E+03 -0.25318218543E+04  0.25372329896E+04  0.00000000000E+00 0. -1.
         11    1    5    5    0    0  0.30016106868E+02  0.28684126212E+02  0.38465604099E+03  0.38689018551E+03  0.00000000000E+00 0. -1.
        -12    1    5    5    0    0  0.11691688082E+03 -0.44777257204E+02  0.75978134760E+03  0.77002743843E+03  0.00000000000E+00 0.  1.
          5    1    4    4  501    0 -0.13950270935E+02 -0.15818545027E+02 -0.35748869671E+02  0.41716789290E+02  0.41800000000E+01 0.  1.
         -5    1    4    4    0  501 -0.52960838763E+02 -0.14651009240E+03  0.92415138797E+02  0.18118523090E+03  0.41800000000E+01 0.  1.
</event>
<event>
11    1  0.8039394E-009  0.1414956E+03  0.7561462E-02  0.1105900E+00
         22   -1    0    0    0    0  0.00000000000E+00  0.00000000000E+00  0.21891744593E+04  0.21891744593E+04  0.00000000000E+00 0. -1.
         22   -1    0    0    0    0 -0.00000000000E+00 -0.00000000000E+00 -0.45297358585E+02  0.45297358585E+02  0.00000000000E+00 0.  1.
         24    2    1    2    0    0 -0.93464130423E+01  0.46446280068E+02  0.45912802618E+02  0.10422355539E+03  0.80684271611E+02 0.  0.
         25    2    1    2    0    0 -0.53196742620E+02 -0.17762805395E+02  0.30874935647E+03  0.33781382974E+03  0.12508640117E+03 0.  0.
        -24    2    1    2    0    0  0.62543155662E+02 -0.28683474673E+02  0.17892149416E+04  0.17924344328E+04  0.82442103070E+02 0.  0.
        -13    1    3    3    0    0  0.30698715622E+02  0.21593009721E+02 -0.12432017304E+01  0.37552826261E+02  0.00000000000E+00 0.  1.
         14    1    3    3    0    0 -0.40045128665E+02  0.24853270347E+02  0.47156004348E+02  0.66670729131E+02  0.00000000000E+00 0. -1.
         11    1    5    5    0    0  0.72581215685E+02 -0.31450741062E+01  0.95118497731E+03  0.95395533723E+03  0.00000000000E+00 0. -1.
        -12    1    5    5    0    0 -0.10038060023E+02 -0.25538400567E+02  0.83802996434E+03  0.83847909555E+03  0.00000000000E+00 0.  1.
          5    1    4    4  501    0 -0.25947973135E+02  0.27725018651E+02  0.17984867984E+02  0.42224422381E+02  0.41800000000E+01 0.  1.
         -5    1    4    4    0  501 -0.27248769484E+02 -0.45487824045E+02  0.29076448849E+03  0.29558940736E+03  0.41800000000E+01 0.  1.
</event>
<event>
11    1  0.8039394E-009  0.1408554E+03  0.7561462E-02  0.1106607E+00
         22   -1    0    0    0    0  0.00000000000E+00  0.00000000000E+00  0.68543963683E+03  0.68543963683E+03  0.00000000000E+00 0. -1.
         22   -1    0    0    0    0 -0.00000000000E+00 -0.00000000000E+00 -0.21438159068E+03  0.21438159068E+03  0.00000000000E+00 0.  1.
         24    2    1    2    0    0 -0.34549078881E+02 -0.22260207441E+01 -0.17611733317E+03  0.19596241522E+03  0.78647054081E+02 0.  0.
         25    2    1    2    0    0 -0.32883860119E+02  0.27356186744E+02  0.17858852010E+03  0.22219464648E+03  0.12508753816E+03 0.  0.
        -24    2    1    2    0    0  0.67432939000E+02 -0.25130166000E+02  0.46858685923E+03  0.48166416581E+03  0.85135171815E+02 0.  0.
        -11    1    3    3    0    0 -0.12575893386E+02  0.29993911537E+02 -0.13668832532E+03  0.14050439888E+03  0.00000000000E+00 0.  1.
         12    1    3    3    0    0 -0.21973185495E+02 -0.32219932281E+02 -0.39429007851E+02  0.55458016347E+02  0.00000000000E+00 0. -1.
         13    1    5    5    0    0  0.67383101294E+02  0.51714988449E+00  0.43053149208E+03  0.43577300910E+03  0.00000000000E+00 0. -1.
        -14    1    5    5    0    0  0.49837705944E-01 -0.25647315884E+02  0.38055367147E+02  0.45891156714E+02  0.00000000000E+00 0.  1.
          5    1    4    4  501    0  0.42023769912E+02  0.32869288438E+02  0.50112981645E+02  0.73315555576E+02  0.41800000000E+01 0. -1.
         -5    1    4    4    0  501 -0.74907630031E+02 -0.55131016947E+01  0.12847553845E+03  0.14887909090E+03  0.41800000000E+01 0. -1.
</event>
<event>
11    1  0.8039394E-009  0.1497486E+03  0.7561462E-02  0.1097136E+00
         22   -1    0    0    0    0  0.00000000000E+00  0.00000000000E+00  0.25828197771E+03  0.25828197771E+03  0.00000000000E+00 0. -1.
         22   -1    0    0    0    0 -0.00000000000E+00 -0.00000000000E+00 -0.99306035666E+03  0.99306035666E+03  0.00000000000E+00 0. -1.
        -24    2    1    2    0    0 -0.20499250767E+01 -0.52480178338E+02 -0.90251303133E+03  0.90758290788E+03  0.80116113540E+02 0.  0.
         25    2    1    2    0    0  0.14377174552E+02 -0.40757681614E+02 -0.36671589657E+01  0.13239629202E+03  0.12508972111E+03 0.  0.
         24    2    1    2    0    0 -0.12327249475E+02  0.93237859951E+02  0.17140181135E+03  0.21136313447E+03  0.80315216937E+02 0.  0.
        -11    1    5    5    0    0 -0.42593058045E+02  0.41389918655E+02  0.57804062744E+02  0.82877039218E+02  0.00000000000E+00 0.  1.
         12    1    5    5    0    0  0.30265808570E+02  0.51847941296E+02  0.11359774860E+03  0.12848609525E+03  0.00000000000E+00 0. -1.
         11    1    3    3    0    0  0.76557049048E+01 -0.44191692354E+02 -0.20054830388E+03  0.20550215979E+03  0.00000000000E+00 0. -1.
        -12    1    3    3    0    0 -0.97056299815E+01 -0.82884859840E+01 -0.70196472744E+03  0.70208074808E+03  0.00000000000E+00 0.  1.
          5    1    4    4  501    0  0.30150223868E+02 -0.42145821501E+02 -0.56679980681E+02  0.76911630325E+02  0.41800000000E+01 0. -1.
         -5    1    4    4    0  501 -0.15773049316E+02  0.13881398871E+01  0.53012821716E+02  0.55484661694E+02  0.41800000000E+01 0. -1.
</event>
<event>
11    1  0.8039394E-009  0.1820213E+03  0.7561462E-02  0.1068019E+00
         22   -1    0    0    0    0  0.00000000000E+00  0.00000000000E+00  0.17600578677E+04  0.17600578677E+04  0.00000000000E+00 0. -1.
         22   -1    0    0    0    0 -0.00000000000E+00 -0.00000000000E+00 -0.54389143669E+02  0.54389143669E+02  0.00000000000E+00 0.  1.
        -24    2    1    2    0    0  0.22107076500E+02 -0.21117535832E+02  0.15751857384E+02  0.89105735567E+02  0.82201204060E+02 0.  0.
         25    2    1    2    0    0 -0.14662476300E+03  0.11535942519E+02  0.79553128832E+03  0.81862608384E+03  0.12508691120E+03 0.  0.
         24    2    1    2    0    0  0.12451768650E+03  0.95815933130E+01  0.89438557832E+03  0.90671519195E+03  0.81304461327E+02 0.  0.
        -11    1    5    5    0    0 -0.40159963084E+01 -0.14873274101E+02  0.52170142808E+02  0.54397300571E+02  0.00000000000E+00 0.  1.
         12    1    5    5    0    0  0.12853368281E+03  0.24454867414E+02  0.84221543551E+03  0.85231789138E+03  0.00000000000E+00 0. -1.
         11    1    3    3    0    0  0.29914813435E+01 -0.10220034449E+02  0.48498141891E+02  0.49653477538E+02  0.00000000000E+00 0. -1.
        -12    1    3    3    0    0  0.19115595157E+02 -0.10897501383E+02 -0.32746284507E+02  0.39452258029E+02  0.00000000000E+00 0.  1.
          5    1    4    4  501    0  0.72925911609E+01 -0.27311390937E+02  0.64509583457E+02  0.70555316727E+02  0.41800000000E+01 0.  1.
         -5    1    4    4    0  501 -0.15391735416E+03  0.38847333456E+02  0.73102170487E+03  0.74807076712E+03  0.41800000000E+01 0.  1.
</event>
<event>
11    1  0.8039394E-009  0.1529968E+03  0.7561462E-02  0.1093855E+00
         22   -1    0    0    0    0  0.00000000000E+00  0.00000000000E+00  0.89857502587E+03  0.89857502587E+03  0.00000000000E+00 0.  1.
         22   -1    0    0    0    0 -0.00000000000E+00 -0.00000000000E+00 -0.20966135743E+04  0.20966135743E+04  0.00000000000E+00 0.  1.
         24    2    1    2    0    0 -0.87407515487E+02 -0.10270926513E+02 -0.20102166385E+04  0.20137367849E+04  0.80120782393E+02 0.  0.
         25    2    1    2    0    0  0.92083096337E+02  0.95838955205E+00 -0.97056814999E+01  0.15563442106E+03  0.12509059766E+03 0.  0.
        -24    2    1    2    0    0 -0.46755808507E+01  0.93125369605E+01  0.82188377150E+03  0.82581739420E+03  0.79830134148E+02 0.  0.
        -11    1    3    3    0    0 -0.89783181746E+02  0.27234880251E+01 -0.19509112302E+04  0.19529779991E+04  0.00000000000E+00 0.  1.
         12    1    3    3    0    0  0.23756662599E+01 -0.12994414538E+02 -0.59305408286E+02  0.60758785795E+02  0.00000000000E+00 0. -1.
         11    1    5    5    0    0  0.19996373390E+01 -0.35273222468E+02  0.38110451360E+03  0.38273861716E+03  0.00000000000E+00 0. -1.
        -12    1    5    5    0    0 -0.66752181897E+01  0.44585759429E+02  0.44077925789E+03  0.44307877705E+03  0.00000000000E+00 0.  1.
          5    1    4    4  501    0  0.89354099674E+02 -0.33886651766E+02  0.32178437305E+02  0.10092266606E+03  0.41800000000E+01 0. -1.
         -5    1    4    4    0  501  0.27289966632E+01  0.34845041318E+02 -0.41884118805E+02  0.54711755001E+02  0.41800000000E+01 0. -1.
</event>
<event>
11    1  0.8039394E-009  0.1425428E+03  0.7561462E-02  0.1104752E+00
         22   -1    0    0    0    0  0.00000000000E+00  0.00000000000E+00  0.40651572509E+04  0.40651572509E+04  0.00000000000E+00 0.  1.
         22   -1    0    0    0    0 -0.00000000000E+00 -0.00000000000E+00 -0.84822963670E+03  0.84822963670E+03  0.00000000000E+00 0. -1.
        -24    2    1    2    0    0 -0.65390376912E+02  0.18851555535E+02 -0.82257680629E+03  0.82939252168E+03  0.81412961114E+02 0.  0.
         25    2    1    2    0    0  0.94536907824E+02 -0.67017381671E+01  0.26111651301E+03  0.30464912804E+03  0.12508843916E+03 0.  0.
         24    2    1    2    0    0 -0.29146530912E+02 -0.12149817368E+02  0.37783879075E+04  0.37793452379E+04  0.78981703048E+02 0.  0.
        -11    1    5    5    0    0 -0.26688727486E+02 -0.42199479228E+02  0.16832159877E+04  0.16839563966E+04  0.00000000000E+00 0.  1.
         12    1    5    5    0    0 -0.24578034255E+01  0.30049661860E+02  0.20951719197E+04  0.20953888413E+04  0.00000000000E+00 0. -1.
         11    1    3    3    0    0 -0.79177453341E+02  0.22299898805E+02 -0.78359879060E+03  0.78790444804E+03  0.00000000000E+00 0. -1.
        -12    1    3    3    0    0  0.13787076429E+02 -0.34483432695E+01 -0.38978015685E+02  0.41488073642E+02  0.00000000000E+00 0.  1.
          5    1    4    4  501    0  0.83427314902E+02 -0.17082440932E+01  0.27398694206E+03  0.28644258026E+03  0.41800000000E+01 0. -1.
         -5    1    4    4    0  501  0.11109592922E+02 -0.49934940739E+01 -0.12870429048E+02  0.18206547774E+02  0.41800000000E+01 0. -1.
</event>
<event>
11    1  0.8039394E-009  0.1465794E+03  0.7561462E-02  0.1100426E+00
         22   -1    0    0    0    0  0.00000000000E+00  0.00000000000E+00  0.18496031421E+03  0.18496031421E+03  0.00000000000E+00 0. -1.
         22   -1    0    0    0    0 -0.00000000000E+00 -0.00000000000E+00 -0.11227290934E+04  0.11227290934E+04  0.00000000000E+00 0. -1.
         24    2    1    2    0    0  0.77544446708E+02 -0.10211802983E+02 -0.88358720474E+03  0.89063502831E+03  0.79918603203E+02 0.  0.
         25    2    1    2    0    0 -0.56015111845E+02  0.52234966799E+02 -0.19753188814E+03  0.24603250985E+03  0.12508782738E+03 0.  0.
        -24    2    1    2    0    0 -0.21529334862E+02 -0.42023163816E+02  0.14335031364E+03  0.17102186950E+03  0.80434500486E+02 0.  0.
        -13    1    3    3    0    0  0.71197325442E+01  0.25430614877E+02 -0.37824790359E+03  0.37916867399E+03  0.00000000000E+00 0.  1.
         14    1    3    3    0    0  0.70424714163E+02 -0.35642417860E+02 -0.50533930115E+03  0.51146635432E+03  0.00000000000E+00 0. -1.
         13    1    5    5    0    0 -0.17714509745E+02 -0.61614331753E+02  0.69637505362E+02  0.94654698171E+02  0.00000000000E+00 0. -1.
        -14    1    5    5    0    0 -0.38148251174E+01  0.19591167937E+02  0.73712808277E+02  0.76367171324E+02  0.00000000000E+00 0.  1.
          5    1    4    4  501    0 -0.52491298569E+02  0.92095441066E+02 -0.13537793865E+03  0.17199292242E+03  0.41800000000E+01 0.  1.
         -5    1    4    4    0  501 -0.35238132765E+01 -0.39860474266E+02 -0.62153949490E+02  0.74039587424E+02  0.41800000000E+01 0.  1.
</event>
<event>
11    1  0.8039394E-009  0.1276949E+03  0.7561462E-02  0.1122134E+00
         22   -1    0    0    0    0  0.00000000000E+00  0.00000000000E+00  0.44012030955E+03  0.44012030955E+03  0.00000000000E+00 0. -1.
         22   -1    0    0    0    0 -0.00000000000E+00 -0.00000000000E+00 -0.61577186514E+03  0.61577186514E+03  0.00000000000E+00 0. -1.
        -24    2    1    2    0    0  0.75961594813E+01 -0.23467246774E+02 -0.54759576723E+03  0.55621685472E+03  0.94380357466E+02 0.  0.
         25    2    1    2    0    0  0.11567172176E+02  0.48808954543E+02  0.18868982217E+02  0.13608665565E+03  0.12508967120E+03 0.  0.
         24    2    1    2    0    0 -0.19163331658E+02 -0.25341707769E+02  0.35307522942E+03  0.36358866432E+03  0.80778485741E+02 0.  0.
        -13    1    5    5    0    0  0.80906059576E+01  0.10502028132E+02  0.77831335722E+01  0.15372952477E+02  0.00000000000E+00 0.  1.
         14    1    5    5    0    0 -0.27253937615E+02 -0.35843735901E+02  0.34529209585E+03  0.34821571185E+03  0.00000000000E+00 0. -1.
         11    1    3    3    0    0  0.15828142463E+01 -0.56509631516E+02 -0.43678898131E+03  0.44043212638E+03  0.00000000000E+00 0. -1.
        -12    1    3    3    0    0  0.60133452350E+01  0.33042384741E+02 -0.11080678591E+03  0.11578472833E+03  0.00000000000E+00 0.  1.
          5    1    4    4  501    0 -0.21152549130E+02 -0.35274786298E+02 -0.74485893157E+01  0.42008270207E+02  0.41800000000E+01 0. -1.
         -5    1    4    4    0  501  0.32719721306E+02  0.84083740841E+02  0.26317571533E+02  0.94078385443E+02  0.41800000000E+01 0. -1.
</event>
<event>
11    1  0.8039394E-009  0.1372090E+03  0.7561462E-02  0.1110716E+00
         22   -1    0    0    0    0  0.00000000000E+00  0.00000000000E+00  0.22902979928E+03  0.22902979928E+03  0.00000000000E+00 0.  1.
         22   -1    0    0    0    0 -0.00000000000E+00 -0.00000000000E+00 -0.69009015356E+03  0.69009015356E+03  0.00000000000E+00 0. -1.
         24    2    1    2    0    0 -0.29126122499E+02  0.42655586804E+02 -0.46929408879E+03  0.47902655380E+03  0.81004119471E+02 0.  0.
         25    2    1    2    0    0  0.82350031977E+02 -0.44206607301E+02 -0.17494244301E+03  0.23449749130E+03  0.12509381745E+03 0.  0.
        -24    2    1    2    0    0 -0.53223909479E+02  0.15510204972E+01  0.18317617751E+03  0.20559590774E+03  0.76687515726E+02 0.  0.
        -11    1    3    3    0    0 -0.32113805661E+02 -0.38150672780E+01 -0.70984858462E+02  0.78004495917E+02  0.00000000000E+00 0.  1.
         12    1    3    3    0    0  0.29876831621E+01  0.46470654082E+02 -0.39830923033E+03  0.40102205788E+03  0.00000000000E+00 0. -1.
         13    1    5    5    0    0 -0.12270751017E+02 -0.24669163656E+02  0.16826033608E+02  0.32283964641E+02  0.00000000000E+00 0. -1.
        -14    1    5    5    0    0 -0.40953158462E+02  0.26220184153E+02  0.16635014390E+03  0.17331194310E+03  0.00000000000E+00 0.  1.
          5    1    4    4  501    0  0.31822798694E+02 -0.21182037596E+02  0.11322191620E+02  0.40087824293E+02  0.41800000000E+01 0. -1.
         -5    1    4    4    0  501  0.50527233283E+02 -0.23024569705E+02 -0.18626463463E+03  0.19440966701E+03  0.41800000000E+01 0. -1.
</event>
<event>
11    1  0.8039394E-009  0.2840296E+03  0.7561462E-02  0.1007186E+00
         22   -1    0    0    0    0  0.00000000000E+00  0.00000000000E+00  0.39868566679E+03  0.39868566679E+03  0.00000000000E+00 0. -1.
         22   -1    0    0    0    0 -0.00000000000E+00 -0.00000000000E+00 -0.41252396963E+03  0.41252396963E+03  0.00000000000E+00 0.  1.
        -24    2    1    2    0    0 -0.16099912754E+03 -0.19377047734E+03 -0.22858285148E+03  0.35584842262E+03  0.10445220406E+03 0.  0.
         25    2    1    2    0    0  0.13620391043E+03  0.23050986197E+03  0.10696926074E+03  0.31428812013E+03  0.12509315740E+03 0.  0.
         24    2    1    2    0    0  0.24795217109E+02 -0.36739384625E+02  0.10777528790E+03  0.14107309367E+03  0.79507986391E+02 0.  0.
        -11    1    5    5    0    0 -0.19779758672E+02  0.81954946726E+01  0.53751380284E+02  0.57858585089E+02  0.00000000000E+00 0.  1.
         12    1    5    5    0    0  0.44574975781E+02 -0.44934879298E+02  0.54023907618E+02  0.83214508577E+02  0.00000000000E+00 0. -1.
         13    1    3    3    0    0  0.25900708661E+01  0.91554496307E+01 -0.55802569715E+00  0.95311131412E+01  0.00000000000E+00 0. -1.
        -14    1    3    3    0    0 -0.16358919840E+03 -0.20292592697E+03 -0.22802482578E+03  0.34631730948E+03  0.00000000000E+00 0.  1.
          5    1    4    4  501    0  0.13516094236E+03  0.14862958219E+03  0.11563736656E+03  0.23183767163E+03  0.41800000000E+01 0.  1.
         -5    1    4    4    0  501  0.10429680680E+01  0.81880279781E+02 -0.86681058182E+01  0.82450448500E+02  0.41800000000E+01 0.  1.
</event>
<event>
11    1  0.8039394E-009  0.1388970E+03  0.7561462E-02  0.1108796E+00
         22   -1    0    0    0    0  0.00000000000E+00  0.00000000000E+00  0.11311711273E+04  0.11311711273E+04  0.00000000000E+00 0. -1.
         22   -1    0    0    0    0 -0.00000000000E+00 -0.00000000000E+00 -0.39894877749E+03  0.39894877749E+03  0.00000000000E+00 0.  1.
        -24    2    1    2    0    0  0.12087872931E+02 -0.25044871078E+02 -0.37896628722E+03  0.38842257148E+03  0.80518848439E+02 0.  0.
         25    2    1    2    0    0  0.65673735685E+01  0.77358999256E+02  0.45428983111E+03  0.47755151023E+03  0.12509456067E+03 0.  0.
         24    2    1    2    0    0 -0.18655246499E+02 -0.52314128179E+02  0.65689880586E+03  0.66414582303E+03  0.80553379064E+02 0.  0.
        -13    1    5    5    0    0  0.17830555665E+02 -0.56936933709E+02  0.34967638166E+03  0.35472991843E+03  0.00000000000E+00 0.  1.
         14    1    5    5    0    0 -0.36485802165E+02  0.46228055307E+01  0.30722242420E+03  0.30941590460E+03  0.00000000000E+00 0. -1.
         13    1    3    3    0    0  0.17692474240E+02 -0.23680552126E+02 -0.41740469374E+02  0.51147423955E+02  0.00000000000E+00 0. -1.
        -14    1    3    3    0    0 -0.56046013094E+01 -0.13643189514E+01 -0.33722581784E+03  0.33727514753E+03  0.00000000000E+00 0.  1.
          5    1    4    4  501    0 -0.56211032526E+02  0.58607442260E+02  0.23710772689E+03  0.25066323826E+03  0.41800000000E+01 0.  1.
         -5    1    4    4    0  501  0.62778406094E+02  0.18751556996E+02  0.21718210423E+03  0.22688827197E+03  0.41800000000E+01 0.  1.
</event>
<event>
11    1  0.8039394E-009  0.1377702E+03  0.7561462E-02  0.1110074E+00
         22   -1    0    0    0    0  0.00000000000E+00  0.00000000000E+00  0.44822788092E+03  0.44822788092E+03  0.00000000000E+00 0.  1.
         22   -1    0    0    0    0 -0.00000000000E+00 -0.00000000000E+00 -0.64328717210E+02  0.64328717210E+02  0.00000000000E+00 0.  1.
         24    2    1    2    0    0  0.53002594148E+02  0.24137369261E+02  0.47171000543E+02  0.10987730523E+03  0.80349432679E+02 0.  0.
         25    2    1    2    0    0 -0.54290307918E+02 -0.16600768921E+02  0.17718675156E+03  0.22420129580E+03  0.12509217821E+03 0.  0.
        -24    2    1    2    0    0  0.12877137694E+01 -0.75366003398E+01  0.15954141160E+03  0.17847799709E+03  0.79639656438E+02 0.  0.
        -13    1    3    3    0    0  0.65690226475E+02 -0.22711646603E+01  0.46601839005E+02  0.80573540582E+02  0.00000000000E+00 0.  1.
         14    1    3    3    0    0 -0.12687632327E+02  0.26408533921E+02  0.56916153797E+00  0.29303764652E+02  0.00000000000E+00 0. -1.
         13    1    5    5    0    0 -0.10628289499E+02  0.34591356057E+02  0.69474874114E+02  0.78334415072E+02  0.00000000000E+00 0. -1.
        -14    1    5    5    0    0  0.11916003268E+02 -0.42127956397E+02  0.90066537488E+02  0.10014358202E+03  0.00000000000E+00 0.  1.
          5    1    4    4  501    0  0.10650264890E+02  0.24295093029E+02 -0.42205927323E+01  0.27183919705E+02  0.41800000000E+01 0. -1.
         -5    1    4    4    0  501 -0.64940572807E+02 -0.40895861950E+02  0.18140734430E+03  0.19701737610E+03  0.41800000000E+01 0. -1.
</event>
<event>
11    1  0.8039394E-009  0.2035987E+03  0.7561462E-02  0.1052008E+00
         22   -1    0    0    0    0  0.00000000000E+00  0.00000000000E+00  0.56249069479E+03  0.56249069479E+03  0.00000000000E+00 0. -1.
         22   -1    0    0    0    0 -0.00000000000E+00 -0.00000000000E+00 -0.62152610258E+03  0.62152610258E+03  0.00000000000E+00 0. -1.
        -24    2    1    2    0    0 -0.11836615494E+03 -0.93874368320E+02 -0.38069370677E+03  0.41760460826E+03  0.81504397445E+02 0.  0.
         25    2    1    2    0    0  0.16376630875E+03  0.10203366060E+03 -0.15721471084E+03  0.27856141376E+03  0.12509885753E+03 0.  0.
         24    2    1    2    0    0 -0.45400153814E+02 -0.81592922816E+01  0.47887300982E+03  0.48785077536E+03  0.80939925052E+02 0.  0.
        -11    1    5    5    0    0 -0.95559872407E+00  0.16062797994E+02  0.17750071610E+02  0.23958123684E+02  0.00000000000E+00 0.  1.
         12    1    5    5    0    0 -0.44444555090E+02 -0.24222090275E+02  0.46112293821E+03  0.46389265167E+03  0.00000000000E+00 0. -1.
         13    1    3    3    0    0 -0.12101301249E+03 -0.55823710448E+02 -0.28638723064E+03  0.31587668751E+03  0.00000000000E+00 0. -1.
        -14    1    3    3    0    0  0.26468575536E+01 -0.38050657872E+02 -0.94306476129E+02  0.10172792075E+03  0.00000000000E+00 0.  1.
          5    1    4    4  501    0  0.40495457501E+02  0.48703546410E+02 -0.12527652675E+03  0.14044072795E+03  0.41800000000E+01 0.  1.
         -5    1    4    4    0  501  0.12327085125E+03  0.53330114192E+02 -0.31938184086E+02  0.13812068581E+03  0.41800000000E+01 0.  1.
</event>
<event>
11    1  0.8039394E-009  0.1927377E+04  0.7561462E-02  0.8097417E-01
         22   -1    0    0    0    0  0.00000000000E+00  0.00000000000E+00  0.36621199027E+04  0.36621199027E+04  0.00000000000E+00 0.  1.
         22   -1    0    0    0    0 -0.00000000000E+00 -0.00000000000E+00 -0.28276019760E+04  0.28276019760E+04  0.00000000000E+00 0.  1.
        -24    2    1    2    0    0  0.22985200178E+03  0.43141280013E+03 -0.14296990482E+04  0.15130162302E+04  0.78929066336E+02 0.  0.
         25    2    1    2    0    0 -0.20939506062E+04 -0.30435341935E+03  0.10791290322E+03  0.21223931937E+04  0.12509008389E+03 0.  0.
         24    2    1    2    0    0  0.18640986044E+04 -0.12705938077E+03  0.21563040717E+04  0.28543124549E+04  0.80278561700E+02 0.  0.
        -13    1    5    5    0    0  0.15294468483E+04 -0.11015243519E+03  0.17222180129E+04  0.23059436474E+04  0.00000000000E+00 0.  1.
         14    1    5    5    0    0  0.33465175604E+03 -0.16906945579E+02  0.43408605880E+03  0.54836880754E+03  0.00000000000E+00 0. -1.
         11    1    3    3    0    0  0.75555588226E+02  0.86065834210E+02 -0.39867209340E+03  0.41479562774E+03  0.00000000000E+00 0. -1.
        -12    1    3    3    0    0  0.15429641356E+03  0.34534696591E+03 -0.10310269548E+04  0.10982206024E+04  0.00000000000E+00 0.  1.
          5    1    4    4  501    0 -0.58899880793E+03 -0.69615538070E+02 -0.23513613648E+02  0.59357921233E+03  0.41800000000E+01 0.  1.
         -5    1    4    4    0  501 -0.15049517982E+04 -0.23473788128E+03  0.13142651687E+03  0.15288139814E+04  0.41800000000E+01 0.  1.
</event>
<event>
11    1  0.8039394E-009  0.1537244E+03  0.7561462E-02  0.1093133E+00
         22   -1    0    0    0    0  0.00000000000E+00  0.00000000000E+00  0.22843901038E+04  0.22843901038E+04  0.00000000000E+00 0. -1.
         22   -1    0    0    0    0 -0.00000000000E+00 -0.00000000000E+00 -0.81179523534E+03  0.81179523534E+03  0.00000000000E+00 0. -1.
         24    2    1    2    0    0 -0.14754334016E+02 -0.16638466847E+02 -0.70287501557E+03  0.70772150752E+03  0.79636145933E+02 0.  0.
         25    2    1    2    0    0  0.73886130106E+02 -0.50387430436E+02 -0.48508203844E+02  0.16124676206E+03  0.12509763813E+03 0.  0.
        -24    2    1    2    0    0 -0.59131796090E+02  0.67025897283E+02  0.22239780879E+04  0.22272170696E+04  0.80176676027E+02 0.  0.
        -13    1    3    3    0    0  0.58774368933E+01 -0.46232636346E+02 -0.39376671530E+03  0.39651510312E+03  0.00000000000E+00 0.  1.
         14    1    3    3    0    0 -0.20631770909E+02  0.29594169499E+02 -0.30910830027E+03  0.31120640439E+03  0.00000000000E+00 0. -1.
         11    1    5    5    0    0 -0.10030917546E+01  0.58616072001E+02  0.13464165632E+04  0.13476922541E+04  0.00000000000E+00 0. -1.
        -12    1    5    5    0    0 -0.58128704336E+02  0.84098252820E+01  0.87756152470E+03  0.87952481549E+03  0.00000000000E+00 0.  1.
          5    1    4    4  501    0  0.10267363962E+03 -0.54530010996E+02 -0.15997742630E+02  0.11742571499E+03  0.41800000000E+01 0.  1.
         -5    1    4    4    0  501 -0.28787509512E+02  0.41425805597E+01 -0.32510461214E+02  0.43821047066E+02  0.41800000000E+01 0.  1.
</event>
<event>
11    1  0.8039394E-009  0.1806083E+03  0.7561462E-02  0.1069152E+00
         22   -1    0    0    0    0  0.00000000000E+00  0.00000000000E+00  0.26626641267E+03  0.26626641267E+03  0.00000000000E+00 0.  1.
         22   -1    0    0    0    0 -0.00000000000E+00 -0.00000000000E+00 -0.15057789476E+04  0.15057789476E+04  0.00000000000E+00 0. -1.
        -24    2    1    2    0    0 -0.43314451870E+02  0.39544182558E+02 -0.13797153908E+04  0.13830317241E+04  0.75645926158E+02 0.  0.
         25    2    1    2    0    0  0.13496350084E+03 -0.10607274646E+03  0.39920101130E+02  0.21612169880E+03  0.12509356546E+03 0.  0.
         24    2    1    2    0    0 -0.91649048968E+02  0.66528563903E+02  0.10028275480E+03  0.17289193731E+03  0.83722118242E+02 0.  0.
        -11    1    5    5    0    0 -0.10290536268E+03  0.50970703830E+02  0.63069924075E+02  0.13101657009E+03  0.00000000000E+00 0.  1.
         12    1    5    5    0    0  0.11256313708E+02  0.15557860072E+02  0.37212830729E+02  0.41875367213E+02  0.00000000000E+00 0. -1.
         13    1    3    3    0    0 -0.47319345161E+02  0.33401410075E+02 -0.13679002887E+04  0.13691259893E+04  0.00000000000E+00 0. -1.
        -14    1    3    3    0    0  0.40048932906E+01  0.61427724829E+01 -0.11815102102E+02  0.13905734850E+02  0.00000000000E+00 0.  1.
          5    1    4    4  501    0 -0.22235980597E+01  0.20407749164E+02  0.19051580219E+02  0.28317057106E+02  0.41800000000E+01 0. -1.
         -5    1    4    4    0  501  0.13718709890E+03 -0.12648049562E+03  0.20868520911E+02  0.18780464170E+03  0.41800000000E+01 0. -1.
</event>
<event>
11    1  0.8039394E-009  0.2819973E+03  0.7561462E-02  0.1008112E+00
         22   -1    0    0    0    0  0.00000000000E+00  0.00000000000E+00  0.36765464925E+03  0.36765464925E+03  0.00000000000E+00 0. -1.
         22   -1    0    0    0    0 -0.00000000000E+00 -0.00000000000E+00 -0.11040261435E+04  0.11040261435E+04  0.00000000000E+00 0.  1.
        -24    2    1    2    0    0 -0.14951238720E+03 -0.17410440028E+03 -0.38221406927E+03  0.45296662863E+03  0.80155322851E+02 0.  0.
         25    2    1    2    0    0  0.91445468042E+02  0.40705871588E+03 -0.54799635813E+03  0.70000550024E+03  0.12509444449E+03 0.  0.
         24    2    1    2    0    0  0.58066919160E+02 -0.23295431560E+03  0.19383893312E+03  0.31870866391E+03  0.79763401406E+02 0.  0.
        -11    1    5    5    0    0  0.10702662465E+02 -0.14598156789E+02 -0.58723005798E+01  0.19029899621E+02  0.00000000000E+00 0.  1.
         12    1    5    5    0    0  0.47364256695E+02 -0.21835615881E+03  0.19971123370E+03  0.29967876429E+03  0.00000000000E+00 0. -1.
         13    1    3    3    0    0 -0.60363513829E+02 -0.33772319164E+02 -0.65463147100E+02  0.95235219178E+02  0.00000000000E+00 0. -1.
        -14    1    3    3    0    0 -0.89148873373E+02 -0.14033208112E+03 -0.31675092217E+03  0.35773140945E+03  0.00000000000E+00 0.  1.
          5    1    4    4  501    0  0.16733989085E+02  0.22211554129E+03 -0.20260406553E+03  0.30113322607E+03  0.41800000000E+01 0. -1.
         -5    1    4    4    0  501  0.74711478956E+02  0.18494317459E+03 -0.34539229260E+03  0.39887227417E+03  0.41800000000E+01 0. -1.
</event>
<event>
11    1  0.8039394E-009  0.1481665E+03  0.7561462E-02  0.1098767E+00
         22   -1    0    0    0    0  0.00000000000E+00  0.00000000000E+00  0.18145119048E+04  0.18145119048E+04  0.00000000000E+00 0. -1.
         22   -1    0    0    0    0 -0.00000000000E+00 -0.00000000000E+00 -0.66072775132E+03  0.66072775132E+03  0.00000000000E+00 0.  1.
         24    2    1    2    0    0  0.56742074616E+02  0.53995166924E+02 -0.61806466126E+03  0.62810446886E+03  0.79850843595E+02 0.  0.
         25    2    1    2    0    0 -0.78153480778E+02 -0.10524165659E+03  0.19112964301E+03  0.26336080888E+03  0.12507838493E+03 0.  0.
        -24    2    1    2    0    0  0.21411406162E+02  0.51246489668E+02  0.15807191717E+04  0.15837743784E+04  0.81138959271E+02 0.  0.
        -13    1    3    3    0    0  0.16635650495E+02  0.27667515276E+00 -0.39091038087E+03  0.39126429340E+03  0.00000000000E+00 0.  1.
         14    1    3    3    0    0  0.40106424121E+02  0.53718491772E+02 -0.22715428038E+03  0.23684017546E+03  0.00000000000E+00 0. -1.
         11    1    5    5    0    0  0.16588550481E+02  0.53522602738E+02  0.15748408810E+04  0.15758374438E+04  0.00000000000E+00 0. -1.
        -12    1    5    5    0    0  0.48228556812E+01 -0.22761130699E+01  0.58782907424E+01  0.79369345266E+01  0.00000000000E+00 0.  1.
          5    1    4    4  501    0  0.10226291757E+02 -0.89972573258E+02  0.84038345951E+02  0.12361050510E+03  0.41800000000E+01 0.  1.
         -5    1    4    4    0  501 -0.88379772535E+02 -0.15269083335E+02  0.10709129706E+03  0.13975030377E+03  0.41800000000E+01 0.  1.
</event>
<event>
11    1  0.8039394E-009  0.1544569E+03  0.7561462E-02  0.1092410E+00
         22   -1    0    0    0    0  0.00000000000E+00  0.00000000000E+00  0.96050161713E+03  0.96050161713E+03  0.00000000000E+00 0. -1.
         22   -1    0    0    0    0 -0.00000000000E+00 -0.00000000000E+00 -0.14855890553E+03  0.14855890553E+03  0.00000000000E+00 0. -1.
         24    2    1    2    0    0 -0.69345812039E+02 -0.64148279483E+02 -0.73506484836E+02  0.14430573584E+03  0.80604582231E+02 0.  0.
         25    2    1    2    0    0  0.59492247093E+02  0.46246225237E+02  0.10434852236E+03  0.17948388187E+03  0.12509120240E+03 0.  0.
        -24    2    1    2    0    0  0.98535649464E+01  0.17902054246E+02  0.78110067408E+03  0.78527090494E+03  0.78195618872E+02 0.  0.
        -11    1    3    3    0    0  0.12316000838E+02 -0.13961653072E+02  0.62225650724E+01  0.19629873897E+02  0.00000000000E+00 0.  1.
         12    1    3    3    0    0 -0.81661812877E+02 -0.50186626412E+02 -0.79729049909E+02  0.12467586195E+03  0.00000000000E+00 0. -1.
         13    1    5    5    0    0  0.27967976114E+02  0.42047250748E+02  0.46638984336E+03  0.46911583321E+03  0.00000000000E+00 0. -1.
        -14    1    5    5    0    0 -0.18114411168E+02 -0.24145196501E+02  0.31471083072E+03  0.31615507173E+03  0.00000000000E+00 0.  1.
          5    1    4    4  501    0 -0.17338559269E+02 -0.13157909027E+02 -0.14088981676E+02  0.26262673362E+02  0.41800000000E+01 0. -1.
         -5    1    4    4    0  501  0.76830806362E+02  0.59404134264E+02  0.11843750403E+03  0.15322120850E+03  0.41800000000E+01 0. -1.
</event>
<event>
11    1  0.8039394E-009  0.1358256E+03  0.7561462E-02  0.1112311E+00
         22   -1    0    0    0    0  0.00000000000E+00  0.00000000000E+00  0.30280687549E+03  0.30280687549E+03  0.00000000000E+00 0. -1.
         22   -1    0    0    0    0 -0.00000000000E+00 -0.00000000000E+00 -0.15451862316E+03  0.15451862316E+03  0.00000000000E+00 0.  1.
         24    2    1    2    0    0 -0.36114028149E+02 -0.19182667586E+02 -0.65959180726E+02  0.11179627427E+03  0.80471085819E+02 0.  0.
         25    2    1    2    0    0  0.38855170424E+02 -0.36499005346E+02  0.33435520453E+02  0.14002114733E+03  0.12508431561E+03 0.  0.
        -24    2    1    2    0    0 -0.27411422753E+01  0.55681672933E+02  0.18081191261E+03  0.20550807706E+03  0.80203861718E+02 0.  0.
        -13    1    3    3    0    0 -0.42858562936E+02 -0.44921569497E+02 -0.36171639708E+02  0.71855350128E+02  0.00000000000E+00 0.  1.
         14    1    3    3    0    0  0.67445347869E+01  0.25738901910E+02 -0.29787541018E+02  0.39940924137E+02  0.00000000000E+00 0. -1.
         11    1    5    5    0    0  0.54901653807E+01  0.10996800318E+02  0.15024409955E+03  0.15074601481E+03  0.00000000000E+00 0. -1.
        -12    1    5    5    0    0 -0.82313076560E+01  0.44684872615E+02  0.30567813061E+02  0.54762062248E+02  0.00000000000E+00 0.  1.
          5    1    4    4  501    0 -0.86628582029E+01  0.28393301047E+02  0.49524798087E+02  0.57891300574E+02  0.41800000000E+01 0. -1.
         -5    1    4    4    0  501  0.47518028627E+02 -0.64892306393E+02 -0.16089277634E+02  0.82129846758E+02  0.41800000000E+01 0. -1.
</event>
<event>
11    1  0.8039394E-009  0.1388602E+03  0.7561462E-02  0.1108838E+00
         22   -1    0    0    0    0  0.00000000000E+00  0.00000000000E+00  0.13707821918E+03  0.13707821918E+03  0.00000000000E+00 0. -1.
         22   -1    0    0    0    0 -0.00000000000E+00 -0.00000000000E+00 -0.10396932935E+04  0.10396932935E+04  0.00000000000E+00 0. -1.
        -24    2    1    2    0    0 -0.56844482358E+02  0.20898383559E+02 -0.83567213293E+03  0.84174315440E+03  0.80719183697E+02 0.  0.
         25    2    1    2    0    0  0.87224264444E+02  0.28784756491E+02 -0.14017471056E+03  0.20912424379E+03  0.12508942940E+03 0.  0.
         24    2    1    2    0    0 -0.30379782085E+02 -0.49683140050E+02  0.73231769177E+02  0.12590411448E+03  0.84247305373E+02 0.  0.
        -11    1    5    5    0    0 -0.43856739732E+02 -0.27722579777E+02  0.40057584803E+01  0.52038458379E+02  0.00000000000E+00 0.  1.
         12    1    5    5    0    0  0.13476957647E+02 -0.21960560273E+02  0.69226010697E+02  0.73865656106E+02  0.00000000000E+00 0. -1.
         11    1    3    3    0    0 -0.10499610477E+02  0.44516890020E+02 -0.49694254023E+03  0.49904296769E+03  0.00000000000E+00 0. -1.
        -12    1    3    3    0    0 -0.46344871881E+02 -0.23618506461E+02 -0.33872959270E+03  0.34270018671E+03  0.00000000000E+00 0.  1.
          5    1    4    4  501    0  0.65376754731E+02  0.13922546477E+02 -0.56624232621E+00  0.66975744788E+02  0.41800000000E+01 0. -1.
         -5    1    4    4    0  501  0.21847509713E+02  0.14862210014E+02 -0.13960846823E+03  0.14214849900E+03  0.41800000000E+01 0. -1.
</event>
<event>
11    1  0.8039394E-009  0.2023359E+03  0.7561462E-02  0.1052884E+00
         22   -1    0    0    0    0  0.00000000000E+00  0.00000000000E+00  0.82100800756E+03  0.82100800756E+03  0.00000000000E+00 0.  1.
         22   -1    0    0    0    0 -0.00000000000E+00 -0.00000000000E+00 -0.53339034080E+03  0.53339034080E+03  0.00000000000E+00 0. -1.
        -24    2    1    2    0    0  0.13486212965E+03 -0.85967272442E+02 -0.44426023488E+03  0.47955410171E+03  0.83826095148E+02 0.  0.
         25    2    1    2    0    0 -0.14659227123E+03  0.51386238195E+02  0.76510974542E+02  0.21361514201E+03  0.12509060800E+03 0.  0.
         24    2    1    2    0    0  0.11730141582E+02  0.34581034247E+02  0.65536692710E+03  0.66122910464E+03  0.79904164647E+02 0.  0.
        -13    1    5    5    0    0 -0.17442137071E+02 -0.15526126752E+01  0.46318116951E+03  0.46351206515E+03  0.00000000000E+00 0.  1.
         14    1    5    5    0    0  0.29172278654E+02  0.36133646922E+02  0.19218575759E+03  0.19771703949E+03  0.00000000000E+00 0. -1.
         13    1    3    3    0    0  0.67539198609E+02 -0.61819207611E+02 -0.34669311290E+03  0.35857952020E+03  0.00000000000E+00 0. -1.
        -14    1    3    3    0    0  0.67322931044E+02 -0.24148064831E+02 -0.97567121983E+02  0.12097458151E+03  0.00000000000E+00 0.  1.
          5    1    4    4  501    0 -0.63638933955E+02  0.34687995898E+02 -0.29107021449E+02  0.78216763369E+02  0.41800000000E+01 0. -1.
         -5    1    4    4    0  501 -0.82953337280E+02  0.16698242296E+02  0.10561799599E+03  0.13539837864E+03  0.41800000000E+01 0. -1.
</event>
<event>
11    1  0.8039394E-009  0.2873587E+03  0.7561462E-02  0.1005688E+00
         22   -1    0    0    0    0  0.00000000000E+00  0.00000000000E+00  0.27861918885E+04  0.27861918885E+04  0.00000000000E+00 0. -1.
         22   -1    0    0    0    0 -0.00000000000E+00 -0.00000000000E+00 -0.30226706008E+03  0.30226706008E+03  0.00000000000E+00 0. -1.
        -24    2    1    2    0    0  0.39841087295E+01  0.40134522769E+02 -0.19030152349E+03  0.21026560854E+03  0.79814179519E+02 0.  0.
         25    2    1    2    0    0 -0.25852356900E+03  0.73456803974E+01  0.12284414332E+03  0.31245297238E+03  0.12509109341E+03 0.  0.
         24    2    1    2    0    0  0.25453946027E+03 -0.47480203166E+02  0.25513822086E+04  0.25657403676E+04  0.80173270993E+02 0.  0.
        -11    1    5    5    0    0  0.43462389028E+02  0.22116997785E+02  0.44305909383E+03  0.44573478827E+03  0.00000000000E+00 0.  1.
         12    1    5    5    0    0  0.21107707124E+03 -0.69597200951E+02  0.21083231147E+04  0.21200055794E+04  0.00000000000E+00 0. -1.
         11    1    3    3    0    0  0.37353109374E+02  0.34484379602E+02 -0.14544618633E+03  0.15407472321E+03  0.00000000000E+00 0. -1.
        -12    1    3    3    0    0 -0.33369000645E+02  0.56501431672E+01 -0.44855337166E+02  0.56190885330E+02  0.00000000000E+00 0.  1.
          5    1    4    4  501    0 -0.94830211311E+02 -0.28279110812E+02 -0.86809533574E+01  0.99424888417E+02  0.41800000000E+01 0. -1.
         -5    1    4    4    0  501 -0.16369335769E+03  0.35624791210E+02  0.13152509668E+03  0.21302808396E+03  0.41800000000E+01 0. -1.
</event>
<event>
11    1  0.8039394E-009  0.1583152E+03  0.7561462E-02  0.1088673E+00
         22   -1    0    0    0    0  0.00000000000E+00  0.00000000000E+00  0.11671361569E+03  0.11671361569E+03  0.00000000000E+00 0. -1.
         22   -1    0    0    0    0 -0.00000000000E+00 -0.00000000000E+00 -0.51114691301E+03  0.51114691301E+03  0.00000000000E+00 0. -1.
        -24    2    1    2    0    0 -0.61892830373E+01  0.25971308299E+02 -0.31396401856E+03  0.32491968276E+03  0.79287951256E+02 0.  0.
         25    2    1    2    0    0  0.54111654624E+02  0.66040219339E+02 -0.80806349641E+02  0.17165839703E+03  0.12509019703E+03 0.  0.
         24    2    1    2    0    0 -0.47922371587E+02 -0.92011527638E+02  0.33707087251E+00  0.13128244892E+03  0.80450561587E+02 0.  0.
        -11    1    5    5    0    0  0.18378558183E+02 -0.48739070710E+02  0.12620749802E+01  0.52104330414E+02  0.00000000000E+00 0.  1.
         12    1    5    5    0    0 -0.66300929770E+02 -0.43272456928E+02 -0.92500410766E+00  0.79178118502E+02  0.00000000000E+00 0. -1.
         13    1    3    3    0    0 -0.36614182790E+02  0.26043747287E+02 -0.25100170027E+03  0.25499162475E+03  0.00000000000E+00 0. -1.
        -14    1    3    3    0    0  0.30424899752E+02 -0.72438987609E-01 -0.62962318282E+02  0.69928058001E+02  0.00000000000E+00 0.  1.
          5    1    4    4  501    0  0.78743211148E+02  0.83704827146E+02 -0.42426352664E+02  0.12257430069E+03  0.41800000000E+01 0. -1.
         -5    1    4    4    0  501 -0.24631556524E+02 -0.17664607807E+02 -0.38379996976E+02  0.49084096341E+02  0.41800000000E+01 0. -1.
</event>
<event>
11    1  0.8039394E-009  0.1792008E+03  0.7561462E-02  0.1070291E+00
         22   -1    0    0    0    0  0.00000000000E+00  0.00000000000E+00  0.37872961395E+02  0.37872961395E+02  0.00000000000E+00 0.  1.
         22   -1    0    0    0    0 -0.00000000000E+00 -0.00000000000E+00 -0.23051679509E+04  0.23051679509E+04  0.00000000000E+00 0.  1.
         24    2    1    2    0    0  0.82655056264E+02 -0.99313501227E+02 -0.15263371207E+04  0.15339459656E+04  0.81179981561E+02 0.  0.
         25    2    1    2    0    0 -0.13725637810E+03  0.41744804514E+02 -0.59513258208E+03  0.62482956995E+03  0.12508900510E+03 0.  0.
        -24    2    1    2    0    0  0.54601321841E+02  0.57568696712E+02 -0.14582528670E+03  0.18426537675E+03  0.79957836641E+02 0.  0.
        -13    1    3    3    0    0  0.60919110252E+02 -0.98069011537E+02 -0.14493131793E+04  0.14539041787E+04  0.00000000000E+00 0.  1.
         14    1    3    3    0    0  0.21735946011E+02 -0.12444896894E+01 -0.77023941406E+02  0.80041786920E+02  0.00000000000E+00 0. -1.
         13    1    5    5    0    0  0.10642170760E+02  0.15207483991E+02 -0.11384443280E+03  0.11534764084E+03  0.00000000000E+00 0. -1.
        -14    1    5    5    0    0  0.43959151081E+02  0.42361212721E+02 -0.31980853900E+02  0.68917735911E+02  0.00000000000E+00 0.  1.
          5    1    4    4  501    0 -0.38553139267E+01  0.54152880305E+02 -0.13490599241E+03  0.14548022917E+03  0.41800000000E+01 0. -1.
         -5    1    4    4    0  501 -0.13340106418E+03 -0.12408075790E+02 -0.46022658967E+03  0.47934934079E+03  0.41800000000E+01 0. -1.
</event>
<event>
11    1  0.8039394E-009  0.1571779E+03  0.7561462E-02  0.1089762E+00
         22   -1    0    0    0    0  0.00000000000E+00  0.00000000000E+00  0.16923035895E+03  0.16923035895E+03  0.00000000000E+00 0.  1.
         22   -1    0    0    0    0 -0.00000000000E+00 -0.00000000000E+00 -0.94270894259E+03  0.94270894259E+03  0.00000000000E+00 0. -1.
        -24    2    1    2    0    0 -0.38310641033E+02 -0.83946725133E+02 -0.75503027195E+03  0.76477418792E+03  0.79335295168E+02 0.  0.
         25    2    1    2    0    0 -0.16054919339E+02  0.15375263445E+03 -0.78510554518E+02  0.21379613473E+03  0.12508895642E+03 0.  0.
         24    2    1    2    0    0  0.54365560373E+02 -0.69805909313E+02  0.60062242840E+02  0.13336897890E+03  0.79695246961E+02 0.  0.
        -13    1    5    5    0    0  0.25295637898E+02 -0.32187666911E+02  0.73354061430E+02  0.84004366113E+02  0.00000000000E+00 0.  1.
         14    1    5    5    0    0  0.29069922474E+02 -0.37618242402E+02 -0.13291818590E+02  0.49364612786E+02  0.00000000000E+00 0. -1.
         13    1    3    3    0    0 -0.29825012674E+02 -0.91176964730E+02 -0.47862018823E+03  0.48813938056E+03  0.00000000000E+00 0. -1.
        -14    1    3    3    0    0 -0.84856283591E+01  0.72302395968E+01 -0.27641008373E+03  0.27663480735E+03  0.00000000000E+00 0.  1.
          5    1    4    4  501    0 -0.49339369940E+01  0.15117441362E+03 -0.18352023248E+02  0.15242150841E+03  0.41800000000E+01 0. -1.
         -5    1    4    4    0  501 -0.11120982345E+02  0.25782208242E+01 -0.60158531270E+02  0.61374626317E+02  0.41800000000E+01 0. -1.
</event>
<event>
11    1  0.8039394E-009  0.1689100E+03  0.7561462E-02  0.1078984E+00
         22   -1    0    0    0    0  0.00000000000E+00  0.00000000000E+00  0.11727760927E+04  0.11727760927E+04  0.00000000000E+00 0. -1.
         22   -1    0    0    0    0 -0.00000000000E+00 -0.00000000000E+00 -0.18829745774E+03  0.18829745774E+03  0.00000000000E+00 0. -1.
        -24    2    1    2    0    0  0.31020357510E+02  0.74867482428E+02 -0.10376727435E+03  0.15445268197E+03  0.80750116004E+02 0.  0.
         25    2    1    2    0    0  0.52870083590E+02 -0.14787606768E+03  0.13120771141E+03  0.23984400873E+03  0.12508840017E+03 0.  0.
         24    2    1    2    0    0 -0.83890441100E+02  0.73008585256E+02  0.95703819789E+03  0.96677685972E+03  0.79796770912E+02 0.  0.
        -13    1    5    5    0    0 -0.34202458551E+02  0.71321328582E+02  0.41554641527E+03  0.42300752159E+03  0.00000000000E+00 0.  1.
         14    1    5    5    0    0 -0.49687982549E+02  0.16872566743E+01  0.54149178262E+03  0.54376933813E+03  0.00000000000E+00 0. -1.
         11    1    3    3    0    0  0.28459861520E+02  0.52678476390E+01 -0.72587513260E+02  0.78145127921E+02  0.00000000000E+00 0. -1.
        -12    1    3    3    0    0  0.25604959896E+01  0.69599634790E+02 -0.31179761094E+02  0.76307554046E+02  0.00000000000E+00 0.  1.
          5    1    4    4  501    0  0.25919254470E+02 -0.59292061917E+01 -0.17783749330E+02  0.32259841577E+02  0.41800000000E+01 0. -1.
         -5    1    4    4    0  501  0.26950829121E+02 -0.14194686149E+03  0.14899146074E+03  0.20758416715E+03  0.41800000000E+01 0. -1.
</event>
<event>
11    1  0.8039394E-009  0.2191143E+03  0.7561462E-02  0.1041774E+00
         22   -1    0    0    0    0  0.00000000000E+00  0.00000000000E+00  0.10664656561E+04  0.10664656561E+04  0.00000000000E+00 0. -1.
         22   -1    0    0    0    0 -0.00000000000E+00 -0.00000000000E+00 -0.82715225572E+03  0.82715225572E+03  0.00000000000E+00 0. -1.
        -24    2    1    2    0    0  0.50007077169E+02 -0.89240979445E+02 -0.72457622341E+03  0.73604327822E+03  0.79273852611E+02 0.  0.
         25    2    1    2    0    0 -0.18761318104E+03  0.18819907638E+03  0.16461633565E+03  0.33669455156E+03  0.12508830894E+03 0.  0.
         24    2    1    2    0    0  0.13760610387E+03 -0.98958096939E+02  0.79927328817E+03  0.82088008207E+03  0.79234936656E+02 0.  0.
        -11    1    5    5    0    0  0.52846112418E+02 -0.11306377214E+02  0.13332372721E+03  0.14386021688E+03  0.00000000000E+00 0.  1.
         12    1    5    5    0    0  0.84759991454E+02 -0.87651719725E+02  0.66594956096E+03  0.67701986519E+03  0.00000000000E+00 0. -1.
         13    1    3    3    0    0  0.69673758363E+02 -0.82475965608E+02 -0.63238382827E+03  0.64153411738E+03  0.00000000000E+00 0. -1.
        -14    1    3    3    0    0 -0.19666681193E+02 -0.67650138362E+01 -0.92192395139E+02  0.94509160841E+02  0.00000000000E+00 0.  1.
          5    1    4    4  501    0 -0.14760342875E+03  0.87618650158E+02  0.14882541414E+03  0.22722296611E+03  0.41800000000E+01 0.  1.
         -5    1    4    4    0  501 -0.40009752292E+02  0.10058042623E+03  0.15790921510E+02  0.10947158545E+03  0.41800000000E+01 0.  1.
</event>
<event>
11    1  0.8039394E-009  0.1988632E+03  0.7561462E-02  0.1055331E+00
         22   -1    0    0    0    0  0.00000000000E+00  0.00000000000E+00  0.10686129510E+04  0.10686129510E+04  0.00000000000E+00 0. -1.
         22   -1    0    0    0    0 -0.00000000000E+00 -0.00000000000E+00 -0.18157377472E+03  0.18157377472E+03  0.00000000000E+00 0.  1.
         24    2    1    2    0    0 -0.23162777190E+02  0.14582696995E+03 -0.75188158465E+02  0.18407601321E+03  0.80179174697E+02 0.  0.
         25    2    1    2    0    0  0.27484959839E+02 -0.18532224277E+03  0.20765383782E+03  0.30637825332E+03  0.12509101113E+03 0.  0.
        -24    2    1    2    0    0 -0.43221826484E+01  0.39495272816E+02  0.75457349695E+03  0.75973245920E+03  0.78953717020E+02 0.  0.
        -11    1    3    3    0    0 -0.42058282320E+02  0.12143847647E+03 -0.82044681112E+02  0.15247141495E+03  0.00000000000E+00 0.  1.
         12    1    3    3    0    0  0.18895505130E+02  0.24388493480E+02  0.68565226472E+01  0.31604598260E+02  0.00000000000E+00 0. -1.
         11    1    5    5    0    0  0.25494935176E+02  0.38180944426E+02  0.62848794999E+03  0.63016258182E+03  0.00000000000E+00 0. -1.
        -12    1    5    5    0    0 -0.29817117824E+02  0.13143283899E+01  0.12608554696E+03  0.12956987739E+03  0.00000000000E+00 0.  1.
          5    1    4    4  501    0  0.37908607289E+01 -0.14690212405E+03  0.21499937273E+03  0.26045500063E+03  0.41800000000E+01 0.  1.
         -5    1    4    4    0  501  0.23694099110E+02 -0.38420118716E+02 -0.73455349164E+01  0.45923252694E+02  0.41800000000E+01 0.  1.
</event>
<event>
11    1  0.8039394E-009  0.1993883E+03  0.7561462E-02  0.1054957E+00
         22   -1    0    0    0    0  0.00000000000E+00  0.00000000000E+00  0.18371642107E+03  0.18371642107E+03  0.00000000000E+00 0. -1.
         22   -1    0    0    0    0 -0.00000000000E+00 -0.00000000000E+00 -0.11238605269E+04  0.11238605269E+04  0.00000000000E+00 0.  1.
        -24    2    1    2    0    0 -0.17435785662E+02  0.10977156787E+02 -0.73044320778E+03  0.73530051954E+03  0.81823405266E+02 0.  0.
         25    2    1    2    0    0 -0.12579412516E+03  0.55501949236E+02 -0.31509946674E+03  0.36584221635E+03  0.12509286560E+03 0.  0.
         24    2    1    2    0    0  0.14322991082E+03 -0.66479106023E+02  0.10539856868E+03  0.20643421211E+03  0.81067544414E+02 0.  0.
        -11    1    5    5    0    0  0.25947825043E+02  0.13416027800E+02  0.41628574292E+02  0.50854868243E+02  0.00000000000E+00 0.  1.
         12    1    5    5    0    0  0.11728208578E+03 -0.79895133823E+02  0.63769994387E+02  0.15557934387E+03  0.00000000000E+00 0. -1.
         11    1    3    3    0    0  0.82060050233E+01 -0.32222516308E+02 -0.34464381439E+03  0.34624411601E+03  0.00000000000E+00 0. -1.
        -12    1    3    3    0    0 -0.25641790685E+02  0.43199673095E+02 -0.38579939339E+03  0.38905640352E+03  0.00000000000E+00 0.  1.
          5    1    4    4  501    0 -0.10836556934E+03  0.81006413565E+02 -0.16936509927E+03  0.21681131176E+03  0.41800000000E+01 0. -1.
         -5    1    4    4    0  501 -0.17428555823E+02 -0.25504464329E+02 -0.14573436747E+03  0.14903090458E+03  0.41800000000E+01 0. -1.
</event>
<event>
11    1  0.8039394E-009  0.1362256E+03  0.7561462E-02  0.1111848E+00
         22   -1    0    0    0    0  0.00000000000E+00  0.00000000000E+00  0.13049755135E+03  0.13049755135E+03  0.00000000000E+00 0.  1.
         22   -1    0    0    0    0 -0.00000000000E+00 -0.00000000000E+00 -0.13028792258E+04  0.13028792258E+04  0.00000000000E+00 0. -1.
        -24    2    1    2    0    0  0.34926573042E+02  0.79728344971E+01 -0.11186845621E+04  0.11221110079E+04  0.79965823043E+02 0.  0.
         25    2    1    2    0    0  0.97688275341E+01 -0.43260427324E+02 -0.12943109068E+03  0.18536822248E+03  0.12506828578E+03 0.  0.
         24    2    1    2    0    0 -0.44695400576E+02  0.35287592827E+02  0.75733978324E+02  0.12589754683E+03  0.82895499179E+02 0.  0.
        -11    1    5    5    0    0 -0.14605009809E+02  0.15215156520E+02  0.85798400384E+02  0.88352548395E+02  0.00000000000E+00 0.  1.
         12    1    5    5    0    0 -0.30090390767E+02  0.20072436307E+02 -0.10064422061E+02  0.37544998431E+02  0.00000000000E+00 0. -1.
         13    1    3    3    0    0  0.10557779778E+02  0.26224636472E+02 -0.96636462507E+03  0.96677804426E+03  0.00000000000E+00 0. -1.
        -14    1    3    3    0    0  0.24368793264E+02 -0.18251801975E+02 -0.15231993703E+03  0.15533296359E+03  0.00000000000E+00 0.  1.
          5    1    4    4  501    0  0.58808960215E+02 -0.29301216840E+01 -0.27301486621E+02  0.65037858101E+02  0.41800000000E+01 0.  1.
         -5    1    4    4    0  501 -0.49040132680E+02 -0.40330305640E+02 -0.10212960406E+03  0.12033036438E+03  0.41800000000E+01 0.  1.
</event>
<event>
11    1  0.8039394E-009  0.2675577E+03  0.7561462E-02  0.1014941E+00
         22   -1    0    0    0    0  0.00000000000E+00  0.00000000000E+00  0.11908695368E+04  0.11908695368E+04  0.00000000000E+00 0. -1.
         22   -1    0    0    0    0 -0.00000000000E+00 -0.00000000000E+00 -0.15404653494E+03  0.15404653494E+03  0.00000000000E+00 0.  1.
         24    2    1    2    0    0  0.16167344872E+02  0.46883298315E+02 -0.70575571306E+02  0.11837178348E+03  0.81065042762E+02 0.  0.
         25    2    1    2    0    0  0.59807753855E+02 -0.25425905824E+03  0.54951140529E+03  0.62115508026E+03  0.12508482349E+03 0.  0.
        -24    2    1    2    0    0 -0.75975098727E+02  0.20737575992E+03  0.55788716787E+03  0.60538920800E+03  0.80505152997E+02 0.  0.
        -13    1    3    3    0    0 -0.61496917542E+01  0.64475107521E+02 -0.59251856056E+02  0.87781778545E+02  0.00000000000E+00 0.  1.
         14    1    3    3    0    0  0.22317036626E+02 -0.17591809205E+02 -0.11323715250E+02  0.30590004935E+02  0.00000000000E+00 0. -1.
         11    1    5    5    0    0 -0.15423981848E+02  0.14828752816E+03  0.32353529626E+03  0.35623331982E+03  0.00000000000E+00 0. -1.
        -12    1    5    5    0    0 -0.60551116878E+02  0.59088231765E+02  0.23435187161E+03  0.24915588818E+03  0.00000000000E+00 0.  1.
          5    1    4    4  501    0  0.94089801194E+02 -0.13478051451E+03  0.28969054547E+03  0.33310172968E+03  0.41800000000E+01 0. -1.
         -5    1    4    4    0  501 -0.34282047339E+02 -0.11947854373E+03  0.25982085982E+03  0.28805335057E+03  0.41800000000E+01 0. -1.
</event>
<event>
11    1  0.8039394E-009  0.1469179E+03  0.7561462E-02  0.1100070E+00
         22   -1    0    0    0    0  0.00000000000E+00  0.00000000000E+00  0.42549570095E+03  0.42549570095E+03  0.00000000000E+00 0.  1.
         22   -1    0    0    0    0 -0.00000000000E+00 -0.00000000000E+00 -0.26258312214E+04  0.26258312214E+04  0.00000000000E+00 0.  1.
         24    2    1    2    0    0 -0.74244790809E+02  0.52252370364E+01 -0.22548859810E+04  0.22575896121E+04  0.81611746602E+02 0.  0.
         25    2    1    2    0    0  0.11903122682E+03  0.21717143431E+02 -0.34358476764E+03  0.38514496224E+03  0.12508430001E+03 0.  0.
        -24    2    1    2    0    0 -0.44786436009E+02 -0.26942380468E+02  0.39813522820E+03  0.40859234802E+03  0.75527016439E+02 0.  0.
        -13    1    3    3    0    0 -0.70852740841E+02  0.17748038217E+02 -0.21991836273E+04  0.22003962667E+04  0.00000000000E+00 0.  1.
         14    1    3    3    0    0 -0.33920499674E+01 -0.12522801180E+02 -0.55702353725E+02  0.57193345442E+02  0.00000000000E+00 0. -1.
         13    1    5    5    0    0 -0.20729339665E+02 -0.39025114960E+02  0.10104502174E+03  0.11028491075E+03  0.00000000000E+00 0. -1.
        -14    1    5    5    0    0 -0.24057096344E+02  0.12082734493E+02  0.29709020646E+03  0.29830743727E+03  0.00000000000E+00 0.  1.
          5    1    4    4  501    0 -0.35378144991E+01 -0.37015062032E+02 -0.61329696817E+02  0.71843128136E+02  0.41800000000E+01 0. -1.
         -5    1    4    4    0  501  0.12256904132E+03  0.58732205463E+02 -0.28225507082E+03  0.31330183410E+03  0.41800000000E+01 0. -1.
</event>
<event>
11    1  0.8039394E-009  0.1339853E+03  0.7561462E-02  0.1114467E+00
         22   -1    0    0    0    0  0.00000000000E+00  0.00000000000E+00  0.12167481587E+04  0.12167481587E+04  0.00000000000E+00 0.  1.
         22   -1    0    0    0    0 -0.00000000000E+00 -0.00000000000E+00 -0.19777900137E+04  0.19777900137E+04  0.00000000000E+00 0. -1.
        -24    2    1    2    0    0  0.25138508183E+02  0.15424186892E+02 -0.19077031955E+04  0.19096450034E+04  0.80887001283E+02 0.  0.
         25    2    1    2    0    0 -0.70715906644E+02 -0.21955063939E+01  0.95982383848E+01  0.14403140950E+03  0.12508941219E+03 0.  0.
         24    2    1    2    0    0  0.45577398461E+02 -0.13228680498E+02  0.11370631021E+04  0.11408617595E+04  0.80004743233E+02 0.  0.
        -13    1    5    5    0    0  0.60300923563E+02  0.12191785104E+01  0.10338310036E+04  0.10355888333E+04  0.00000000000E+00 0.  1.
         14    1    5    5    0    0 -0.14723525102E+02 -0.14447859008E+02  0.10323209853E+03  0.10527292619E+03  0.00000000000E+00 0. -1.
         13    1    3    3    0    0  0.50487300808E+02  0.16405813522E+02 -0.16060226598E+04  0.16068997797E+04  0.00000000000E+00 0. -1.
        -14    1    3    3    0    0 -0.25348792625E+02 -0.98162663079E+00 -0.30168053569E+03  0.30274522373E+03  0.00000000000E+00 0.  1.
          5    1    4    4  501    0 -0.78299304393E+02  0.11225341136E+02 -0.42253589117E+02  0.89775428405E+02  0.41800000000E+01 0.  1.
         -5    1    4    4    0  501  0.75833977487E+01 -0.13420847530E+02  0.51851827502E+02  0.54255981100E+02  0.41800000000E+01 0.  1.
</event>
<event>
11    1  0.8039394E-009  0.1623137E+03  0.7561462E-02  0.1084921E+00
         22   -1    0    0    0    0  0.00000000000E+00  0.00000000000E+00  0.10294435221E+04  0.10294435221E+04  0.00000000000E+00 0. -1.
         22   -1    0    0    0    0 -0.00000000000E+00 -0.00000000000E+00 -0.37820525030E+03  0.37820525030E+03  0.00000000000E+00 0. -1.
        -24    2    1    2    0    0 -0.10050158851E+03 -0.19137782473E+01 -0.31534060088E+03  0.34066070672E+03  0.80658481873E+02 0.  0.
         25    2    1    2    0    0  0.14871440291E+03  0.14646417438E+01  0.14724805597E+03  0.24381101436E+03  0.12507478535E+03 0.  0.
         24    2    1    2    0    0 -0.48212814395E+02  0.44913650352E+00  0.81933081672E+03  0.82317705134E+03  0.63188554571E+02 0.  0.
        -11    1    5    5    0    0 -0.22084794061E+02  0.24273263430E+00  0.70236726977E+02  0.73627405660E+02  0.00000000000E+00 0.  1.
         12    1    5    5    0    0 -0.26128020335E+02  0.20640386922E+00  0.74909408974E+03  0.74954964568E+03  0.00000000000E+00 0. -1.
         13    1    3    3    0    0 -0.86402214501E+02  0.17271841037E+02 -0.29917950684E+03  0.31188465252E+03  0.00000000000E+00 0. -1.
        -14    1    3    3    0    0 -0.14099374009E+02 -0.19185619284E+02 -0.16161094041E+02  0.28776054201E+02  0.00000000000E+00 0.  1.
          5    1    4    4  501    0  0.15325106764E+03 -0.16099218213E+02  0.79286811591E+02  0.17334631653E+03  0.41800000000E+01 0.  1.
         -5    1    4    4    0  501 -0.45366647371E+01  0.17563859957E+02  0.67961244381E+02  0.70464697838E+02  0.41800000000E+01 0.  1.
</event>
<event>
11    1  0.8039394E-009  0.1696135E+03  0.7561462E-02  0.1078368E+00
         22   -1    0    0    0    0  0.00000000000E+00  0.00000000000E+00  0.17912997075E+03  0.17912997075E+03  0.00000000000E+00 0.  1.
         22   -1    0    0    0    0 -0.00000000000E+00 -0.00000000000E+00 -0.91618854968E+03  0.91618854968E+03  0.00000000000E+00 0.  1.
         24    2    1    2    0    0 -0.80286144139E+02 -0.80992320708E+02 -0.75777987047E+03  0.77053571301E+03  0.80556390065E+02 0.  0.
         25    2    1    2    0    0  0.11491859140E+03  0.52823415542E+02 -0.73513347274E+02  0.19248009541E+03  0.12509108291E+03 0.  0.
        -24    2    1    2    0    0 -0.34632447259E+02  0.28168905166E+02  0.94234638816E+02  0.13230271200E+03  0.81430625869E+02 0.  0.
        -11    1    3    3    0    0 -0.72821073652E+02 -0.86328912477E+02 -0.75014222533E+03  0.75859669662E+03  0.00000000000E+00 0.  1.
         12    1    3    3    0    0 -0.74650704868E+01  0.53365917689E+01 -0.76376451351E+01  0.11939016387E+02  0.00000000000E+00 0. -1.
         11    1    5    5    0    0  0.11199604305E+02  0.21814087142E+02 -0.29180461883E+01  0.24694139547E+02  0.00000000000E+00 0. -1.
        -12    1    5    5    0    0 -0.45832051563E+02  0.63548180244E+01  0.97152685004E+02  0.10760857246E+03  0.00000000000E+00 0.  1.
          5    1    4    4  501    0 -0.81757585515E+01  0.49426982392E+02 -0.26479271760E+01  0.50342363220E+02  0.41800000000E+01 0. -1.
         -5    1    4    4    0  501  0.12309434995E+03  0.33964331503E+01 -0.70865420098E+02  0.14213773219E+03  0.41800000000E+01 0. -1.
</event>
<event>
11    1  0.8039394E-009  0.1351733E+03  0.7561462E-02  0.1113071E+00
         22   -1    0    0    0    0  0.00000000000E+00  0.00000000000E+00  0.22472952665E+04  0.22472952665E+04  0.00000000000E+00 0.  1.
         22   -1    0    0    0    0 -0.00000000000E+00 -0.00000000000E+00 -0.73261285832E+02  0.73261285832E+02  0.00000000000E+00 0.  1.
        -24    2    1    2    0    0  0.34350730878E+01  0.42772620602E+02 -0.27588125381E+02  0.95479389220E+02  0.80708811808E+02 0.  0.
         25    2    1    2    0    0 -0.36057434679E+02  0.11851190372E+01  0.39624321141E+03  0.41708168507E+03  0.12508759463E+03 0.  0.
         24    2    1    2    0    0  0.32622361591E+02 -0.43957739639E+02  0.18053788947E+04  0.18079954781E+04  0.80362889821E+02 0.  0.
        -11    1    5    5    0    0  0.70326187388E+01 -0.61723853345E+02  0.14205504782E+04  0.14219082083E+04  0.00000000000E+00 0.  1.
         12    1    5    5    0    0  0.25589742852E+02  0.17766113706E+02  0.38482841650E+03  0.38608726978E+03  0.00000000000E+00 0. -1.
         11    1    3    3    0    0 -0.17750753836E+02  0.59229995222E+01  0.22840017193E+02  0.29526895714E+02  0.00000000000E+00 0. -1.
        -12    1    3    3    0    0  0.21185826924E+02  0.36849621080E+02 -0.50428142575E+02  0.65952493506E+02  0.00000000000E+00 0.  1.
          5    1    4    4  501    0  0.40221736093E+02 -0.15202061567E+02  0.75760487764E+02  0.87212468354E+02  0.41800000000E+01 0.  1.
         -5    1    4    4    0  501 -0.76279170772E+02  0.16387180604E+02  0.32048272364E+03  0.32986921671E+03  0.41800000000E+01 0.  1.
</event>
<event>
11    1  0.8039394E-009  0.1419786E+03  0.7561462E-02  0.1105369E+00
         22   -1    0    0    0    0  0.00000000000E+00  0.00000000000E+00  0.19803339689E+03  0.19803339689E+03  0.00000000000E+00 0. -1.
         22   -1    0    0    0    0 -0.00000000000E+00 -0.00000000000E+00 -0.86322354154E+03  0.86322354154E+03  0.00000000000E+00 0.  1.
        -24    2    1    2    0    0 -0.42945172014E+02  0.48715989930E+02 -0.68562881505E+03  0.69311196788E+03  0.78101168496E+02 0.  0.
         25    2    1    2    0    0  0.71733101489E+02 -0.54667465414E+02 -0.12583788513E+03  0.19904575254E+03  0.12509943504E+03 0.  0.
         24    2    1    2    0    0 -0.28787929475E+02  0.59514754840E+01  0.14627655553E+03  0.16909921801E+03  0.79583603147E+02 0.  0.
        -13    1    5    5    0    0  0.18943445724E-01  0.30409707665E+02  0.17923381062E+02  0.35298700653E+02  0.00000000000E+00 0.  1.
         14    1    5    5    0    0 -0.28806872921E+02 -0.24458232181E+02  0.12835317447E+03  0.13380051736E+03  0.00000000000E+00 0. -1.
         11    1    3    3    0    0  0.14581789005E+02  0.73646173811E+01 -0.34857558966E+02  0.38495656597E+02  0.00000000000E+00 0. -1.
        -12    1    3    3    0    0 -0.57526961018E+02  0.41351372549E+02 -0.65077125608E+03  0.65461631128E+03  0.00000000000E+00 0.  1.
          5    1    4    4  501    0  0.74317097996E+02 -0.87036627859E+02 -0.69725504098E+02  0.13408028925E+03  0.41800000000E+01 0. -1.
         -5    1    4    4    0  501 -0.25839965072E+01  0.32369162445E+02 -0.56112381036E+02  0.64965463293E+02  0.41800000000E+01 0. -1.
</event>
<event>
11    1  0.8039394E-009  0.1426526E+03  0.7561462E-02  0.1104632E+00
         22   -1    0    0    0    0  0.00000000000E+00  0.00000000000E+00  0.71978618461E+03  0.71978618461E+03  0.00000000000E+00 0.  1.
         22   -1    0    0    0    0 -0.00000000000E+00 -0.00000000000E+00 -0.16134751230E+03  0.16134751230E+03  0.00000000000E+00 0.  1.
         24    2    1    2    0    0 -0.59320704787E+01  0.65729429792E+02 -0.71357796741E+02  0.12439785859E+03  0.77635975328E+02 0.  0.
         25    2    1    2    0    0 -0.57701146309E+02 -0.87389175335E+02  0.54775738688E+02  0.17208828725E+03  0.12509079426E+03 0.  0.
        -24    2    1    2    0    0  0.63633216788E+02  0.21659745542E+02  0.57502073036E+03  0.58464755106E+03  0.81520474487E+02 0.  0.
        -13    1    3    3    0    0 -0.21344018429E+02  0.76669130158E+02 -0.69037558705E+02  0.10535609690E+03  0.00000000000E+00 0.  1.
         14    1    3    3    0    0  0.15411947951E+02 -0.10939700366E+02 -0.23202380361E+01  0.19041761691E+02  0.00000000000E+00 0. -1.
         11    1    5    5    0    0  0.13605285823E+02  0.23187219307E+02  0.46117783519E+02  0.53381653199E+02  0.00000000000E+00 0. -1.
        -12    1    5    5    0    0  0.50027930964E+02 -0.15274737648E+01  0.52890294685E+03  0.53126589787E+03  0.00000000000E+00 0.  1.
          5    1    4    4  501    0 -0.47059037197E+01 -0.72596990103E+02  0.82718188351E+02  0.11023719692E+03  0.41800000000E+01 0. -1.
         -5    1    4    4    0  501 -0.52995242589E+02 -0.14792185232E+02 -0.27942449663E+02  0.61851090323E+02  0.41800000000E+01 0. -1.
</event>
<event>
11    1  0.8039394E-009  0.1698816E+03  0.7561462E-02  0.1078135E+00
         22   -1    0    0    0    0  0.00000000000E+00  0.00000000000E+00  0.79508490455E+02  0.79508490455E+02  0.00000000000E+00 0.  1.
         22   -1    0    0    0    0 -0.00000000000E+00 -0.00000000000E+00 -0.22082064640E+04  0.22082064640E+04  0.00000000000E+00 0.  1.
         24    2    1    2    0    0  0.26504848034E+02  0.14611857962E+02 -0.16684566919E+04  0.16706609009E+04  0.80275150010E+02 0.  0.
         25    2    1    2    0    0 -0.29166233216E+02  0.10268476805E+03 -0.42794300057E+03  0.45845162771E+03  0.12509137644E+03 0.  0.
        -24    2    1    2    0    0  0.26613851817E+01 -0.11729662601E+03 -0.32298281094E+02  0.15860242586E+03  0.10171513694E+03 0.  0.
        -11    1    3    3    0    0 -0.45135214448E+01 -0.21179676867E+02 -0.11064983087E+04  0.11067101959E+04  0.00000000000E+00 0.  1.
         12    1    3    3    0    0  0.31018369479E+02  0.35791534829E+02 -0.56195838316E+03  0.56395070496E+03  0.00000000000E+00 0. -1.
         11    1    5    5    0    0 -0.17909999095E+02 -0.11245807902E+03  0.68853938717E+01  0.11408328647E+03  0.00000000000E+00 0. -1.
        -12    1    5    5    0    0  0.20571384277E+02 -0.48385469914E+01 -0.39183674966E+02  0.44519139388E+02  0.00000000000E+00 0.  1.
          5    1    4    4  501    0  0.27101736895E+02  0.10117538646E+03 -0.23284862707E+03  0.25535645380E+03  0.41800000000E+01 0. -1.
         -5    1    4    4    0  501 -0.56267970111E+02  0.15093815860E+01 -0.19509437350E+03  0.20309517391E+03  0.41800000000E+01 0. -1.
</event>
<event>
11    1  0.8039394E-009  0.1446316E+03  0.7561462E-02  0.1102494E+00
         22   -1    0    0    0    0  0.00000000000E+00  0.00000000000E+00  0.17805797653E+03  0.17805797653E+03  0.00000000000E+00 0. -1.
         22   -1    0    0    0    0 -0.00000000000E+00 -0.00000000000E+00 -0.17092571885E+04  0.17092571885E+04  0.00000000000E+00 0. -1.
        -24    2    1    2    0    0 -0.23063089925E+02  0.46551579692E+02 -0.13263270270E+04  0.13297688860E+04  0.80268000438E+02 0.  0.
         25    2    1    2    0    0 -0.44947459237E+02 -0.15991350819E+02 -0.35015611656E+03  0.37487481376E+03  0.12508326282E+03 0.  0.
         24    2    1    2    0    0  0.68010549162E+02 -0.30560228873E+02  0.14528393165E+03  0.18267146522E+03  0.81866238614E+02 0.  0.
        -11    1    5    5    0    0  0.59257253478E+02 -0.53591288096E+02  0.80757573958E+02  0.11360120598E+03  0.00000000000E+00 0.  1.
         12    1    5    5    0    0  0.87532956838E+01  0.23031059223E+02  0.64526357690E+02  0.69070259236E+02  0.00000000000E+00 0. -1.
         13    1    3    3    0    0 -0.23543702837E+02  0.32736027198E+02 -0.12937741361E+04  0.12944023596E+04  0.00000000000E+00 0. -1.
        -14    1    3    3    0    0  0.48061291213E+00  0.13815552493E+02 -0.32552890945E+02  0.35366526382E+02  0.00000000000E+00 0.  1.
          5    1    4    4  501    0 -0.56388712891E+02 -0.61801385291E+02 -0.18558908335E+03  0.20361698953E+03  0.41800000000E+01 0. -1.
         -5    1    4    4    0  501  0.11441253654E+02  0.45810034472E+02 -0.16456703320E+03  0.17125782423E+03  0.41800000000E+01 0. -1.
</event>
<event>
11    1  0.8039394E-009  0.1315009E+03  0.7561462E-02  0.1117438E+00
         22   -1    0    0    0    0  0.00000000000E+00  0.00000000000E+00  0.32875481359E+03  0.32875481359E+03  0.00000000000E+00 0. -1.
         22   -1    0    0    0    0 -0.00000000000E+00 -0.00000000000E+00 -0.22221024072E+04  0.22221024072E+04  0.00000000000E+00 0.  1.
        -24    2    1    2    0    0 -0.38907084208E+02 -0.90670086294E+00 -0.18232919360E+04  0.18254150338E+04  0.78942881378E+02 0.  0.
         25    2    1    2    0    0  0.59788035470E+02 -0.31422807465E+02 -0.37917783493E+03  0.40495428894E+03  0.12510053403E+03 0.  0.
         24    2    1    2    0    0 -0.20880951263E+02  0.32329508327E+02  0.30912217733E+03  0.32048789803E+03  0.75331009747E+02 0.  0.
        -13    1    5    5    0    0 -0.28534079576E+02 -0.13144064232E+02  0.66819880677E+02  0.73836688546E+02  0.00000000000E+00 0.  1.
         14    1    5    5    0    0  0.76531283139E+01  0.45473572560E+02  0.24230229665E+03  0.24665120948E+03  0.00000000000E+00 0. -1.
         11    1    3    3    0    0 -0.45197677706E+02  0.12736015239E+01 -0.48420810797E+03  0.48631465530E+03  0.00000000000E+00 0. -1.
        -12    1    3    3    0    0  0.62905934981E+01 -0.21803023868E+01 -0.13390838280E+04  0.13391003785E+04  0.00000000000E+00 0.  1.
          5    1    4    4  501    0  0.32606317803E+02 -0.22753371606E+02 -0.37341452909E+03  0.37554862643E+03  0.41800000000E+01 0. -1.
         -5    1    4    4    0  501  0.27181717668E+02 -0.86694358581E+01 -0.57633058438E+01  0.29405662511E+02  0.41800000000E+01 0. -1.
</event>
<event>
11    1  0.8039394E-009  0.1330814E+03  0.7561462E-02  0.1115540E+00
         22   -1    0    0    0    0  0.00000000000E+00  0.00000000000E+00  0.89655702455E+03  0.89655702455E+03  0.00000000000E+00 0. -1.
         22   -1    0    0    0    0 -0.00000000000E+00 -0.00000000000E+00 -0.16472810390E+03  0.16472810390E+03  0.00000000000E+00 0.  1.
         24    2    1    2    0    0  0.89543512722E+01  0.42979117596E+02 -0.12444168544E+03  0.15574596852E+03  0.82726589905E+02 0.  0.
         25    2    1    2    0    0 -0.47384342254E+02 -0.60897499236E+02  0.23225758598E+03  0.27485450201E+03  0.12509048615E+03 0.  0.
        -24    2    1    2    0    0  0.38429990982E+02  0.17918381639E+02  0.62401302011E+03  0.63068465793E+03  0.81073768086E+02 0.  0.
        -11    1    3    3    0    0  0.39234744517E+02  0.48988557938E+02 -0.84905038799E+02  0.10558460873E+03  0.00000000000E+00 0.  1.
         12    1    3    3    0    0 -0.30280393245E+02 -0.60094403422E+01 -0.39536646643E+02  0.50161359791E+02  0.00000000000E+00 0. -1.
         13    1    5    5    0    0  0.18815293342E+01 -0.97034585786E+01  0.46750487844E+03  0.46760935472E+03  0.00000000000E+00 0. -1.
        -14    1    5    5    0    0  0.36548461648E+02  0.27621840218E+02  0.15650814167E+03  0.16307530320E+03  0.00000000000E+00 0.  1.
          5    1    4    4  501    0 -0.71346053853E+01  0.29184383358E+02  0.12679980279E+03  0.13037750272E+03  0.41800000000E+01 0. -1.
         -5    1    4    4    0  501 -0.40249736869E+02 -0.90081882593E+02  0.10545778319E+03  0.14447699929E+03  0.41800000000E+01 0. -1.
</event>
<event>
11    1  0.8920286E-009  0.2438465E+03  0.7561462E-02  0.1027229E+00
         22   -1    0    0    0    0  0.00000000000E+00  0.00000000000E+00  0.13323855647E+04  0.13323855647E+04  0.00000000000E+00 0. -1.
         22   -1    0    0    0    0 -0.00000000000E+00 -0.00000000000E+00 -0.11033373245E+04  0.11033373245E+04  0.00000000000E+00 0.  1.
        -24    2    1    2    0    0  0.13994607362E+03 -0.13719251718E+03 -0.65160279089E+03  0.68513108083E+03  0.80073157360E+02 0.  0.
         25    2    1    2    0    0 -0.22574139186E+03  0.11631733002E+03 -0.38581849841E+03  0.47853198053E+03  0.12509214769E+03 0.  0.
         24    2    1    2    0    0  0.85795318233E+02  0.20875187156E+02  0.12664695295E+04  0.12720598278E+04  0.79965782711E+02 0.  0.
        -11    1    5    5    0    0 -0.15114863581E+02  0.44330877424E+01  0.11765714622E+03  0.11870684658E+03  0.00000000000E+00 0.  1.
         12    1    5    5    0    0  0.10091018181E+03  0.16442099414E+02  0.11488123833E+04  0.11533529813E+04  0.00000000000E+00 0. -1.
         11    1    3    3    0    0 -0.10069689398E+02 -0.78377139388E+01 -0.26852710094E+02  0.29730395957E+02  0.00000000000E+00 0. -1.
        -12    1    3    3    0    0  0.15001576302E+03 -0.12935480324E+03 -0.62475008080E+03  0.65540068488E+03  0.00000000000E+00 0.  1.
          5    1    4    4  501    0 -0.36353666326E+02  0.75754822475E+01 -0.26303635341E+01  0.37461556280E+02  0.41800000000E+01 0.  1.
         -5    1    4    4    0  501 -0.18938772553E+03  0.10874184778E+03 -0.38318813487E+03  0.44107042425E+03  0.41800000000E+01 0.  1.
</event>
<event>
11    1  0.8039394E-009  0.1400227E+03  0.7561462E-02  0.1107533E+00
         22   -1    0    0    0    0  0.00000000000E+00  0.00000000000E+00  0.17805277122E+03  0.17805277122E+03  0.00000000000E+00 0.  1.
         22   -1    0    0    0    0 -0.00000000000E+00 -0.00000000000E+00 -0.76356569988E+03  0.76356569988E+03  0.00000000000E+00 0. -1.
        -24    2    1    2    0    0 -0.29948529552E+02 -0.53508967513E+02 -0.52815240646E+03  0.53777892171E+03  0.80629276102E+02 0.  0.
         25    2    1    2    0    0  0.71396209880E+02  0.39565023886E+02 -0.18713879408E+03  0.23943640323E+03  0.12508418382E+03 0.  0.
         24    2    1    2    0    0 -0.41447680328E+02  0.13943943627E+02  0.12977827189E+03  0.16440314616E+03  0.90959611061E+02 0.  0.
        -13    1    5    5    0    0 -0.62080889771E+02  0.35136949415E+02  0.90544508111E+02  0.11526903330E+03  0.00000000000E+00 0.  1.
         14    1    5    5    0    0  0.20633209444E+02 -0.21193005788E+02  0.39233763776E+02  0.49134112858E+02  0.00000000000E+00 0. -1.
         11    1    3    3    0    0 -0.24622824146E+01 -0.52947623484E+02 -0.47489887326E+03  0.47784773044E+03  0.00000000000E+00 0. -1.
        -12    1    3    3    0    0 -0.27486247137E+02 -0.56134402903E+00 -0.53253533201E+02  0.59931191271E+02  0.00000000000E+00 0.  1.
          5    1    4    4  501    0 -0.14229907932E+02 -0.72620124956E+00 -0.12560627615E+03  0.12648093396E+03  0.41800000000E+01 0.  1.
         -5    1    4    4    0  501  0.85626117811E+02  0.40291225135E+02 -0.61532517932E+02  0.11295546927E+03  0.41800000000E+01 0.  1.
</event>
<event>
11    1  0.8039394E-009  0.1402849E+03  0.7561462E-02  0.1107241E+00
         22   -1    0    0    0    0  0.00000000000E+00  0.00000000000E+00  0.21856658860E+04  0.21856658860E+04  0.00000000000E+00 0.  1.
         22   -1    0    0    0    0 -0.00000000000E+00 -0.00000000000E+00 -0.49859459109E+03  0.49859459109E+03  0.00000000000E+00 0.  1.
        -24    2    1    2    0    0 -0.42534012075E+02  0.54871836169E+02 -0.45053198995E+03  0.46352128776E+03  0.83981245841E+02 0.  0.
         25    2    1    2    0    0 -0.20329878794E+02 -0.69701843187E+02  0.91069182040E+02  0.17091775143E+03  0.12509049094E+03 0.  0.
         24    2    1    2    0    0  0.62863890869E+02  0.14830007018E+02  0.20465341028E+04  0.20498214379E+04  0.96406926026E+02 0.  0.
        -11    1    5    5    0    0  0.60678272764E+01  0.83474248342E+01  0.15458660766E+04  0.15459005223E+04  0.00000000000E+00 0.  1.
         12    1    5    5    0    0  0.56796063592E+02  0.64825821840E+01  0.50066802616E+03  0.50392091556E+03  0.00000000000E+00 0. -1.
         13    1    3    3    0    0 -0.11344558197E+02 -0.22671699525E+02 -0.10953504662E+03  0.11243056256E+03  0.00000000000E+00 0. -1.
        -14    1    3    3    0    0 -0.31189453879E+02  0.77543535694E+02 -0.34099694333E+03  0.35109072520E+03  0.00000000000E+00 0.  1.
          5    1    4    4  501    0 -0.48673197043E+02  0.14533019562E+02  0.54791794108E+02  0.74832492071E+02  0.41800000000E+01 0. -1.
         -5    1    4    4    0  501  0.28343318249E+02 -0.84234862749E+02  0.36277387932E+02  0.96085259363E+02  0.41800000000E+01 0. -1.
</event>
<event>
11    1  0.8039394E-009  0.1473494E+03  0.7561462E-02  0.1099618E+00
         22   -1    0    0    0    0  0.00000000000E+00  0.00000000000E+00  0.75711778753E+03  0.75711778753E+03  0.00000000000E+00 0. -1.
         22   -1    0    0    0    0 -0.00000000000E+00 -0.00000000000E+00 -0.70895847274E+03  0.70895847274E+03  0.00000000000E+00 0.  1.
        -24    2    1    2    0    0 -0.30875284233E+02 -0.10541790358E+02 -0.51439316101E+03  0.52166558291E+03  0.80437825565E+02 0.  0.
         25    2    1    2    0    0  0.67936483331E+02 -0.57823635980E+02 -0.15466990061E+03  0.21800275847E+03  0.12507392175E+03 0.  0.
         24    2    1    2    0    0 -0.37061199098E+02  0.68365426338E+02  0.71722237641E+03  0.72640791889E+03  0.84930344395E+02 0.  0.
        -11    1    5    5    0    0 -0.23554797449E+02  0.30922635715E+02  0.91422106003E+02  0.99343038752E+02  0.00000000000E+00 0.  1.
         12    1    5    5    0    0 -0.13506401650E+02  0.37442790623E+02  0.62580027041E+03  0.62706488013E+03  0.00000000000E+00 0. -1.
         13    1    3    3    0    0 -0.40514467115E+02 -0.28027483306E+02 -0.17832387017E+03  0.18500368790E+03  0.00000000000E+00 0. -1.
        -14    1    3    3    0    0  0.96391828826E+01  0.17485692948E+02 -0.33606929084E+03  0.33666189501E+03  0.00000000000E+00 0.  1.
          5    1    4    4  501    0  0.80756711616E+02  0.42706284517E+01 -0.48849857346E+02  0.94570955907E+02  0.41800000000E+01 0. -1.
         -5    1    4    4    0  501 -0.12820228285E+02 -0.62094264432E+02 -0.10582004326E+03  0.12343180257E+03  0.41800000000E+01 0. -1.
</event>
<event>
11    1  0.8039394E-009  0.1388544E+03  0.7561462E-02  0.1108844E+00
         22   -1    0    0    0    0  0.00000000000E+00  0.00000000000E+00  0.14010416171E+03  0.14010416171E+03  0.00000000000E+00 0.  1.
         22   -1    0    0    0    0 -0.00000000000E+00 -0.00000000000E+00 -0.11084335177E+04  0.11084335177E+04  0.00000000000E+00 0. -1.
         24    2    1    2    0    0 -0.41536420624E+01  0.27675502104E+01 -0.89431687430E+03  0.89797605931E+03  0.80829569765E+02 0.  0.
         25    2    1    2    0    0  0.50877069201E+02 -0.39997980929E+02 -0.16354201799E+03  0.21582892900E+03  0.12509124789E+03 0.  0.
        -24    2    1    2    0    0 -0.46723427139E+02  0.37230430718E+02  0.89529536322E+02  0.13473269107E+03  0.81044287608E+02 0.  0.
        -11    1    3    3    0    0 -0.18371039563E+02 -0.84577685262E+01 -0.57322295646E+02  0.60785479526E+02  0.00000000000E+00 0.  1.
         12    1    3    3    0    0  0.14217397501E+02  0.11225318737E+02 -0.83699457866E+03  0.83719057978E+03  0.00000000000E+00 0. -1.
         13    1    5    5    0    0  0.20232572662E+02  0.11014260268E+02  0.46692873388E+01  0.23504747819E+02  0.00000000000E+00 0. -1.
        -14    1    5    5    0    0 -0.66955999801E+02  0.26216170451E+02  0.84860248983E+02  0.11122794325E+03  0.00000000000E+00 0.  1.
          5    1    4    4  501    0  0.21311456396E+02 -0.14828567945E+02 -0.17353660442E+03  0.17551777709E+03  0.41800000000E+01 0.  1.
         -5    1    4    4    0  501  0.29565612806E+02 -0.25169412983E+02  0.99945864356E+01  0.40311151913E+02  0.41800000000E+01 0.  1.
</event>
<event>
11    1  0.8039394E-009  0.2912819E+03  0.7561462E-02  0.1003950E+00
         22   -1    0    0    0    0  0.00000000000E+00  0.00000000000E+00  0.12375901792E+03  0.12375901792E+03  0.00000000000E+00 0.  1.
         22   -1    0    0    0    0 -0.00000000000E+00 -0.00000000000E+00 -0.19013039414E+04  0.19013039414E+04  0.00000000000E+00 0.  1.
         24    2    1    2    0    0 -0.10604691693E+03 -0.22524843256E+03 -0.90027025276E+03  0.93741418026E+03  0.79221287565E+02 0.  0.
         25    2    1    2    0    0  0.92943106681E+02  0.26718249903E+03 -0.93121690753E+03  0.98124219131E+03  0.12508557175E+03 0.  0.
        -24    2    1    2    0    0  0.13103810245E+02 -0.41934066470E+02  0.53942236782E+02  0.10640658778E+03  0.80513484834E+02 0.  0.
        -11    1    3    3    0    0 -0.61452307004E+02 -0.18976625738E+03 -0.76611809924E+03  0.79165937148E+03  0.00000000000E+00 0.  1.
         12    1    3    3    0    0 -0.44594609921E+02 -0.35482175178E+02 -0.13415215352E+03  0.14575480878E+03  0.00000000000E+00 0. -1.
         13    1    5    5    0    0 -0.12863719221E+02  0.20330857492E+02  0.17318994105E+02  0.29643997628E+02  0.00000000000E+00 0. -1.
        -14    1    5    5    0    0  0.25967529465E+02 -0.62264923962E+02  0.36623242676E+02  0.76762590151E+02  0.00000000000E+00 0.  1.
          5    1    4    4  501    0  0.73938562697E+02  0.24995447243E+03 -0.91303723728E+03  0.94952547012E+03  0.41800000000E+01 0. -1.
         -5    1    4    4    0  501  0.19004543984E+02  0.17228026600E+02 -0.18179670252E+02  0.31716721190E+02  0.41800000000E+01 0. -1.
</event>
<event>
11    1  0.8039394E-009  0.1989041E+03  0.7561462E-02  0.1055301E+00
         22   -1    0    0    0    0  0.00000000000E+00  0.00000000000E+00  0.80176497939E+03  0.80176497939E+03  0.00000000000E+00 0.  1.
         22   -1    0    0    0    0 -0.00000000000E+00 -0.00000000000E+00 -0.83247177117E+03  0.83247177117E+03  0.00000000000E+00 0.  1.
        -24    2    1    2    0    0  0.13051777250E+03 -0.80058775878E+02 -0.77335648123E+03  0.79267888518E+03  0.82554657118E+02 0.  0.
         25    2    1    2    0    0 -0.21126219368E+03  0.11872922990E+03  0.51867561301E+03  0.58600353315E+03  0.12508958718E+03 0.  0.
         24    2    1    2    0    0  0.80744421178E+02 -0.38670454026E+02  0.22397407644E+03  0.25555433223E+03  0.84430825179E+02 0.  0.
        -13    1    5    5    0    0  0.51228002562E+02  0.21872799969E+02  0.10061188959E+03  0.11500208673E+03  0.00000000000E+00 0.  1.
         14    1    5    5    0    0  0.29516418617E+02 -0.60543253996E+02  0.12336218685E+03  0.14055224550E+03  0.00000000000E+00 0. -1.
         11    1    3    3    0    0  0.22383059989E+01 -0.11463620883E+02 -0.93906053170E+01  0.14986930497E+02  0.00000000000E+00 0. -1.
        -12    1    3    3    0    0  0.12827946651E+03 -0.68595154994E+02 -0.76396587592E+03  0.77769195468E+03  0.00000000000E+00 0.  1.
          5    1    4    4  501    0 -0.12054659373E+03  0.29054116440E+01  0.17961759547E+03  0.21637900933E+03  0.41800000000E+01 0.  1.
         -5    1    4    4    0  501 -0.90715599955E+02  0.11582381826E+03  0.33905801754E+03  0.36962452382E+03  0.41800000000E+01 0.  1.
</event>
<event>
11    1  0.8039394E-009  0.6202586E+03  0.7561462E-02  0.9158843E-01
         22   -1    0    0    0    0  0.00000000000E+00  0.00000000000E+00  0.14914064620E+04  0.14914064620E+04  0.00000000000E+00 0.  1.
         22   -1    0    0    0    0 -0.00000000000E+00 -0.00000000000E+00 -0.94886067335E+03  0.94886067335E+03  0.00000000000E+00 0. -1.
         24    2    1    2    0    0 -0.42656280438E+03  0.40067935896E+03 -0.63415546338E+03  0.86581548170E+03  0.70594063738E+02 0.  0.
         25    2    1    2    0    0  0.53480220476E+03 -0.57080211488E+03  0.72711004533E+03  0.10752521221E+04  0.12509858305E+03 0.  0.
        -24    2    1    2    0    0 -0.10823940038E+03  0.17012275591E+03  0.44959120673E+03  0.49919953158E+03  0.80064969177E+02 0.  0.
        -13    1    3    3    0    0 -0.11633619897E+03  0.14982947075E+03 -0.18321815413E+03  0.26372689188E+03  0.00000000000E+00 0.  1.
         14    1    3    3    0    0 -0.31022660541E+03  0.25084988821E+03 -0.45093730925E+03  0.60208858982E+03  0.00000000000E+00 0. -1.
         13    1    5    5    0    0  0.12712215742E+02  0.18234350552E+02  0.36174045477E+02  0.42457667568E+02  0.00000000000E+00 0. -1.
        -14    1    5    5    0    0 -0.12095161612E+03  0.15188840536E+03  0.41341716125E+03  0.45674186401E+03  0.00000000000E+00 0.  1.
          5    1    4    4  501    0  0.33763966867E+03 -0.39916053974E+03  0.55368136116E+03  0.76151835463E+03  0.41800000000E+01 0.  1.
         -5    1    4    4    0  501  0.19716253609E+03 -0.17164157513E+03  0.17342868417E+03  0.31373376746E+03  0.41800000000E+01 0.  1.
</event>
<event>
11    1  0.8039394E-009  0.1838918E+03  0.7561462E-02  0.1066538E+00
         22   -1    0    0    0    0  0.00000000000E+00  0.00000000000E+00  0.16876921661E+04  0.16876921661E+04  0.00000000000E+00 0. -1.
         22   -1    0    0    0    0 -0.00000000000E+00 -0.00000000000E+00 -0.10154976796E+04  0.10154976796E+04  0.00000000000E+00 0.  1.
         24    2    1    2    0    0  0.68144365608E+02  0.15063804522E+03 -0.97515561477E+03  0.99236881644E+03  0.80820291939E+02 0.  0.
         25    2    1    2    0    0  0.95170522557E+01 -0.34618655041E+02  0.12618303613E+03  0.18126788856E+03  0.12508742245E+03 0.  0.
        -24    2    1    2    0    0 -0.77661417863E+02 -0.11601939018E+03  0.15211670652E+04  0.15295531407E+04  0.78049825417E+02 0.  0.
        -13    1    3    3    0    0  0.45407008851E+02  0.15323439269E+03 -0.80805303508E+03  0.82370643014E+03  0.00000000000E+00 0.  1.
         14    1    3    3    0    0  0.22737356757E+02 -0.25963474605E+01 -0.16710257969E+03  0.16866238629E+03  0.00000000000E+00 0. -1.
         11    1    5    5    0    0 -0.58443878964E+02 -0.20232935297E+02  0.64364629119E+03  0.64661086197E+03  0.00000000000E+00 0. -1.
        -12    1    5    5    0    0 -0.19217538900E+02 -0.95786454887E+02  0.87752077397E+03  0.88294227869E+03  0.00000000000E+00 0.  1.
          5    1    4    4  501    0  0.14176501585E+02 -0.39409262403E+02  0.15020243715E+03  0.15598816521E+03  0.41800000000E+01 0. -1.
         -5    1    4    4    0  501 -0.46594493297E+01  0.47906073619E+01 -0.24019401023E+02  0.25279723346E+02  0.41800000000E+01 0. -1.
</event>
<event>
11    1  0.8039394E-009  0.1565077E+03  0.7561462E-02  0.1090409E+00
         22   -1    0    0    0    0  0.00000000000E+00  0.00000000000E+00  0.63264890466E+03  0.63264890466E+03  0.00000000000E+00 0. -1.
         22   -1    0    0    0    0 -0.00000000000E+00 -0.00000000000E+00 -0.12560142343E+04  0.12560142343E+04  0.00000000000E+00 0.  1.
        -24    2    1    2    0    0  0.73118039944E+02 -0.58421354072E+02 -0.11725656031E+04  0.11790338017E+04  0.80320045015E+02 0.  0.
         25    2    1    2    0    0 -0.11485515443E+03  0.28857988650E+02  0.21818439205E+02  0.17363281563E+03  0.12509124816E+03 0.  0.
         24    2    1    2    0    0  0.41737114488E+02  0.29563365423E+02  0.52738183426E+03  0.53599652161E+03  0.80899275506E+02 0.  0.
        -13    1    5    5    0    0 -0.24025341215E+02  0.14902720851E+02  0.16486704971E+03  0.16727358485E+03  0.00000000000E+00 0.  1.
         14    1    5    5    0    0  0.65762455702E+02  0.14660644571E+02  0.36251478455E+03  0.36872293676E+03  0.00000000000E+00 0. -1.
         11    1    3    3    0    0  0.52478055599E+02 -0.16860909822E+02 -0.28651218883E+03  0.29176612371E+03  0.00000000000E+00 0. -1.
        -12    1    3    3    0    0  0.20639984344E+02 -0.41560444251E+02 -0.88605341427E+03  0.88726767800E+03  0.00000000000E+00 0.  1.
          5    1    4    4  501    0 -0.54930904739E+02  0.74023712220E+02 -0.83456659042E+01  0.92650077202E+02  0.41800000000E+01 0. -1.
         -5    1    4    4    0  501 -0.59924249693E+02 -0.45165723570E+02  0.30164105109E+02  0.80982738431E+02  0.41800000000E+01 0. -1.
</event>
<event>
11    1  0.8039394E-009  0.1286936E+03  0.7561462E-02  0.1120885E+00
         22   -1    0    0    0    0  0.00000000000E+00  0.00000000000E+00  0.25141218588E+04  0.25141218588E+04  0.00000000000E+00 0. -1.
         22   -1    0    0    0    0 -0.00000000000E+00 -0.00000000000E+00 -0.10759291602E+03  0.10759291602E+03  0.00000000000E+00 0. -1.
        -24    2    1    2    0    0 -0.18674869395E+02 -0.23903517174E+02 -0.72109564252E+02  0.11227527405E+03  0.80534582794E+02 0.  0.
         25    2    1    2    0    0  0.31145000550E+02  0.12981961194E+02  0.27220306210E+03  0.30145889688E+03  0.12507764434E+03 0.  0.
         24    2    1    2    0    0 -0.12470131155E+02  0.10921555980E+02  0.22064354449E+04  0.22079806039E+04  0.80908528383E+02 0.  0.
        -13    1    5    5    0    0  0.12436244676E+02  0.25014255429E+02  0.29243470377E+03  0.29376594275E+03  0.00000000000E+00 0.  1.
         14    1    5    5    0    0 -0.24906375831E+02 -0.14092699449E+02  0.19140007411E+04  0.19142146611E+04  0.00000000000E+00 0. -1.
         11    1    3    3    0    0  0.29740707249E+02 -0.21576474966E+02 -0.38955600748E+02  0.53549909143E+02  0.00000000000E+00 0. -1.
        -12    1    3    3    0    0 -0.48415576644E+02 -0.23270422086E+01 -0.33153963504E+02  0.58725364905E+02  0.00000000000E+00 0.  1.
          5    1    4    4  501    0  0.19638228222E+02 -0.28856311597E+02  0.25014516703E+03  0.25260329316E+03  0.41800000000E+01 0.  1.
         -5    1    4    4    0  501  0.11506772328E+02  0.41838272791E+02  0.22057895068E+02  0.48855603715E+02  0.41800000000E+01 0.  1.
</event>
<event>
11    1  0.8039394E-009  0.2290694E+03  0.7561462E-02  0.1035680E+00
         22   -1    0    0    0    0  0.00000000000E+00  0.00000000000E+00  0.60676144865E+03  0.60676144865E+03  0.00000000000E+00 0.  1.
         22   -1    0    0    0    0 -0.00000000000E+00 -0.00000000000E+00 -0.89286116108E+03  0.89286116108E+03  0.00000000000E+00 0. -1.
        -24    2    1    2    0    0  0.18665561208E+03 -0.10318770700E+02 -0.52211808896E+03  0.56036664751E+03  0.80353508164E+02 0.  0.
         25    2    1    2    0    0 -0.20301594921E+03 -0.54976447684E+02 -0.30115289998E+03  0.38804483391E+03  0.12509132071E+03 0.  0.
         24    2    1    2    0    0  0.16360337132E+02  0.65295218384E+02  0.53717127652E+03  0.55121112832E+03  0.10368028499E+03 0.  0.
        -11    1    5    5    0    0  0.40653254027E+02 -0.11121675066E+02  0.22447600319E+03  0.22839845605E+03  0.00000000000E+00 0.  1.
         12    1    5    5    0    0 -0.24292916895E+02  0.76416893450E+02  0.31269527333E+03  0.32281267227E+03  0.00000000000E+00 0. -1.
         13    1    3    3    0    0  0.17752321138E+03 -0.72940312946E+01 -0.39777520271E+03  0.43565216098E+03  0.00000000000E+00 0. -1.
        -14    1    3    3    0    0  0.91324006997E+01 -0.30247394053E+01 -0.12434288625E+03  0.12471448654E+03  0.00000000000E+00 0.  1.
          5    1    4    4  501    0 -0.21513289419E+03 -0.31119200852E+02 -0.27276432650E+03  0.34881000134E+03  0.41800000000E+01 0. -1.
         -5    1    4    4    0  501  0.12116944977E+02 -0.23857246831E+02 -0.28388573484E+02  0.39234832565E+02  0.41800000000E+01 0. -1.
</event>
<event>
11    1  0.8039394E-009  0.5678630E+03  0.7561462E-02  0.9253483E-01
         22   -1    0    0    0    0  0.00000000000E+00  0.00000000000E+00  0.25304023810E+03  0.25304023810E+03  0.00000000000E+00 0.  1.
         22   -1    0    0    0    0 -0.00000000000E+00 -0.00000000000E+00 -0.19085122338E+04  0.19085122338E+04  0.00000000000E+00 0.  1.
        -24    2    1    2    0    0 -0.43058995516E+03 -0.34907334639E+03 -0.12829522180E+04  0.13998874268E+04  0.80364815420E+02 0.  0.
         25    2    1    2    0    0  0.41870207269E+03  0.36134599567E+03 -0.37283879135E+03  0.67863025590E+03  0.12509158891E+03 0.  0.
         24    2    1    2    0    0  0.11887882464E+02 -0.12272649282E+02  0.31901361521E+00  0.83034789174E+02  0.81257213671E+02 0.  0.
        -13    1    5    5    0    0 -0.13187028459E+02  0.27212767245E+02 -0.15079484557E+02  0.33790875621E+02  0.00000000000E+00 0.  1.
         14    1    5    5    0    0  0.25074910923E+02 -0.39485416527E+02  0.15398498172E+02  0.49243913554E+02  0.00000000000E+00 0. -1.
         11    1    3    3    0    0 -0.32341455409E+03 -0.21738669670E+03 -0.92363913952E+03  0.10024785333E+04  0.00000000000E+00 0. -1.
        -12    1    3    3    0    0 -0.10717540107E+03 -0.13168664969E+03 -0.35931307845E+03  0.39740889352E+03  0.00000000000E+00 0.  1.
          5    1    4    4  501    0 -0.34566186874E+01  0.29359319518E+02 -0.22604819980E+02  0.37448206120E+02  0.41800000000E+01 0. -1.
         -5    1    4    4    0  501  0.42215869138E+03  0.33198667615E+03 -0.35023397137E+03  0.64118204978E+03  0.41800000000E+01 0. -1.
</event>
<event>
11    1  0.1075264E-008  0.1500948E+03  0.7561462E-02  0.1096782E+00
         22   -1    0    0    0    0  0.00000000000E+00  0.00000000000E+00  0.75195202270E+03  0.75195202270E+03  0.00000000000E+00 0. -1.
         22   -1    0    0    0    0 -0.00000000000E+00 -0.00000000000E+00 -0.44823046032E+03  0.44823046032E+03  0.00000000000E+00 0.  1.
        -24    2    1    2    0    0 -0.61213569525E+02  0.26622009667E+02 -0.31957336454E+03  0.33642495493E+03  0.81232890406E+02 0.  0.
         25    2    1    2    0    0 -0.21357179000E+01 -0.81895540587E+02 -0.66895442335E+02  0.16381235840E+03  0.12509215683E+03 0.  0.
         24    2    1    2    0    0  0.63349287425E+02  0.55273530920E+02  0.69019036925E+03  0.69994516970E+03  0.80574185334E+02 0.  0.
        -11    1    5    5    0    0  0.33338647527E+02  0.42539940077E+02  0.16257295659E+03  0.17132156355E+03  0.00000000000E+00 0.  1.
         12    1    5    5    0    0  0.30010639898E+02  0.12733590843E+02  0.52761741266E+03  0.52862360615E+03  0.00000000000E+00 0. -1.
         11    1    3    3    0    0 -0.46823387823E+02 -0.14083266745E+02 -0.86291847864E+02  0.99181908920E+02  0.00000000000E+00 0. -1.
        -12    1    3    3    0    0 -0.14390181702E+02  0.40705276412E+02 -0.23328151668E+03  0.23724304601E+03  0.00000000000E+00 0.  1.
          5    1    4    4  501    0 -0.33425094650E+02  0.19715287279E+02 -0.17880720914E+01  0.39071717477E+02  0.41800000000E+01 0.  1.
         -5    1    4    4    0  501  0.31289376750E+02 -0.10161082787E+03 -0.65107370243E+02  0.12474064092E+03  0.41800000000E+01 0.  1.
</event>
<event>
11    1  0.8039394E-009  0.1411217E+03  0.7561462E-02  0.1106312E+00
         22   -1    0    0    0    0  0.00000000000E+00  0.00000000000E+00  0.29817867040E+03  0.29817867040E+03  0.00000000000E+00 0. -1.
         22   -1    0    0    0    0 -0.00000000000E+00 -0.00000000000E+00 -0.34531181129E+03  0.34531181129E+03  0.00000000000E+00 0.  1.
         24    2    1    2    0    0 -0.35652391886E+02 -0.17178602678E+02 -0.24183622901E+03  0.25750341150E+03  0.79101503373E+02 0.  0.
         25    2    1    2    0    0  0.71001467050E+01 -0.45615407285E+02 -0.30943467473E+02  0.13688098006E+03  0.12509087520E+03 0.  0.
        -24    2    1    2    0    0  0.28552245181E+02  0.62794009963E+02  0.22564655559E+03  0.24910609013E+03  0.79869629394E+02 0.  0.
        -11    1    3    3    0    0 -0.40616807849E+02 -0.27615335763E+02 -0.24095804296E+03  0.24591281039E+03  0.00000000000E+00 0.  1.
         12    1    3    3    0    0  0.49644159627E+01  0.10436733086E+02 -0.87818605386E+00  0.11590601110E+02  0.00000000000E+00 0. -1.
         13    1    5    5    0    0  0.35073281903E+02  0.57066013582E+02  0.22988661408E+03  0.23944627862E+03  0.00000000000E+00 0. -1.
        -14    1    5    5    0    0 -0.65210367219E+01  0.57279963801E+01 -0.42400584935E+01  0.96598115140E+01  0.00000000000E+00 0.  1.
          5    1    4    4  501    0  0.24292749225E+01 -0.87230647398E+02 -0.36005174653E+02  0.94493027382E+02  0.41800000000E+01 0.  1.
         -5    1    4    4    0  501  0.46708717825E+01  0.41615240113E+02  0.50617071800E+01  0.42387952680E+02  0.41800000000E+01 0.  1.
</event>
<event>
11    1  0.8039394E-009  0.2287972E+03  0.7561462E-02  0.1035842E+00
         22   -1    0    0    0    0  0.00000000000E+00  0.00000000000E+00  0.78658963881E+03  0.78658963881E+03  0.00000000000E+00 0. -1.
         22   -1    0    0    0    0 -0.00000000000E+00 -0.00000000000E+00 -0.58958182930E+03  0.58958182930E+03  0.00000000000E+00 0. -1.
        -24    2    1    2    0    0 -0.58462926688E+02  0.17656180782E+03 -0.42873597356E+03  0.47429689062E+03  0.80938369409E+02 0.  0.
         25    2    1    2    0    0  0.63198417353E+02 -0.21163963918E+03 -0.15890551006E+02  0.25433413422E+03  0.12509182783E+03 0.  0.
         24    2    1    2    0    0 -0.47354906645E+01  0.35077831358E+02  0.64163433408E+03  0.64754044328E+03  0.79756679261E+02 0.  0.
        -11    1    5    5    0    0  0.15926455652E+02  0.51056594164E+02  0.28666812350E+03  0.29161454152E+03  0.00000000000E+00 0.  1.
         12    1    5    5    0    0 -0.20661946317E+02 -0.15978762806E+02  0.35496621059E+03  0.35592590176E+03  0.00000000000E+00 0. -1.
         11    1    3    3    0    0 -0.48428800830E+02  0.49056168486E+02 -0.20869235000E+03  0.21978251378E+03  0.00000000000E+00 0. -1.
        -12    1    3    3    0    0 -0.10034125858E+02  0.12750563933E+03 -0.22004362357E+03  0.25451437684E+03  0.00000000000E+00 0.  1.
          5    1    4    4  501    0 -0.15555681946E+02 -0.10164389646E+03 -0.50496307983E+02  0.11463337406E+03  0.41800000000E+01 0.  1.
         -5    1    4    4    0  501  0.78754099299E+02 -0.10999574272E+03  0.34605756978E+02  0.13970076016E+03  0.41800000000E+01 0.  1.
</event>
<event>
11    1  0.8039394E-009  0.1681387E+03  0.7561462E-02  0.1079663E+00
         22   -1    0    0    0    0  0.00000000000E+00  0.00000000000E+00  0.98103370006E+03  0.98103370006E+03  0.00000000000E+00 0. -1.
         22   -1    0    0    0    0 -0.00000000000E+00 -0.00000000000E+00 -0.59069474190E+03  0.59069474190E+03  0.00000000000E+00 0. -1.
        -24    2    1    2    0    0  0.11169674931E+03  0.17431712371E+02 -0.55974372844E+03  0.57655474290E+03  0.79512902277E+02 0.  0.
         25    2    1    2    0    0 -0.88723769478E+02 -0.11082239473E+01  0.27554894752E+03  0.31535384226E+03  0.12509071876E+03 0.  0.
         24    2    1    2    0    0 -0.22972979836E+02 -0.16323488423E+02  0.67453373908E+03  0.67981985680E+03  0.79781316538E+02 0.  0.
        -11    1    5    5    0    0 -0.36231373941E+02  0.20248578849E+02  0.24135091990E+03  0.24489382176E+03  0.00000000000E+00 0.  1.
         12    1    5    5    0    0  0.13258394105E+02 -0.36572067272E+02  0.43318281918E+03  0.43492603504E+03  0.00000000000E+00 0. -1.
         11    1    3    3    0    0  0.95566095208E+02  0.19961302490E+02 -0.54752590787E+03  0.55616180374E+03  0.00000000000E+00 0. -1.
        -12    1    3    3    0    0  0.16130654106E+02 -0.25295901189E+01 -0.12217820569E+02  0.20392939158E+02  0.00000000000E+00 0.  1.
          5    1    4    4  501    0  0.19073948500E+02 -0.20151851678E+02  0.13115557978E+02  0.30974229587E+02  0.41800000000E+01 0.  1.
         -5    1    4    4    0  501 -0.10779771798E+03  0.19043627731E+02  0.26243338954E+03  0.28437961267E+03  0.41800000000E+01 0.  1.
</event>
<event>
11    1  0.8039394E-009  0.2166638E+03  0.7561462E-02  0.1043328E+00
         22   -1    0    0    0    0  0.00000000000E+00  0.00000000000E+00  0.11633151754E+04  0.11633151754E+04  0.00000000000E+00 0. -1.
         22   -1    0    0    0    0 -0.00000000000E+00 -0.00000000000E+00 -0.15117859750E+04  0.15117859750E+04  0.00000000000E+00 0. -1.
        -24    2    1    2    0    0  0.88779723675E+02 -0.14113367392E+03 -0.13269747609E+04  0.13392597608E+04  0.70385635577E+02 0.  0.
         25    2    1    2    0    0 -0.14470576483E+03  0.30021351362E+03  0.17228707259E+02  0.35638810600E+03  0.12509093335E+03 0.  0.
         24    2    1    2    0    0  0.55926041151E+02 -0.15907983970E+03  0.96127525410E+03  0.97945328353E+03  0.82731511503E+02 0.  0.
        -13    1    5    5    0    0 -0.11668336822E+02 -0.23721968889E+02  0.59981631092E+02  0.65549050036E+02  0.00000000000E+00 0.  1.
         14    1    5    5    0    0  0.67594377973E+02 -0.13535787081E+03  0.90129362301E+03  0.91390423350E+03  0.00000000000E+00 0. -1.
         13    1    3    3    0    0  0.49504051828E+02 -0.11324939330E+03 -0.11177188598E+04  0.11245316918E+04  0.00000000000E+00 0. -1.
        -14    1    3    3    0    0  0.39275671847E+02 -0.27884280616E+02 -0.20925590110E+03  0.21472806908E+03  0.00000000000E+00 0.  1.
          5    1    4    4  501    0  0.95761613450E+01  0.39256737168E+01  0.19311854951E+02  0.22305468430E+02  0.41800000000E+01 0. -1.
         -5    1    4    4    0  501 -0.15428192617E+03  0.29628783991E+03 -0.20831476925E+01  0.33408263757E+03  0.41800000000E+01 0. -1.
</event>
<event>
11    1  0.8039394E-009  0.1436193E+03  0.7561462E-02  0.1103583E+00
         22   -1    0    0    0    0  0.00000000000E+00  0.00000000000E+00  0.52698917333E+03  0.52698917333E+03  0.00000000000E+00 0. -1.
         22   -1    0    0    0    0 -0.00000000000E+00 -0.00000000000E+00 -0.89656412298E+03  0.89656412298E+03  0.00000000000E+00 0. -1.
        -24    2    1    2    0    0 -0.45866489368E+01  0.20104286118E+02 -0.78277071201E+03  0.78722639195E+03  0.81056677279E+02 0.  0.
         25    2    1    2    0    0  0.73718198086E+02 -0.31887564055E+02 -0.53198446418E+02  0.15788828658E+03  0.12508975525E+03 0.  0.
         24    2    1    2    0    0 -0.69131549150E+02  0.11783277936E+02  0.46639420878E+03  0.47843861778E+03  0.80386169683E+02 0.  0.
        -13    1    5    5    0    0 -0.53790361368E+02  0.23462400034E+02  0.14442326141E+03  0.15589087730E+03  0.00000000000E+00 0.  1.
         14    1    5    5    0    0 -0.15341187782E+02 -0.11679122098E+02  0.32197094737E+03  0.32254774048E+03  0.00000000000E+00 0. -1.
         13    1    3    3    0    0 -0.35888562017E+02  0.73654331003E+01 -0.61474973200E+03  0.61584045944E+03  0.00000000000E+00 0. -1.
        -14    1    3    3    0    0  0.31301913080E+02  0.12738853018E+02 -0.16802098001E+03  0.17138593251E+03  0.00000000000E+00 0.  1.
          5    1    4    4  501    0  0.73005306621E+02 -0.37977729809E+02 -0.89022552348E+02  0.12130362725E+03  0.41800000000E+01 0.  1.
         -5    1    4    4    0  501  0.71289146515E+00  0.60901657540E+01  0.35824105930E+02  0.36584659338E+02  0.41800000000E+01 0.  1.
</event>
<event>
11    1  0.8039394E-009  0.1350631E+03  0.7561462E-02  0.1113200E+00
         22   -1    0    0    0    0  0.00000000000E+00  0.00000000000E+00  0.74379893285E+03  0.74379893285E+03  0.00000000000E+00 0.  1.
         22   -1    0    0    0    0 -0.00000000000E+00 -0.00000000000E+00 -0.11153629632E+04  0.11153629632E+04  0.00000000000E+00 0.  1.
         24    2    1    2    0    0  0.15864171707E+02 -0.48480060435E+02 -0.10927271447E+04  0.10968115475E+04  0.79630206017E+02 0.  0.
         25    2    1    2    0    0 -0.35982759008E+02  0.32125185271E+02  0.24988510941E+03  0.28357815498E+03  0.12508883084E+03 0.  0.
        -24    2    1    2    0    0  0.20118587301E+02  0.16354875163E+02  0.47127800492E+03  0.47877219361E+03  0.80297048235E+02 0.  0.
        -11    1    3    3    0    0 -0.28723951743E+02 -0.49922819027E+01 -0.49232213448E+03  0.49318462302E+03  0.00000000000E+00 0.  1.
         12    1    3    3    0    0  0.44588123450E+02 -0.43487778532E+02 -0.60040501023E+03  0.60362692447E+03  0.00000000000E+00 0. -1.
         13    1    5    5    0    0  0.10910227011E+02 -0.15285092315E+02  0.24941555900E+02  0.31220959486E+02  0.00000000000E+00 0. -1.
        -14    1    5    5    0    0  0.92083602900E+01  0.31639967478E+02  0.44633644902E+03  0.44755123413E+03  0.00000000000E+00 0.  1.
          5    1    4    4  501    0 -0.14729495959E+02 -0.58176909647E+01 -0.10563740076E+02  0.19490217643E+02  0.41800000000E+01 0.  1.
         -5    1    4    4    0  501 -0.21253263048E+02  0.37942876236E+02  0.26044884949E+03  0.26408793734E+03  0.41800000000E+01 0.  1.
</event>
<event>
11    1  0.8039394E-009  0.1485761E+03  0.7561462E-02  0.1098343E+00
         22   -1    0    0    0    0  0.00000000000E+00  0.00000000000E+00  0.68466612683E+03  0.68466612683E+03  0.00000000000E+00 0.  1.
         22   -1    0    0    0    0 -0.00000000000E+00 -0.00000000000E+00 -0.11945891286E+03  0.11945891286E+03  0.00000000000E+00 0. -1.
         24    2    1    2    0    0  0.76771325049E+02  0.15946718308E+02 -0.43994725125E+02  0.12273801401E+03  0.83552079979E+02 0.  0.
         25    2    1    2    0    0 -0.91754057855E+02  0.10347652584E+02  0.15660547759E+03  0.22067657552E+03  0.12508794636E+03 0.  0.
        -24    2    1    2    0    0  0.14982732807E+02 -0.26294370892E+02  0.45259646150E+03  0.46071045016E+03  0.80589612889E+02 0.  0.
        -11    1    3    3    0    0 -0.55359657142E+01  0.11556473346E+02  0.16213271144E+02  0.20665651545E+02  0.00000000000E+00 0.  1.
         12    1    3    3    0    0  0.82307290763E+02  0.43902449620E+01 -0.60207996270E+02  0.10207236246E+03  0.00000000000E+00 0. -1.
         11    1    5    5    0    0  0.29505148382E+02 -0.28923878451E+01  0.57848385861E+02  0.65002734059E+02  0.00000000000E+00 0. -1.
        -12    1    5    5    0    0 -0.14522415575E+02 -0.23401983047E+02  0.39474807564E+03  0.39570771610E+03  0.00000000000E+00 0.  1.
          5    1    4    4  501    0 -0.66791622704E+02 -0.41757201616E+02  0.35644896820E+02  0.86561052555E+02  0.41800000000E+01 0.  1.
         -5    1    4    4    0  501 -0.24962435152E+02  0.52104854200E+02  0.12096058078E+03  0.13411552297E+03  0.41800000000E+01 0.  1.
</event>
<event>
11    1  0.8039394E-009  0.1339173E+03  0.7561462E-02  0.1114547E+00
         22   -1    0    0    0    0  0.00000000000E+00  0.00000000000E+00  0.17098766109E+03  0.17098766109E+03  0.00000000000E+00 0.  1.
         22   -1    0    0    0    0 -0.00000000000E+00 -0.00000000000E+00 -0.87354981809E+03  0.87354981809E+03  0.00000000000E+00 0. -1.
         24    2    1    2    0    0 -0.46252718441E+02 -0.83618156499E+01 -0.53814655055E+03  0.54625335919E+03  0.81128223388E+02 0.  0.
         25    2    1    2    0    0  0.13435771648E+02 -0.28591489055E+02 -0.30367189982E+03  0.32994249977E+03  0.12508971665E+03 0.  0.
        -24    2    1    2    0    0  0.32816946792E+02  0.36953304705E+02  0.13925629337E+03  0.16834162023E+03  0.80647920818E+02 0.  0.
        -13    1    3    3    0    0  0.19086940846E+02  0.14576362057E+02 -0.11539589383E+03  0.11786854523E+03  0.00000000000E+00 0.  1.
         14    1    3    3    0    0 -0.65339659287E+02 -0.22938177707E+02 -0.42275065672E+03  0.42838481396E+03  0.00000000000E+00 0. -1.
         13    1    5    5    0    0  0.13972116748E+01  0.56078187992E+02  0.67999506738E+02  0.88151280680E+02  0.00000000000E+00 0. -1.
        -14    1    5    5    0    0  0.31419735117E+02 -0.19124883287E+02  0.71256786632E+02  0.80190339547E+02  0.00000000000E+00 0.  1.
          5    1    4    4  501    0 -0.54050100570E+02 -0.26812883910E+01 -0.99982659203E+02  0.11376558012E+03  0.41800000000E+01 0. -1.
         -5    1    4    4    0  501  0.67485872218E+02 -0.25910200664E+02 -0.20368924061E+03  0.21617691965E+03  0.41800000000E+01 0. -1.
</event>
<event>
11    1  0.8039394E-009  0.1310490E+03  0.7561462E-02  0.1117987E+00
         22   -1    0    0    0    0  0.00000000000E+00  0.00000000000E+00  0.60294153330E+03  0.60294153330E+03  0.00000000000E+00 0.  1.
         22   -1    0    0    0    0 -0.00000000000E+00 -0.00000000000E+00 -0.98070714617E+03  0.98070714617E+03  0.00000000000E+00 0. -1.
        -24    2    1    2    0    0 -0.15800488666E+02  0.21136172568E+02 -0.84416753858E+03  0.84829130774E+03  0.79264849539E+02 0.  0.
         25    2    1    2    0    0  0.23372933583E+02  0.17650349361E+02 -0.99552538452E+02  0.16252992933E+03  0.12508973242E+03 0.  0.
         24    2    1    2    0    0 -0.75724449172E+01 -0.38786521929E+02  0.56595446416E+03  0.57282744240E+03  0.79152302931E+02 0.  0.
        -11    1    5    5    0    0  0.24878697866E+02 -0.45631415350E+02  0.41694650294E+03  0.42017325235E+03  0.00000000000E+00 0.  1.
         12    1    5    5    0    0 -0.32451142783E+02  0.68448934218E+01  0.14900796122E+03  0.15265419006E+03  0.00000000000E+00 0. -1.
         11    1    3    3    0    0 -0.13954287048E+02  0.41261767178E+02 -0.77522141020E+03  0.77644413217E+03  0.00000000000E+00 0. -1.
        -12    1    3    3    0    0 -0.18462016175E+01 -0.20125594610E+02 -0.68946128379E+02  0.71847175569E+02  0.00000000000E+00 0.  1.
          5    1    4    4  501    0 -0.10002381904E+02 -0.47428481871E+02 -0.15561412157E+02  0.51079726748E+02  0.41800000000E+01 0.  1.
         -5    1    4    4    0  501  0.33375315487E+02  0.65078831232E+02 -0.83991126295E+02  0.11145020258E+03  0.41800000000E+01 0.  1.
</event>
<event>
11    1  0.8039394E-009  0.2297687E+03  0.7561462E-02  0.1035265E+00
         22   -1    0    0    0    0  0.00000000000E+00  0.00000000000E+00  0.79629205004E+03  0.79629205004E+03  0.00000000000E+00 0. -1.
         22   -1    0    0    0    0 -0.00000000000E+00 -0.00000000000E+00 -0.11130644307E+04  0.11130644307E+04  0.00000000000E+00 0.  1.
         24    2    1    2    0    0 -0.27245951856E+02 -0.19066245197E+03 -0.10664821136E+04  0.10867042716E+04  0.80296717305E+02 0.  0.
         25    2    1    2    0    0  0.69715186711E+02  0.19081798252E+03  0.44965630471E+03  0.50903028254E+03  0.12509726802E+03 0.  0.
        -24    2    1    2    0    0 -0.42469234855E+02 -0.15553054823E+00  0.30005342825E+03  0.31362192657E+03  0.80765047640E+02 0.  0.
        -11    1    3    3    0    0 -0.13883929502E+02 -0.82113391026E+02 -0.67883699042E+03  0.68392618903E+03  0.00000000000E+00 0.  1.
         12    1    3    3    0    0 -0.13362022354E+02 -0.10854906094E+03 -0.38764512316E+03  0.40277808255E+03  0.00000000000E+00 0. -1.
         11    1    5    5    0    0 -0.58647071075E+02  0.15663385820E+02  0.26526986051E+03  0.27212666076E+03  0.00000000000E+00 0. -1.
        -12    1    5    5    0    0  0.16177836220E+02 -0.15818916368E+02  0.34783567745E+02  0.41495265813E+02  0.00000000000E+00 0.  1.
          5    1    4    4  501    0  0.43096610743E+02  0.86593881145E+02  0.34709410442E+03  0.36034373566E+03  0.41800000000E+01 0.  1.
         -5    1    4    4    0  501  0.26618575969E+02  0.10422410137E+03  0.10256220029E+03  0.14868654688E+03  0.41800000000E+01 0.  1.
</event>
<event>
11    1  0.8039394E-009  0.1436011E+03  0.7561462E-02  0.1103603E+00
         22   -1    0    0    0    0  0.00000000000E+00  0.00000000000E+00  0.45916224482E+03  0.45916224482E+03  0.00000000000E+00 0. -1.
         22   -1    0    0    0    0 -0.00000000000E+00 -0.00000000000E+00 -0.11798172566E+04  0.11798172566E+04  0.00000000000E+00 0.  1.
        -24    2    1    2    0    0 -0.30478112825E+01 -0.59523309072E+01 -0.95996154359E+03  0.96331226565E+03  0.79997728619E+02 0.  0.
         25    2    1    2    0    0  0.54105892863E+02  0.54311428597E+02 -0.18594916491E+03  0.23685949032E+03  0.12509255497E+03 0.  0.
         24    2    1    2    0    0 -0.51058081581E+02 -0.48359097690E+02  0.42525569670E+03  0.43880774546E+03  0.82245363845E+02 0.  0.
        -11    1    5    5    0    0  0.27513286279E+01 -0.23007522161E+02  0.24730431288E+02  0.33889675668E+02  0.00000000000E+00 0.  1.
         12    1    5    5    0    0 -0.53809410209E+02 -0.25351575529E+02  0.40052526541E+03  0.40491806979E+03  0.00000000000E+00 0. -1.
         11    1    3    3    0    0 -0.25331704221E+02  0.40217153620E+01 -0.10811023258E+03  0.11111116875E+03  0.00000000000E+00 0. -1.
        -12    1    3    3    0    0  0.22283892938E+02 -0.99740462691E+01 -0.85185131101E+03  0.85220109690E+03  0.00000000000E+00 0.  1.
          5    1    4    4  501    0 -0.22204951670E+02 -0.69088462886E+01  0.32223507279E+01  0.23846341017E+02  0.41800000000E+01 0. -1.
         -5    1    4    4    0  501  0.76310844533E+02  0.61220274886E+02 -0.18917151563E+03  0.21301314931E+03  0.41800000000E+01 0. -1.
</event>
<event>
11    1  0.8039394E-009  0.1718772E+03  0.7561462E-02  0.1076410E+00
         22   -1    0    0    0    0  0.00000000000E+00  0.00000000000E+00  0.17918052170E+04  0.17918052170E+04  0.00000000000E+00 0.  1.
         22   -1    0    0    0    0 -0.00000000000E+00 -0.00000000000E+00 -0.11370731963E+03  0.11370731963E+03  0.00000000000E+00 0.  1.
         24    2    1    2    0    0  0.35342295362E+02 -0.11835294240E+03 -0.45306121906E+02  0.15266437716E+03  0.77442046429E+02 0.  0.
         25    2    1    2    0    0  0.18584257876E+02  0.79365756805E+02  0.42876133781E+03  0.45401290511E+03  0.12508850951E+03 0.  0.
        -24    2    1    2    0    0 -0.53926553238E+02  0.38987185593E+02  0.12946426815E+04  0.12988352544E+04  0.80282448265E+02 0.  0.
        -13    1    3    3    0    0  0.26176239828E+02 -0.12500166867E+03 -0.53725927554E+02  0.13855355641E+03  0.00000000000E+00 0.  1.
         14    1    3    3    0    0  0.91660555342E+01  0.66487262717E+01  0.84198056479E+01  0.14110820750E+02  0.00000000000E+00 0. -1.
         13    1    5    5    0    0 -0.25163329239E+02  0.18514614717E+02  0.13161829649E+03  0.13527512730E+03  0.00000000000E+00 0. -1.
        -14    1    5    5    0    0 -0.28763223999E+02  0.20472570876E+02  0.11630243850E+04  0.11635601271E+04  0.00000000000E+00 0.  1.
          5    1    4    4  501    0  0.17873328810E+02  0.81475273003E+02  0.43678386391E+03  0.44469685424E+03  0.41800000000E+01 0.  1.
         -5    1    4    4    0  501  0.71092906566E+00 -0.21095161979E+01 -0.80225261049E+01  0.93160508709E+01  0.41800000000E+01 0.  1.
</event>
<event>
11    1  0.8039394E-009  0.1433783E+03  0.7561462E-02  0.1103844E+00
         22   -1    0    0    0    0  0.00000000000E+00  0.00000000000E+00  0.34497565864E+03  0.34497565864E+03  0.00000000000E+00 0. -1.
         22   -1    0    0    0    0 -0.00000000000E+00 -0.00000000000E+00 -0.22865306830E+03  0.22865306830E+03  0.00000000000E+00 0.  1.
         24    2    1    2    0    0  0.21658816084E+02 -0.20276057043E+02 -0.82971957617E+02  0.12057989150E+03  0.82310033892E+02 0.  0.
         25    2    1    2    0    0  0.49596022626E+02  0.10110570809E+02 -0.77610296528E+02  0.15568698369E+03  0.12511230819E+03 0.  0.
        -24    2    1    2    0    0 -0.71254838711E+02  0.10165486234E+02  0.27690484449E+03  0.29736185175E+03  0.81038193628E+02 0.  0.
        -13    1    3    3    0    0  0.31917891500E+01 -0.45237006841E+02 -0.76395095453E+02  0.88841346878E+02  0.00000000000E+00 0.  1.
         14    1    3    3    0    0  0.18467026934E+02  0.24960949798E+02 -0.65768621643E+01  0.31738544619E+02  0.00000000000E+00 0. -1.
         11    1    5    5    0    0 -0.18969864876E+02 -0.26445366025E+02  0.16806027884E+03  0.17118256477E+03  0.00000000000E+00 0. -1.
        -12    1    5    5    0    0 -0.52284973834E+02  0.36610852259E+02  0.10884456564E+03  0.12617928698E+03  0.00000000000E+00 0.  1.
          5    1    4    4  501    0  0.25977418218E+02 -0.54811097914E+02 -0.15620715603E+02  0.62773894795E+02  0.41800000000E+01 0. -1.
         -5    1    4    4    0  501  0.23618604408E+02  0.64921668723E+02 -0.61989580925E+02  0.92913088890E+02  0.41800000000E+01 0. -1.
</event>
<event>
11    1  0.8039394E-009  0.1283844E+03  0.7561462E-02  0.1121270E+00
         22   -1    0    0    0    0  0.00000000000E+00  0.00000000000E+00  0.39371420637E+03  0.39371420637E+03  0.00000000000E+00 0.  1.
         22   -1    0    0    0    0 -0.00000000000E+00 -0.00000000000E+00 -0.13644354650E+03  0.13644354650E+03  0.00000000000E+00 0. -1.
         24    2    1    2    0    0 -0.72404455495E+01  0.12047000591E+02 -0.66094103090E+02  0.10508612144E+03  0.80480483230E+02 0.  0.
         25    2    1    2    0    0 -0.19454586313E+02  0.25899391283E+01  0.46237204457E+02  0.13479981532E+03  0.12509165608E+03 0.  0.
        -24    2    1    2    0    0  0.26695031862E+02 -0.14636939719E+02  0.27712755851E+03  0.29027181611E+03  0.80815708960E+02 0.  0.
        -13    1    3    3    0    0 -0.10374692101E+02 -0.95593533351E+01  0.15302115934E+02  0.20812741877E+02  0.00000000000E+00 0.  1.
         14    1    3    3    0    0  0.31342465513E+01  0.21606353926E+02 -0.81396219024E+02  0.84273379562E+02  0.00000000000E+00 0. -1.
         11    1    5    5    0    0  0.20922102673E+02 -0.15582938944E+02  0.19480722270E+02  0.32558576544E+02  0.00000000000E+00 0. -1.
        -12    1    5    5    0    0  0.57729291890E+01  0.94599922475E+00  0.25764683624E+03  0.25771323957E+03  0.00000000000E+00 0.  1.
          5    1    4    4  501    0 -0.29955139195E+02 -0.16211331103E+02  0.84216950196E+02  0.90940006161E+02  0.41800000000E+01 0. -1.
         -5    1    4    4    0  501  0.10500552882E+02  0.18801270231E+02 -0.37979745739E+02  0.43859809160E+02  0.41800000000E+01 0. -1.
</event>
<event>
11    1  0.8039394E-009  0.2279714E+03  0.7561462E-02  0.1036336E+00
         22   -1    0    0    0    0  0.00000000000E+00  0.00000000000E+00  0.45918665125E+03  0.45918665125E+03  0.00000000000E+00 0.  1.
         22   -1    0    0    0    0 -0.00000000000E+00 -0.00000000000E+00 -0.92921248380E+03  0.92921248380E+03  0.00000000000E+00 0.  1.
         24    2    1    2    0    0 -0.42130741802E+02 -0.19049670977E+03 -0.77843555706E+03  0.80703070605E+03  0.85279822767E+02 0.  0.
         25    2    1    2    0    0 -0.36062172512E+01  0.16812056408E+03 -0.46208406244E+02  0.21462032019E+03  0.12509650740E+03 0.  0.
        -24    2    1    2    0    0  0.45736959053E+02  0.22376145698E+02  0.35461813076E+03  0.36674810881E+03  0.78470346875E+02 0.  0.
        -13    1    3    3    0    0 -0.39964810967E+02 -0.93864634595E+02 -0.54345136922E+03  0.55294407172E+03  0.00000000000E+00 0.  1.
         14    1    3    3    0    0 -0.21659308349E+01 -0.96632075178E+02 -0.23498418784E+03  0.25408663433E+03  0.00000000000E+00 0. -1.
         13    1    5    5    0    0 -0.65387306158E+01  0.21147094511E+02  0.26677127734E+02  0.34664445018E+02  0.00000000000E+00 0. -1.
        -14    1    5    5    0    0  0.52275689669E+02  0.12290511871E+01  0.32794100302E+03  0.33208366380E+03  0.00000000000E+00 0.  1.
          5    1    4    4  501    0 -0.30559734956E+02  0.67145768302E+02 -0.75865428020E+02  0.10590319717E+03  0.41800000000E+01 0.  1.
         -5    1    4    4    0  501  0.26953517705E+02  0.10097479577E+03  0.29657021776E+02  0.10871712302E+03  0.41800000000E+01 0.  1.
</event>
<event>
11    1  0.8039394E-009  0.1399354E+03  0.7561462E-02  0.1107631E+00
         22   -1    0    0    0    0  0.00000000000E+00  0.00000000000E+00  0.23017147366E+03  0.23017147366E+03  0.00000000000E+00 0.  1.
         22   -1    0    0    0    0 -0.00000000000E+00 -0.00000000000E+00 -0.11947398859E+04  0.11947398859E+04  0.00000000000E+00 0. -1.
         24    2    1    2    0    0  0.22383789187E+02  0.55349328510E+02 -0.99592054775E+03  0.10008924775E+04  0.79771121794E+02 0.  0.
         25    2    1    2    0    0 -0.82894278814E+02 -0.42156621366E+02 -0.15014037097E+03  0.21642172128E+03  0.12509032042E+03 0.  0.
        -24    2    1    2    0    0  0.60510489627E+02 -0.13192707144E+02  0.18149250648E+03  0.20759716080E+03  0.79507763069E+02 0.  0.
        -13    1    3    3    0    0 -0.45413504728E+01  0.28814979121E+02 -0.99821917474E+02  0.10399683694E+03  0.00000000000E+00 0.  1.
         14    1    3    3    0    0  0.26925139660E+02  0.26534349389E+02 -0.89609863027E+03  0.89689564054E+03  0.00000000000E+00 0. -1.
         13    1    5    5    0    0  0.15445253326E+02  0.32597607678E+02  0.55941731739E+02  0.66563031982E+02  0.00000000000E+00 0. -1.
        -14    1    5    5    0    0  0.45065236300E+02 -0.45790314821E+02  0.12555077474E+03  0.14103412882E+03  0.00000000000E+00 0.  1.
          5    1    4    4  501    0 -0.60842131311E+02  0.36637436619E+02 -0.49602046847E+02  0.86728900350E+02  0.41800000000E+01 0.  1.
         -5    1    4    4    0  501 -0.22052147503E+02 -0.78794057986E+02 -0.10053832412E+03  0.12969282093E+03  0.41800000000E+01 0.  1.
</event>
<event>
11    1  0.8039394E-009  0.1596728E+03  0.7561462E-02  0.1087385E+00
         22   -1    0    0    0    0  0.00000000000E+00  0.00000000000E+00  0.10202373214E+04  0.10202373214E+04  0.00000000000E+00 0. -1.
         22   -1    0    0    0    0 -0.00000000000E+00 -0.00000000000E+00 -0.28059842419E+03  0.28059842419E+03  0.00000000000E+00 0.  1.
        -24    2    1    2    0    0  0.89715858845E+01  0.66556941641E+02 -0.24523050748E+03  0.26642719148E+03  0.79593534459E+02 0.  0.
         25    2    1    2    0    0  0.45618235025E+02  0.35143167235E+02  0.24052275123E+03  0.27715618121E+03  0.12509312272E+03 0.  0.
         24    2    1    2    0    0 -0.54589820910E+02 -0.10170010888E+03  0.74434665349E+03  0.75725237292E+03  0.77821944426E+02 0.  0.
        -13    1    5    5    0    0 -0.50328595648E+02 -0.15235462647E+02  0.27097624902E+03  0.27603118374E+03  0.00000000000E+00 0.  1.
         14    1    5    5    0    0 -0.42612252618E+01 -0.86464646229E+02  0.47337040447E+03  0.48122118918E+03  0.00000000000E+00 0. -1.
         13    1    3    3    0    0 -0.74488664667E+01  0.25461139548E+02 -0.12142628038E+02  0.29175308985E+02  0.00000000000E+00 0. -1.
        -14    1    3    3    0    0  0.16420452351E+02  0.41095802093E+02 -0.23308787945E+03  0.23725188250E+03  0.00000000000E+00 0.  1.
          5    1    4    4  501    0  0.44015153701E+02  0.49101175714E+02  0.25073267359E+03  0.25929250899E+03  0.41800000000E+01 0.  1.
         -5    1    4    4    0  501  0.16030813244E+01 -0.13958008478E+02 -0.10209922364E+02  0.17863672217E+02  0.41800000000E+01 0.  1.
</event>
<event>
11    1  0.8039394E-009  0.1611087E+03  0.7561462E-02  0.1086039E+00
         22   -1    0    0    0    0  0.00000000000E+00  0.00000000000E+00  0.38009613279E+03  0.38009613279E+03  0.00000000000E+00 0.  1.
         22   -1    0    0    0    0 -0.00000000000E+00 -0.00000000000E+00 -0.19551161294E+03  0.19551161294E+03  0.00000000000E+00 0. -1.
        -24    2    1    2    0    0 -0.44875110320E+02 -0.12922860401E+02 -0.57496639232E+02  0.10929853794E+03  0.80371207691E+02 0.  0.
         25    2    1    2    0    0  0.13738587820E+03  0.35266719075E+02 -0.44906782514E+01  0.18917267325E+03  0.12509002002E+03 0.  0.
         24    2    1    2    0    0 -0.92510767881E+02 -0.22343858674E+02  0.24657183733E+03  0.27713653454E+03  0.83363646867E+02 0.  0.
        -13    1    5    5    0    0 -0.10369156177E+03 -0.32599501123E+01  0.21319462861E+03  0.23709600782E+03  0.00000000000E+00 0.  1.
         14    1    5    5    0    0  0.11180793890E+02 -0.19083908562E+02  0.33377208719E+02  0.40040526718E+02  0.00000000000E+00 0. -1.
         11    1    3    3    0    0 -0.25570212691E+02 -0.42277144537E+02 -0.55211152559E+02  0.74090917758E+02  0.00000000000E+00 0. -1.
        -12    1    3    3    0    0 -0.19304897630E+02  0.29354284136E+02 -0.22854866724E+01  0.35207620183E+02  0.00000000000E+00 0.  1.
          5    1    4    4  501    0  0.17661250412E+02 -0.20392007544E+02  0.41178068262E+02  0.49405054838E+02  0.41800000000E+01 0. -1.
         -5    1    4    4    0  501  0.11972462779E+03  0.55658726619E+02 -0.45668746514E+02  0.13976761841E+03  0.41800000000E+01 0. -1.
</event>
<event>
11    1  0.8039394E-009  0.1467148E+03  0.7561462E-02  0.1100284E+00
         22   -1    0    0    0    0  0.00000000000E+00  0.00000000000E+00  0.13485130904E+03  0.13485130904E+03  0.00000000000E+00 0. -1.
         22   -1    0    0    0    0 -0.00000000000E+00 -0.00000000000E+00 -0.65525422688E+03  0.65525422688E+03  0.00000000000E+00 0.  1.
         24    2    1    2    0    0  0.36572990824E+01  0.20511066849E+02 -0.32134792059E+03  0.33195428580E+03  0.80592072148E+02 0.  0.
         25    2    1    2    0    0  0.73218208967E+02 -0.14575183826E+02 -0.28227664524E+03  0.31764846562E+03  0.12508837339E+03 0.  0.
        -24    2    1    2    0    0 -0.76875508049E+02 -0.59358830234E+01  0.83221647990E+02  0.14050278450E+03  0.82886134627E+02 0.  0.
        -13    1    3    3    0    0 -0.34149105643E+02 -0.59520903027E+01 -0.99725807881E+02  0.10557852790E+03  0.00000000000E+00 0.  1.
         14    1    3    3    0    0  0.37806404725E+02  0.26463157152E+02 -0.22162211271E+03  0.22637575791E+03  0.00000000000E+00 0. -1.
         11    1    5    5    0    0 -0.35979341589E+02  0.74518029858E+01  0.89748865370E+02  0.96978869988E+02  0.00000000000E+00 0. -1.
        -12    1    5    5    0    0 -0.40896166460E+02 -0.13387686009E+02 -0.65272173805E+01  0.43523914513E+02  0.00000000000E+00 0.  1.
          5    1    4    4  501    0 -0.12886258525E+02 -0.36000205139E+02 -0.17096135133E+03  0.17523506064E+03  0.41800000000E+01 0. -1.
         -5    1    4    4    0  501  0.86104467492E+02  0.21425021313E+02 -0.11131529391E+03  0.14241340498E+03  0.41800000000E+01 0. -1.
</event>
<event>
11    1  0.8039394E-009  0.1328485E+03  0.7561462E-02  0.1115818E+00
         22   -1    0    0    0    0  0.00000000000E+00  0.00000000000E+00  0.19084236722E+04  0.19084236722E+04  0.00000000000E+00 0. -1.
         22   -1    0    0    0    0 -0.00000000000E+00 -0.00000000000E+00 -0.53999144995E+02  0.53999144995E+02  0.00000000000E+00 0.  1.
        -24    2    1    2    0    0 -0.19472200854E+02  0.34404075699E+02 -0.18925336624E+01  0.85110837528E+02  0.75348961175E+02 0.  0.
         25    2    1    2    0    0  0.60493154956E+02 -0.21157055436E+02  0.54686581412E+03  0.56463946777E+03  0.12509383329E+03 0.  0.
         24    2    1    2    0    0 -0.41020954102E+02 -0.13247020263E+02  0.13094512467E+04  0.13126725119E+04  0.81168674004E+02 0.  0.
        -11    1    5    5    0    0 -0.23871252730E+01 -0.15067635398E+01  0.23380651854E+00  0.28325551931E+01  0.00000000000E+00 0.  1.
         12    1    5    5    0    0 -0.38633828829E+02 -0.11740256723E+02  0.13092174402E+04  0.13098399567E+04  0.00000000000E+00 0. -1.
         13    1    3    3    0    0  0.51457415674E+00  0.33448264801E+02  0.31650972891E+02  0.46052527507E+02  0.00000000000E+00 0. -1.
        -14    1    3    3    0    0 -0.19986775011E+02  0.95581089820E+00 -0.33543506554E+02  0.39058310021E+02  0.00000000000E+00 0.  1.
          5    1    4    4  501    0 -0.14798600026E+02  0.37997212593E+02  0.11013023969E+03  0.11751139869E+03  0.41800000000E+01 0.  1.
         -5    1    4    4    0  501  0.75291754982E+02 -0.59154268029E+02  0.43673557443E+03  0.44712806909E+03  0.41800000000E+01 0.  1.
</event>
<event>
11    1  0.8039394E-009  0.1391758E+03  0.7561462E-02  0.1108482E+00
         22   -1    0    0    0    0  0.00000000000E+00  0.00000000000E+00  0.11208140470E+04  0.11208140470E+04  0.00000000000E+00 0. -1.
         22   -1    0    0    0    0 -0.00000000000E+00 -0.00000000000E+00 -0.29385150305E+04  0.29385150305E+04  0.00000000000E+00 0. -1.
        -24    2    1    2    0    0  0.78186823549E+02 -0.58309623483E+02 -0.28797807762E+04  0.28831417692E+04  0.99277141976E+02 0.  0.
         25    2    1    2    0    0 -0.28944542864E+02 -0.42748090648E+02  0.34947726726E+02  0.13976479693E+03  0.12509064330E+03 0.  0.
         24    2    1    2    0    0 -0.49242280685E+02  0.10105771413E+03  0.10271320660E+04  0.10364225114E+04  0.80832402620E+02 0.  0.
        -13    1    5    5    0    0 -0.33158350753E+02 -0.22998054596E+01  0.20804244737E+03  0.21068086111E+03  0.00000000000E+00 0.  1.
         14    1    5    5    0    0 -0.16083929932E+02  0.10335751959E+03  0.81908961863E+03  0.82574165028E+03  0.00000000000E+00 0. -1.
         13    1    3    3    0    0  0.10021746065E+03 -0.35320194767E+02 -0.20529516480E+04  0.20556997652E+04  0.00000000000E+00 0. -1.
        -14    1    3    3    0    0 -0.22030637096E+02 -0.22989428716E+02 -0.82682912819E+03  0.82744200403E+03  0.00000000000E+00 0.  1.
          5    1    4    4  501    0 -0.13927525352E+01 -0.56893772511E+02 -0.32327621514E+02  0.65584972538E+02  0.41800000000E+01 0.  1.
         -5    1    4    4    0  501 -0.27551790329E+02  0.14145681863E+02  0.67275348239E+02  0.74179824389E+02  0.41800000000E+01 0.  1.
</event>
<event>
11    1  0.8039394E-009  0.2182980E+03  0.7561462E-02  0.1042289E+00
         22   -1    0    0    0    0  0.00000000000E+00  0.00000000000E+00  0.10176459749E+04  0.10176459749E+04  0.00000000000E+00 0. -1.
         22   -1    0    0    0    0 -0.00000000000E+00 -0.00000000000E+00 -0.12249924050E+04  0.12249924050E+04  0.00000000000E+00 0.  1.
         24    2    1    2    0    0 -0.15505593299E+02  0.16522771550E+02 -0.10398379005E+04  0.10431935945E+04  0.80477268507E+02 0.  0.
         25    2    1    2    0    0  0.82886126843E+02  0.14977456525E+03 -0.10840398757E+03  0.23811982245E+03  0.12508834839E+03 0.  0.
        -24    2    1    2    0    0 -0.67380533544E+02 -0.16629733680E+03  0.94089545802E+03  0.96132496306E+03  0.81648522090E+02 0.  0.
        -13    1    3    3    0    0 -0.25024823457E+02  0.57134537511E+01 -0.10071028606E+04  0.10074299267E+04  0.00000000000E+00 0.  1.
         14    1    3    3    0    0  0.95192301571E+01  0.10809317798E+02 -0.32735039935E+02  0.35763667787E+02  0.00000000000E+00 0. -1.
         13    1    5    5    0    0 -0.59856436584E+02 -0.14724076386E+03  0.91290075316E+03  0.92663391945E+03  0.00000000000E+00 0. -1.
        -14    1    5    5    0    0 -0.75240969592E+01 -0.19056572940E+02  0.27994704858E+02  0.34691043619E+02  0.00000000000E+00 0.  1.
          5    1    4    4  501    0  0.51302690979E+02  0.15542796785E+03 -0.12080031678E+03  0.20346991971E+03  0.41800000000E+01 0. -1.
         -5    1    4    4    0  501  0.31583435864E+02 -0.56534026036E+01  0.12396329211E+02  0.34649902740E+02  0.41800000000E+01 0. -1.
</event>
<event>
11    1  0.8039394E-009  0.1464381E+03  0.7561462E-02  0.1100575E+00
         22   -1    0    0    0    0  0.00000000000E+00  0.00000000000E+00  0.85088597448E+03  0.85088597448E+03  0.00000000000E+00 0.  1.
         22   -1    0    0    0    0 -0.00000000000E+00 -0.00000000000E+00 -0.16042873731E+03  0.16042873731E+03  0.00000000000E+00 0. -1.
         24    2    1    2    0    0  0.60861695643E+02  0.40056659923E+02 -0.87288479178E+02  0.13963642519E+03  0.81057822822E+02 0.  0.
         25    2    1    2    0    0 -0.95793850525E+02 -0.23967817608E+02  0.10113025618E+03  0.18874805820E+03  0.12509029810E+03 0.  0.
        -24    2    1    2    0    0  0.34932154882E+02 -0.16088842315E+02  0.67661546017E+03  0.68293022841E+03  0.84297744007E+02 0.  0.
        -11    1    3    3    0    0 -0.12463163029E+02  0.21177946245E+02 -0.65938956989E+00  0.24581916818E+02  0.00000000000E+00 0.  1.
         12    1    3    3    0    0  0.73324858672E+02  0.18878713677E+02 -0.86629089608E+02  0.11505450837E+03  0.00000000000E+00 0. -1.
         13    1    5    5    0    0  0.49830726994E+02 -0.19280650443E+02  0.23278187001E+03  0.23883518133E+03  0.00000000000E+00 0. -1.
        -14    1    5    5    0    0 -0.14898572112E+02  0.31918081280E+01  0.44383359016E+03  0.44409504708E+03  0.00000000000E+00 0.  1.
          5    1    4    4  501    0 -0.11466066597E+03 -0.78250766903E+01  0.38550678618E+02  0.12129273419E+03  0.41800000000E+01 0.  1.
         -5    1    4    4    0  501  0.18866815443E+02 -0.16142740917E+02  0.62579577563E+02  0.67455324009E+02  0.41800000000E+01 0.  1.
</event>
<event>
11    1  0.8039394E-009  0.1363752E+03  0.7561462E-02  0.1111675E+00
         22   -1    0    0    0    0  0.00000000000E+00  0.00000000000E+00  0.24012190109E+03  0.24012190109E+03  0.00000000000E+00 0. -1.
         22   -1    0    0    0    0 -0.00000000000E+00 -0.00000000000E+00 -0.11888702296E+04  0.11888702296E+04  0.00000000000E+00 0.  1.
         24    2    1    2    0    0  0.54460888317E+02 -0.14583792505E+02 -0.93672998336E+03  0.94179728529E+03  0.79626562793E+02 0.  0.
         25    2    1    2    0    0 -0.43996197232E+02 -0.16069064317E+02 -0.22349999071E+03  0.26037674891E+03  0.12509966159E+03 0.  0.
        -24    2    1    2    0    0 -0.10464691085E+02  0.30652856822E+02  0.21148164556E+03  0.22681809647E+03  0.75318358230E+02 0.  0.
        -13    1    3    3    0    0  0.21275743247E+02  0.21432840015E+02 -0.66526222898E+03  0.66594733815E+03  0.00000000000E+00 0.  1.
         14    1    3    3    0    0  0.33185145070E+02 -0.36016632520E+02 -0.27146775438E+03  0.27584994714E+03  0.00000000000E+00 0. -1.
         11    1    5    5    0    0  0.67687096363E+00  0.10440934606E+02  0.20133516268E+03  0.20160684265E+03  0.00000000000E+00 0. -1.
        -12    1    5    5    0    0 -0.11141562049E+02  0.20211922217E+02  0.10146482880E+02  0.25211253825E+02  0.00000000000E+00 0.  1.
          5    1    4    4  501    0 -0.20037716854E+02 -0.65382437377E+02 -0.17158078693E+03  0.18475338172E+03  0.41800000000E+01 0. -1.
         -5    1    4    4    0  501 -0.23958480378E+02  0.49313373059E+02 -0.51919203778E+02  0.75623367192E+02  0.41800000000E+01 0. -1.
</event>
<event>
11    1  0.8974897E-009  0.2381846E+03  0.7561462E-02  0.1030389E+00
         22   -1    0    0    0    0  0.00000000000E+00  0.00000000000E+00  0.41790944975E+03  0.41790944975E+03  0.00000000000E+00 0.  1.
         22   -1    0    0    0    0 -0.00000000000E+00 -0.00000000000E+00 -0.91790021926E+03  0.91790021926E+03  0.00000000000E+00 0.  1.
         24    2    1    2    0    0  0.28842269748E+02 -0.53414570269E+02 -0.55010708851E+03  0.55921413103E+03  0.80110190787E+02 0.  0.
         25    2    1    2    0    0  0.15427635695E+03 -0.43454229694E+02 -0.29967629562E+03  0.36213731600E+03  0.12509232226E+03 0.  0.
        -24    2    1    2    0    0 -0.18311862670E+03  0.96868799963E+02  0.34979261461E+03  0.41445822199E+03  0.80652022200E+02 0.  0.
        -13    1    3    3    0    0  0.19119606523E+02  0.55013205010E+01 -0.34548437316E+03  0.34605675254E+03  0.00000000000E+00 0.  1.
         14    1    3    3    0    0  0.97226632253E+01 -0.58915890770E+02 -0.20462271535E+03  0.21315737849E+03  0.00000000000E+00 0. -1.
         13    1    5    5    0    0 -0.12976830068E+02 -0.14082848045E+02  0.32271961266E+02  0.37526047109E+02  0.00000000000E+00 0. -1.
        -14    1    5    5    0    0 -0.17014179663E+03  0.11095164801E+03  0.31752065335E+03  0.37693217488E+03  0.00000000000E+00 0.  1.
          5    1    4    4  501    0  0.61421268299E+02 -0.53580616416E+02 -0.50447188585E+02  0.95947099441E+02  0.41800000000E+01 0.  1.
         -5    1    4    4    0  501  0.92855088651E+02  0.10126386722E+02 -0.24922910704E+03  0.26619021656E+03  0.41800000000E+01 0.  1.
</event>
<event>
11    1  0.8039394E-009  0.1800391E+03  0.7561462E-02  0.1069611E+00
         22   -1    0    0    0    0  0.00000000000E+00  0.00000000000E+00  0.20031873235E+04  0.20031873235E+04  0.00000000000E+00 0.  1.
         22   -1    0    0    0    0 -0.00000000000E+00 -0.00000000000E+00 -0.22806599064E+04  0.22806599064E+04  0.00000000000E+00 0.  1.
        -24    2    1    2    0    0 -0.25477381891E+02 -0.10555459027E+03 -0.20284145160E+04  0.20329161676E+04  0.80571875964E+02 0.  0.
         25    2    1    2    0    0  0.13787334233E+03  0.16808238449E+03 -0.18338962831E+03  0.31070777567E+03  0.12508724792E+03 0.  0.
         24    2    1    2    0    0 -0.11239596044E+03 -0.62527794220E+02  0.19343315614E+04  0.19402232866E+04  0.79279478577E+02 0.  0.
        -13    1    5    5    0    0 -0.10150077191E+03 -0.30431334310E+02  0.10716568203E+04  0.10768829154E+04  0.00000000000E+00 0.  1.
         14    1    5    5    0    0 -0.10895188536E+02 -0.32096459910E+02  0.86267474103E+03  0.86334037128E+03  0.00000000000E+00 0. -1.
         11    1    3    3    0    0 -0.44422151635E+02 -0.38236889590E+02 -0.61931242597E+03  0.62207979251E+03  0.00000000000E+00 0. -1.
        -12    1    3    3    0    0  0.18944769744E+02 -0.67317700678E+02 -0.14091020901E+04  0.14108363751E+04  0.00000000000E+00 0.  1.
          5    1    4    4  501    0  0.14640677210E+03  0.10205375760E+03 -0.16085641636E+03  0.24029600795E+03  0.41800000000E+01 0. -1.
         -5    1    4    4    0  501 -0.85334297628E+01  0.66028626892E+02 -0.22533211954E+02  0.70411767722E+02  0.41800000000E+01 0. -1.
</event>
<event>
11    1  0.8039394E-009  0.1305475E+03  0.7561462E-02  0.1118598E+00
         22   -1    0    0    0    0  0.00000000000E+00  0.00000000000E+00  0.16171343106E+02  0.16171343106E+02  0.00000000000E+00 0. -1.
         22   -1    0    0    0    0 -0.00000000000E+00 -0.00000000000E+00 -0.33194579151E+04  0.33194579151E+04  0.00000000000E+00 0.  1.
        -24    2    1    2    0    0  0.93013795088E+01  0.38136001884E+02 -0.19592031129E+04  0.19612611749E+04  0.80794110335E+02 0.  0.
         25    2    1    2    0    0 -0.22064140945E+02 -0.25692948462E+02 -0.12119951494E+04  0.12189042463E+04  0.12509342693E+03 0.  0.
         24    2    1    2    0    0  0.12762761436E+02 -0.12443053422E+02 -0.13208830971E+03  0.15546383707E+03  0.80024780009E+02 0.  0.
        -13    1    5    5    0    0  0.37219428346E+02  0.12986263464E+02 -0.10107246530E+03  0.10848765887E+03  0.00000000000E+00 0.  1.
         14    1    5    5    0    0 -0.24456666909E+02 -0.25429316886E+02 -0.31015844411E+02  0.46976178198E+02  0.00000000000E+00 0. -1.
         11    1    3    3    0    0  0.26001234520E+02  0.26335121948E+02 -0.35426057637E+03  0.35618837547E+03  0.00000000000E+00 0. -1.
        -12    1    3    3    0    0 -0.16699855011E+02  0.11800879936E+02 -0.16049425365E+04  0.16050727994E+04  0.00000000000E+00 0.  1.
          5    1    4    4  501    0 -0.43604694067E+02  0.14373201648E+02 -0.17712910373E+03  0.18303046210E+03  0.41800000000E+01 0. -1.
         -5    1    4    4    0  501  0.21540553122E+02 -0.40066150109E+02 -0.10348660457E+04  0.10358737842E+04  0.41800000000E+01 0. -1.
</event>
<event>
11    1  0.8039394E-009  0.1552368E+03  0.7561462E-02  0.1091645E+00
         22   -1    0    0    0    0  0.00000000000E+00  0.00000000000E+00  0.52660026539E+03  0.52660026539E+03  0.00000000000E+00 0. -1.
         22   -1    0    0    0    0 -0.00000000000E+00 -0.00000000000E+00 -0.12234048982E+04  0.12234048982E+04  0.00000000000E+00 0. -1.
        -24    2    1    2    0    0  0.66754485062E+02  0.70931502961E+02 -0.90271895753E+03  0.91161427909E+03  0.81557575826E+02 0.  0.
         25    2    1    2    0    0 -0.73145096389E+02 -0.26135207477E+02 -0.29472984201E+03  0.32946406003E+03  0.12509049879E+03 0.  0.
         24    2    1    2    0    0  0.63906113269E+01 -0.44796295483E+02  0.50064416668E+03  0.50892682452E+03  0.79463092551E+02 0.  0.
        -11    1    5    5    0    0 -0.74457757661E+01  0.56381704349E+01  0.51208658210E+01  0.10651375938E+02  0.00000000000E+00 0.  1.
         12    1    5    5    0    0  0.13836387093E+02 -0.50434465918E+02  0.49552330086E+03  0.49827544858E+03  0.00000000000E+00 0. -1.
         11    1    3    3    0    0  0.67907929644E+02  0.81610309011E+02 -0.88110809057E+03  0.88748137823E+03  0.00000000000E+00 0. -1.
        -12    1    3    3    0    0 -0.11534445826E+01 -0.10678806051E+02 -0.21610866959E+02  0.24132900857E+02  0.00000000000E+00 0.  1.
          5    1    4    4  501    0 -0.27619357133E+02 -0.32013031502E+02 -0.27674295609E+03  0.27998535537E+03  0.41800000000E+01 0.  1.
         -5    1    4    4    0  501 -0.45525739256E+02  0.58778240245E+01 -0.17986885912E+02  0.49478704661E+02  0.41800000000E+01 0.  1.
</event>
<event>
11    1  0.8039394E-009  0.1415997E+03  0.7561462E-02  0.1105785E+00
         22   -1    0    0    0    0  0.00000000000E+00  0.00000000000E+00  0.10286341763E+04  0.10286341763E+04  0.00000000000E+00 0.  1.
         22   -1    0    0    0    0 -0.00000000000E+00 -0.00000000000E+00 -0.41882431665E+03  0.41882431665E+03  0.00000000000E+00 0. -1.
         24    2    1    2    0    0 -0.10967717060E+02  0.73655344106E+01 -0.36792819623E+03  0.37773229893E+03  0.84474790058E+02 0.  0.
         25    2    1    2    0    0 -0.44342700513E+02 -0.44614738602E+02  0.71380347324E+02  0.15716131836E+03  0.12509107088E+03 0.  0.
        -24    2    1    2    0    0  0.55310417573E+02  0.37249204191E+02  0.90635770860E+03  0.91256487572E+03  0.82726120139E+02 0.  0.
        -11    1    3    3    0    0 -0.13298049011E+02  0.10839868215E+02 -0.10158825667E+02  0.19938470086E+02  0.00000000000E+00 0.  1.
         12    1    3    3    0    0  0.23303319515E+01 -0.34743338047E+01 -0.35776937056E+03  0.35779382884E+03  0.00000000000E+00 0. -1.
         11    1    5    5    0    0  0.40987519828E+02 -0.12122810615E+00  0.16106679247E+03  0.16620018988E+03  0.00000000000E+00 0. -1.
        -12    1    5    5    0    0  0.14322897745E+02  0.37370432297E+02  0.74529091612E+03  0.74636468584E+03  0.00000000000E+00 0.  1.
          5    1    4    4  501    0 -0.27204938198E+02 -0.47535541476E+02 -0.24127229603E+02  0.59994432859E+02  0.41800000000E+01 0.  1.
         -5    1    4    4    0  501 -0.17137762315E+02  0.29208028737E+01  0.95507576927E+02  0.97166885496E+02  0.41800000000E+01 0.  1.
</event>
<event>
11    1  0.8039394E-009  0.1384322E+03  0.7561462E-02  0.1109322E+00
         22   -1    0    0    0    0  0.00000000000E+00  0.00000000000E+00  0.57864424349E+03  0.57864424349E+03  0.00000000000E+00 0.  1.
         22   -1    0    0    0    0 -0.00000000000E+00 -0.00000000000E+00 -0.82724179050E+03  0.82724179050E+03  0.00000000000E+00 0.  1.
        -24    2    1    2    0    0 -0.59162591765E+02 -0.61794352263E+01 -0.79548761938E+03  0.80167356327E+03  0.79633860736E+02 0.  0.
         25    2    1    2    0    0  0.48320122463E+02  0.24108960882E+01  0.15833597056E+03  0.20750440373E+03  0.12508857398E+03 0.  0.
         24    2    1    2    0    0  0.10842469301E+02  0.37685391381E+01  0.38855410181E+03  0.39670806699E+03  0.79191157047E+02 0.  0.
        -13    1    5    5    0    0  0.42291923334E+02  0.49722548191E+01  0.29365081387E+03  0.29672231224E+03  0.00000000000E+00 0.  1.
         14    1    5    5    0    0 -0.31449454032E+02 -0.12037156810E+01  0.94903287943E+02  0.99985754749E+02  0.00000000000E+00 0. -1.
         13    1    3    3    0    0 -0.42956317713E+02 -0.64889570834E+01 -0.15479019174E+03  0.16077112693E+03  0.00000000000E+00 0. -1.
        -14    1    3    3    0    0 -0.16206274052E+02  0.30952185711E+00 -0.64069742764E+03  0.64090243634E+03  0.00000000000E+00 0.  1.
          5    1    4    4  501    0  0.87938617303E+02  0.39406718266E+01  0.77433759197E+02  0.11731235558E+03  0.41800000000E+01 0. -1.
         -5    1    4    4    0  501 -0.39618494839E+02 -0.15297757384E+01  0.80902211364E+02  0.90192048157E+02  0.41800000000E+01 0. -1.
</event>
<event>
11    1  0.8039394E-009  0.3103314E+03  0.7561462E-02  0.9959111E-01
         22   -1    0    0    0    0  0.00000000000E+00  0.00000000000E+00  0.17873071880E+04  0.17873071880E+04  0.00000000000E+00 0. -1.
         22   -1    0    0    0    0 -0.00000000000E+00 -0.00000000000E+00 -0.13305968096E+03  0.13305968096E+03  0.00000000000E+00 0. -1.
        -24    2    1    2    0    0 -0.76782104139E+02 -0.43426458913E+02  0.51927681758E+02  0.13048595874E+03  0.80924362501E+02 0.  0.
         25    2    1    2    0    0 -0.21318783717E+03  0.10011557805E+03  0.15188708272E+03  0.30690264186E+03  0.12508941920E+03 0.  0.
         24    2    1    2    0    0  0.28996994131E+03 -0.56689119135E+02  0.14504327426E+04  0.14829782684E+04  0.90405645114E+02 0.  0.
        -11    1    5    5    0    0  0.17386257960E+02 -0.16986247101E+02  0.48617388681E+02  0.54354990927E+02  0.00000000000E+00 0.  1.
         12    1    5    5    0    0  0.27258368335E+03 -0.39702872034E+02  0.14018153539E+04  0.14286232774E+04  0.00000000000E+00 0. -1.
         11    1    3    3    0    0 -0.89881037701E+02 -0.49349132152E+02  0.54120812693E+02  0.11594395262E+03  0.00000000000E+00 0. -1.
        -12    1    3    3    0    0  0.13098933562E+02  0.59226732397E+01 -0.21931309342E+01  0.14542006122E+02  0.00000000000E+00 0.  1.
          5    1    4    4  501    0 -0.90028739230E+02  0.10436057112E+03  0.49085278383E+02  0.14636645669E+03  0.41800000000E+01 0.  1.
         -5    1    4    4    0  501 -0.12315909794E+03 -0.42449930672E+01  0.10280180434E+03  0.16053618516E+03  0.41800000000E+01 0.  1.
</event>
<event>
11    1  0.8039394E-009  0.1416557E+03  0.7561462E-02  0.1105723E+00
         22   -1    0    0    0    0  0.00000000000E+00  0.00000000000E+00  0.65882971988E+03  0.65882971988E+03  0.00000000000E+00 0.  1.
         22   -1    0    0    0    0 -0.00000000000E+00 -0.00000000000E+00 -0.41242437738E+03  0.41242437738E+03  0.00000000000E+00 0.  1.
        -24    2    1    2    0    0  0.63090395479E+02 -0.20357223792E+02 -0.37425532360E+03  0.38850891894E+03  0.80481788544E+02 0.  0.
         25    2    1    2    0    0 -0.75125032802E+02  0.47131893822E-01  0.17170113225E+03  0.22532628948E+03  0.12508750993E+03 0.  0.
         24    2    1    2    0    0  0.12034637323E+02  0.20310091898E+02  0.44895953385E+03  0.45741888885E+03  0.84321079858E+02 0.  0.
        -11    1    5    5    0    0 -0.36042464475E+01  0.38951398521E+02  0.40729719060E+03  0.40917136203E+03  0.00000000000E+00 0.  1.
         12    1    5    5    0    0  0.15638883771E+02 -0.18641306623E+02  0.41662343256E+02  0.48247526815E+02  0.00000000000E+00 0. -1.
         11    1    3    3    0    0  0.26921371593E+02 -0.41056604027E+02 -0.10336889665E+03  0.11443571898E+03  0.00000000000E+00 0. -1.
        -12    1    3    3    0    0  0.36169023886E+02  0.20699380235E+02 -0.27088642695E+03  0.27407319996E+03  0.00000000000E+00 0.  1.
          5    1    4    4  501    0  0.68410160987E+01  0.20834348012E+02 -0.10308566658E+02  0.24588788195E+02  0.41800000000E+01 0. -1.
         -5    1    4    4    0  501 -0.81966048900E+02 -0.20787216119E+02  0.18200969890E+03  0.20073750128E+03  0.41800000000E+01 0. -1.
</event>
<event>
11    1  0.8446240E-009  0.2430050E+03  0.7561462E-02  0.1027693E+00
         22   -1    0    0    0    0  0.00000000000E+00  0.00000000000E+00  0.11892248257E+04  0.11892248257E+04  0.00000000000E+00 0. -1.
         22   -1    0    0    0    0 -0.00000000000E+00 -0.00000000000E+00 -0.12746935247E+04  0.12746935247E+04  0.00000000000E+00 0. -1.
        -24    2    1    2    0    0 -0.71606301463E+02 -0.96779404140E+01 -0.95112579562E+03  0.95726768329E+03  0.80622660863E+02 0.  0.
         25    2    1    2    0    0  0.25015010842E+03  0.11231981605E+03 -0.23558408944E+03  0.38254305992E+03  0.12509401133E+03 0.  0.
         24    2    1    2    0    0 -0.17854380696E+03 -0.10264187564E+03  0.11012411861E+04  0.11241076072E+04  0.92046276305E+02 0.  0.
        -13    1    5    5    0    0  0.56470249389E+01  0.73008764058E+01  0.23932563180E+02  0.25650716702E+02  0.00000000000E+00 0.  1.
         14    1    5    5    0    0 -0.18419083190E+03 -0.10994275204E+03  0.10773086229E+04  0.10984568905E+04  0.00000000000E+00 0. -1.
         11    1    3    3    0    0 -0.76736935760E+02  0.13981537291E+02 -0.56167049397E+03  0.56706065328E+03  0.00000000000E+00 0. -1.
        -12    1    3    3    0    0  0.51306342966E+01 -0.23659477705E+02 -0.38945530165E+03  0.39020703002E+03  0.00000000000E+00 0.  1.
          5    1    4    4  501    0  0.13778603750E+03  0.31870902199E+02 -0.47779477363E+02  0.14933551953E+03  0.41800000000E+01 0. -1.
         -5    1    4    4    0  501  0.11236407092E+03  0.80448913852E+02 -0.18780461208E+03  0.23320754039E+03  0.41800000000E+01 0. -1.
</event>
<event>
11    1  0.8039394E-009  0.1488930E+03  0.7561462E-02  0.1098015E+00
         22   -1    0    0    0    0  0.00000000000E+00  0.00000000000E+00  0.14277915958E+04  0.14277915958E+04  0.00000000000E+00 0. -1.
         22   -1    0    0    0    0 -0.00000000000E+00 -0.00000000000E+00 -0.32199425070E+03  0.32199425070E+03  0.00000000000E+00 0.  1.
        -24    2    1    2    0    0 -0.26640034208E+02  0.42745801056E+02 -0.25813120520E+03  0.27684374390E+03  0.86451399680E+02 0.  0.
         25    2    1    2    0    0 -0.35021301772E+01  0.34597621240E+02  0.28976173271E+02  0.13302741272E+03  0.12508962229E+03 0.  0.
         24    2    1    2    0    0  0.30142164385E+02 -0.77343422296E+02  0.13349523771E+04  0.13399146899E+04  0.79893505373E+02 0.  0.
        -11    1    5    5    0    0  0.96666857868E+01  0.15635217672E+02  0.14517418890E+03  0.14633335221E+03  0.00000000000E+00 0.  1.
         12    1    5    5    0    0  0.20475478598E+02 -0.92978639967E+02  0.11897781882E+04  0.11935813377E+04  0.00000000000E+00 0. -1.
         11    1    3    3    0    0 -0.36984470773E+02 -0.15948496656E+02 -0.11228676070E+03  0.11929175266E+03  0.00000000000E+00 0. -1.
        -12    1    3    3    0    0  0.10344436565E+02  0.58694297712E+02 -0.14584444450E+03  0.15755199124E+03  0.00000000000E+00 0.  1.
          5    1    4    4  501    0  0.57852557645E+02  0.30038172792E+02  0.10380501901E+01  0.65328096551E+02  0.41800000000E+01 0.  1.
         -5    1    4    4    0  501 -0.61354687822E+02  0.45594484481E+01  0.27938123081E+02  0.67699316165E+02  0.41800000000E+01 0.  1.
</event>
<event>
11    1  0.8039394E-009  0.1275296E+03  0.7561462E-02  0.1122342E+00
         22   -1    0    0    0    0  0.00000000000E+00  0.00000000000E+00  0.96084907507E+03  0.96084907507E+03  0.00000000000E+00 0. -1.
         22   -1    0    0    0    0 -0.00000000000E+00 -0.00000000000E+00 -0.21665328359E+03  0.21665328359E+03  0.00000000000E+00 0. -1.
        -24    2    1    2    0    0 -0.22174909961E+01 -0.23518006155E+02 -0.19438221186E+03  0.21148229328E+03  0.79889312201E+02 0.  0.
         25    2    1    2    0    0  0.18569995032E+02 -0.58550652574E+00  0.37734795112E+03  0.39797150549E+03  0.12507859702E+03 0.  0.
         24    2    1    2    0    0 -0.16352504035E+02  0.24103512681E+02  0.56123005222E+03  0.56804855988E+03  0.82774459545E+02 0.  0.
        -11    1    5    5    0    0 -0.35773850902E+01  0.34929904188E+02  0.91283402354E+02  0.97803657580E+02  0.00000000000E+00 0.  1.
         12    1    5    5    0    0 -0.12775118945E+02 -0.10826391508E+02  0.46994664987E+03  0.47024490230E+03  0.00000000000E+00 0. -1.
         11    1    3    3    0    0  0.12424154196E+02 -0.28683310036E+02 -0.19341665965E+03  0.19592625172E+03  0.00000000000E+00 0. -1.
        -12    1    3    3    0    0 -0.14641645192E+02  0.51653038808E+01 -0.96555221257E+00  0.15556041565E+02  0.00000000000E+00 0.  1.
          5    1    4    4  501    0  0.71007127801E+02  0.32452889961E+01  0.17669197436E+03  0.19049952835E+03  0.41800000000E+01 0.  1.
         -5    1    4    4    0  501 -0.52437132770E+02 -0.38307955219E+01  0.20065597676E+03  0.20747197714E+03  0.41800000000E+01 0.  1.
</event>
<event>
11    1  0.8039394E-009  0.1552262E+03  0.7561462E-02  0.1091655E+00
         22   -1    0    0    0    0  0.00000000000E+00  0.00000000000E+00  0.28478220980E+04  0.28478220980E+04  0.00000000000E+00 0. -1.
         22   -1    0    0    0    0 -0.00000000000E+00 -0.00000000000E+00 -0.16174741334E+03  0.16174741334E+03  0.00000000000E+00 0.  1.
        -24    2    1    2    0    0 -0.20146013394E+02 -0.88927990643E+02 -0.12925578145E+03  0.17512177480E+03  0.75143393567E+02 0.  0.
         25    2    1    2    0    0  0.20051139036E+02  0.11736958220E+03  0.84581995412E+03  0.86327140297E+03  0.12509377841E+03 0.  0.
         24    2    1    2    0    0  0.94874357999E-01 -0.28441591553E+02  0.19695105120E+04  0.19711763336E+04  0.75865328269E+02 0.  0.
        -11    1    5    5    0    0 -0.85035020165E+01 -0.81918240609E+01  0.44491299511E+02  0.46031416013E+02  0.00000000000E+00 0.  1.
         12    1    5    5    0    0  0.85983763745E+01 -0.20249767492E+02  0.19250192125E+04  0.19251449176E+04  0.00000000000E+00 0. -1.
         13    1    3    3    0    0  0.32821988507E+00 -0.32670373372E+02  0.29447310484E-02  0.32672022178E+02  0.00000000000E+00 0. -1.
        -14    1    3    3    0    0 -0.20474233279E+02 -0.56257617271E+02 -0.12925872618E+03  0.14244975262E+03  0.00000000000E+00 0.  1.
          5    1    4    4  501    0  0.25340990164E+02 -0.21603893425E+02  0.16673990857E+03  0.17008398955E+03  0.41800000000E+01 0.  1.
         -5    1    4    4    0  501 -0.52898511285E+01  0.13897347562E+03  0.67908004555E+03  0.69318741342E+03  0.41800000000E+01 0.  1.
</event>
<event>
11    1  0.8039394E-009  0.1523782E+03  0.7561462E-02  0.1094473E+00
         22   -1    0    0    0    0  0.00000000000E+00  0.00000000000E+00  0.17354003326E+04  0.17354003326E+04  0.00000000000E+00 0. -1.
         22   -1    0    0    0    0 -0.00000000000E+00 -0.00000000000E+00 -0.32141275287E+03  0.32141275287E+03  0.00000000000E+00 0. -1.
         24    2    1    2    0    0 -0.86039665878E+02 -0.16634396545E+02 -0.28187913210E+03  0.30599875023E+03  0.80621726462E+02 0.  0.
         25    2    1    2    0    0  0.56079183738E+02  0.89405584085E+02  0.23614233741E+03  0.28731419618E+03  0.12509200812E+03 0.  0.
        -24    2    1    2    0    0  0.29960482140E+02 -0.72771187540E+02  0.14597243744E+04  0.14635001391E+04  0.69599795534E+02 0.  0.
        -11    1    3    3    0    0 -0.56410866294E+02 -0.52949298790E+01 -0.62586715579E+02  0.84423451039E+02  0.00000000000E+00 0.  1.
         12    1    3    3    0    0 -0.29628799584E+02 -0.11339466666E+02 -0.21929241652E+03  0.22157529919E+03  0.00000000000E+00 0. -1.
         13    1    5    5    0    0 -0.13142994114E+02 -0.56968222548E+02  0.89936595990E+03  0.90126424899E+03  0.00000000000E+00 0. -1.
        -14    1    5    5    0    0  0.43103476254E+02 -0.15802964991E+02  0.56035841453E+03  0.56223589009E+03  0.00000000000E+00 0.  1.
          5    1    4    4  501    0  0.43910913281E+02  0.18090644782E+01  0.17306318601E+03  0.17860509447E+03  0.41800000000E+01 0.  1.
         -5    1    4    4    0  501  0.12168270457E+02  0.87596519606E+02  0.63079151400E+02  0.10870910171E+03  0.41800000000E+01 0.  1.
</event>
<event>
11    1  0.8039394E-009  0.2154024E+03  0.7561462E-02  0.1044136E+00
         22   -1    0    0    0    0  0.00000000000E+00  0.00000000000E+00  0.98932172105E+02  0.98932172105E+02  0.00000000000E+00 0.  1.
         22   -1    0    0    0    0 -0.00000000000E+00 -0.00000000000E+00 -0.17763463994E+04  0.17763463994E+04  0.00000000000E+00 0.  1.
         24    2    1    2    0    0 -0.12896390375E+03 -0.21823165785E+02 -0.12135799104E+04  0.12232506586E+04  0.80361904972E+02 0.  0.
         25    2    1    2    0    0  0.22333563188E+03 -0.99235572760E+02 -0.34375980839E+03  0.43993799110E+03  0.12509247292E+03 0.  0.
        -24    2    1    2    0    0 -0.94371728131E+02  0.12105873854E+03 -0.12007450858E+03  0.21208992189E+03  0.83683965665E+02 0.  0.
        -11    1    3    3    0    0 -0.12130143287E+03  0.90502584119E+01 -0.94744992009E+03  0.95522630610E+03  0.00000000000E+00 0.  1.
         12    1    3    3    0    0 -0.76624708804E+01 -0.30873424197E+02 -0.26612999028E+03  0.26802435245E+03  0.00000000000E+00 0. -1.
         13    1    5    5    0    0 -0.14254059438E+02  0.17252338143E+02 -0.66981157637E+02  0.70620796231E+02  0.00000000000E+00 0. -1.
        -14    1    5    5    0    0 -0.80117668693E+02  0.10380640040E+03 -0.53093350940E+02  0.14146912566E+03  0.00000000000E+00 0.  1.
          5    1    4    4  501    0  0.16157881904E+03 -0.30421737527E+02 -0.28864429324E+03  0.33221408353E+03  0.41800000000E+01 0.  1.
         -5    1    4    4    0  501  0.61756812835E+02 -0.68813835233E+02 -0.55115515151E+02  0.10772390757E+03  0.41800000000E+01 0.  1.
</event>
<event>
11    1  0.8039394E-009  0.1626140E+03  0.7561462E-02  0.1084644E+00
         22   -1    0    0    0    0  0.00000000000E+00  0.00000000000E+00  0.18102428739E+04  0.18102428739E+04  0.00000000000E+00 0. -1.
         22   -1    0    0    0    0 -0.00000000000E+00 -0.00000000000E+00 -0.54250371554E+03  0.54250371554E+03  0.00000000000E+00 0. -1.
         24    2    1    2    0    0  0.93290073036E+02 -0.33728976313E+02 -0.33025545438E+03  0.35429177533E+03  0.81322293047E+02 0.  0.
         25    2    1    2    0    0 -0.90175108831E+02  0.92799773905E+02 -0.15755008329E+03  0.23919206331E+03  0.12508983219E+03 0.  0.
        -24    2    1    2    0    0 -0.31149642052E+01 -0.59070797593E+02  0.17555446960E+04  0.17592627508E+04  0.97822208251E+02 0.  0.
        -11    1    3    3    0    0  0.64564596730E+02  0.97645652525E+01 -0.10972463322E+03  0.12768488172E+03  0.00000000000E+00 0.  1.
         12    1    3    3    0    0  0.28725476306E+02 -0.43493541565E+02 -0.22053082117E+03  0.22660689361E+03  0.00000000000E+00 0. -1.
         13    1    5    5    0    0 -0.42266789590E+02 -0.35478479559E+02  0.13541061918E+04  0.13552301586E+04  0.00000000000E+00 0. -1.
        -14    1    5    5    0    0  0.39151825385E+02 -0.23592318034E+02  0.40143850424E+03  0.40403259224E+03  0.00000000000E+00 0.  1.
          5    1    4    4  501    0 -0.83280903590E+02  0.38927695567E+02 -0.24212086435E+02  0.95156565272E+02  0.41800000000E+01 0.  1.
         -5    1    4    4    0  501 -0.68942052413E+01  0.53872078339E+02 -0.13333799685E+03  0.14403549804E+03  0.41800000000E+01 0.  1.
</event>
<event>
11    1  0.8039394E-009  0.1449248E+03  0.7561462E-02  0.1102180E+00
         22   -1    0    0    0    0  0.00000000000E+00  0.00000000000E+00  0.87323155150E+03  0.87323155150E+03  0.00000000000E+00 0. -1.
         22   -1    0    0    0    0 -0.00000000000E+00 -0.00000000000E+00 -0.71078514171E+02  0.71078514171E+02  0.00000000000E+00 0. -1.
        -24    2    1    2    0    0 -0.17773131082E+02  0.32668206423E+02 -0.13444479907E+02  0.88498727564E+02  0.79171805847E+02 0.  0.
         25    2    1    2    0    0  0.63074871330E+02 -0.73103434763E+02  0.46610892275E+03  0.49216636346E+03  0.12509056673E+03 0.  0.
         24    2    1    2    0    0 -0.45301740248E+02  0.40435228341E+02  0.34948859449E+03  0.36364497465E+03  0.80050824793E+02 0.  0.
        -11    1    5    5    0    0 -0.49432001516E+02  0.19055848203E+02  0.99632459992E+02  0.11284181498E+03  0.00000000000E+00 0.  1.
         12    1    5    5    0    0  0.41302612685E+01  0.21379380138E+02  0.24985613449E+03  0.25080315966E+03  0.00000000000E+00 0. -1.
         11    1    3    3    0    0 -0.11730274283E+02 -0.10916394903E+02 -0.35742370059E+02  0.39169937834E+02  0.00000000000E+00 0. -1.
        -12    1    3    3    0    0 -0.60428567988E+01  0.43584601326E+02  0.22297890152E+02  0.49328789730E+02  0.00000000000E+00 0.  1.
          5    1    4    4  501    0  0.87895498068E+02 -0.91074765276E+02  0.38861388497E+03  0.40872785010E+03  0.41800000000E+01 0.  1.
         -5    1    4    4    0  501 -0.24820626738E+02  0.17971330512E+02  0.77495037778E+02  0.83438513363E+02  0.41800000000E+01 0.  1.
</event>
<event>
11    1  0.8039394E-009  0.1703473E+03  0.7561462E-02  0.1077730E+00
         22   -1    0    0    0    0  0.00000000000E+00  0.00000000000E+00  0.57925881481E+03  0.57925881481E+03  0.00000000000E+00 0. -1.
         22   -1    0    0    0    0 -0.00000000000E+00 -0.00000000000E+00 -0.35076695769E+03  0.35076695769E+03  0.00000000000E+00 0. -1.
         24    2    1    2    0    0  0.24055517934E+02  0.44833929259E+02 -0.26060161415E+03  0.27743312113E+03  0.80418817731E+02 0.  0.
         25    2    1    2    0    0 -0.91516764122E+02  0.52655546782E+02  0.23583887295E+02  0.16538143358E+03  0.12508754578E+03 0.  0.
        -24    2    1    2    0    0  0.67461246188E+02 -0.97489476040E+02  0.46550958397E+03  0.48721121780E+03  0.81365719470E+02 0.  0.
        -13    1    3    3    0    0 -0.28936661985E+01 -0.10259645023E+02 -0.10247035479E+01  0.10709044655E+02  0.00000000000E+00 0.  1.
         14    1    3    3    0    0  0.26949184133E+02  0.55093574282E+02 -0.25957691060E+03  0.26672407647E+03  0.00000000000E+00 0. -1.
         11    1    5    5    0    0  0.85658811910E+02 -0.72117616187E+02  0.38120326615E+03  0.39730883800E+03  0.00000000000E+00 0. -1.
        -12    1    5    5    0    0 -0.18197565723E+02 -0.25371859853E+02  0.84306317814E+02  0.89902379802E+02  0.00000000000E+00 0.  1.
          5    1    4    4  501    0 -0.11410228486E+03  0.67492414745E+02  0.32611803211E+02  0.13658535635E+03  0.41800000000E+01 0.  1.
         -5    1    4    4    0  501  0.22585520742E+02 -0.14836867963E+02 -0.90279159155E+01  0.28796077232E+02  0.41800000000E+01 0.  1.
</event>
<event>
11    1  0.8039394E-009  0.3171608E+03  0.7561462E-02  0.9931791E-01
         22   -1    0    0    0    0  0.00000000000E+00  0.00000000000E+00  0.52558032136E+03  0.52558032136E+03  0.00000000000E+00 0.  1.
         22   -1    0    0    0    0 -0.00000000000E+00 -0.00000000000E+00 -0.61605282202E+03  0.61605282202E+03  0.00000000000E+00 0.  1.
        -24    2    1    2    0    0 -0.83069119022E+01 -0.32903676749E+03 -0.32897112744E+03  0.47227617883E+03  0.80551767528E+02 0.  0.
         25    2    1    2    0    0 -0.23809527655E+03  0.16085887675E+03  0.94236289833E+02  0.32724992621E+03  0.12508835651E+03 0.  0.
         24    2    1    2    0    0  0.24640218846E+03  0.16817789074E+03  0.14426233695E+03  0.34210703835E+03  0.85016247944E+02 0.  0.
        -11    1    5    5    0    0  0.21180445900E+03  0.14032973471E+03  0.84723000456E+02  0.26782746331E+03  0.00000000000E+00 0.  1.
         12    1    5    5    0    0  0.34597729458E+02  0.27848156028E+02  0.59539336493E+02  0.74279575038E+02  0.00000000000E+00 0. -1.
         11    1    3    3    0    0 -0.11044784176E+02 -0.21574361343E+01 -0.60305188314E+01  0.12767495665E+02  0.00000000000E+00 0. -1.
        -12    1    3    3    0    0  0.27378722741E+01 -0.32687933136E+03 -0.32294060861E+03  0.45950868317E+03  0.00000000000E+00 0.  1.
          5    1    4    4  501    0 -0.80234699504E+02 -0.45178519174E+01  0.14642696287E+01  0.80483752869E+02  0.41800000000E+01 0. -1.
         -5    1    4    4    0  501 -0.15786057705E+03  0.16537672867E+03  0.92772020204E+02  0.24676617334E+03  0.41800000000E+01 0. -1.
</event>
<event>
11    1  0.8039394E-009  0.1671873E+03  0.7561462E-02  0.1080506E+00
         22   -1    0    0    0    0  0.00000000000E+00  0.00000000000E+00  0.75196450358E+03  0.75196450358E+03  0.00000000000E+00 0. -1.
         22   -1    0    0    0    0 -0.00000000000E+00 -0.00000000000E+00 -0.14707536880E+03  0.14707536880E+03  0.00000000000E+00 0.  1.
         24    2    1    2    0    0 -0.47026932777E+02 -0.11057721145E+03 -0.55445616884E+02  0.15423185407E+03  0.79211086837E+02 0.  0.
         25    2    1    2    0    0  0.95129628400E+02  0.37025950291E+02  0.14903137149E+03  0.21972660548E+03  0.12509542066E+03 0.  0.
        -24    2    1    2    0    0 -0.48102695623E+02  0.73551261162E+02  0.51130338017E+03  0.52508141284E+03  0.80967192054E+02 0.  0.
        -13    1    3    3    0    0 -0.47464750073E+02 -0.98464582934E+02 -0.74049183418E+02  0.13202824757E+03  0.00000000000E+00 0.  1.
         14    1    3    3    0    0  0.43781729639E+00 -0.12112628520E+02  0.18603566534E+02  0.22203606496E+02  0.00000000000E+00 0. -1.
         13    1    5    5    0    0 -0.32499944309E+02  0.65079717976E+02  0.49696391678E+03  0.50225964466E+03  0.00000000000E+00 0. -1.
        -14    1    5    5    0    0 -0.15602751314E+02  0.84715431867E+01  0.14339463395E+02  0.22821768183E+02  0.00000000000E+00 0.  1.
          5    1    4    4  501    0  0.22509624677E+02 -0.42710702613E+02  0.73324559996E+02  0.87891130494E+02  0.41800000000E+01 0. -1.
         -5    1    4    4    0  501  0.72620003723E+02  0.79736652905E+02  0.75706811498E+02  0.13183547498E+03  0.41800000000E+01 0. -1.
</event>
<event>
11    1  0.8039394E-009  0.1364994E+03  0.7561462E-02  0.1111532E+00
         22   -1    0    0    0    0  0.00000000000E+00  0.00000000000E+00  0.83793157309E+03  0.83793157309E+03  0.00000000000E+00 0.  1.
         22   -1    0    0    0    0 -0.00000000000E+00 -0.00000000000E+00 -0.12394192831E+04  0.12394192831E+04  0.00000000000E+00 0. -1.
         24    2    1    2    0    0 -0.33769577060E+02  0.14629447334E+02 -0.98401518847E+03  0.98793078494E+03  0.79793105133E+02 0.  0.
         25    2    1    2    0    0  0.86974438645E+02 -0.25138928652E+02 -0.22678990280E+03  0.27436604450E+03  0.12508616091E+03 0.  0.
        -24    2    1    2    0    0 -0.53204861585E+02  0.10509481318E+02  0.80931738125E+03  0.81505402676E+03  0.79857601005E+02 0.  0.
        -11    1    3    3    0    0 -0.17148427348E+02  0.47707794793E+02 -0.59747179199E+03  0.59961874927E+03  0.00000000000E+00 0.  1.
         12    1    3    3    0    0 -0.16621149711E+02 -0.33078347459E+02 -0.38654339647E+03  0.38831203567E+03  0.00000000000E+00 0. -1.
         11    1    5    5    0    0 -0.84055991114E+01  0.39967861869E+02  0.26899391176E+03  0.27207684326E+03  0.00000000000E+00 0. -1.
        -12    1    5    5    0    0 -0.44799262474E+02 -0.29458380551E+02  0.54032346950E+03  0.54297718349E+03  0.00000000000E+00 0.  1.
          5    1    4    4  501    0  0.68582485211E+02 -0.44851083174E+02 -0.51302979179E+02  0.96771095954E+02  0.41800000000E+01 0. -1.
         -5    1    4    4    0  501  0.18391953434E+02  0.19712154522E+02 -0.17548692362E+03  0.17759494855E+03  0.41800000000E+01 0. -1.
</event>
<event>
11    1  0.8039394E-009  0.1264577E+03  0.7561462E-02  0.1123700E+00
         22   -1    0    0    0    0  0.00000000000E+00  0.00000000000E+00  0.17164440326E+04  0.17164440326E+04  0.00000000000E+00 0.  1.
         22   -1    0    0    0    0 -0.00000000000E+00 -0.00000000000E+00 -0.14682111846E+04  0.14682111846E+04  0.00000000000E+00 0.  1.
         24    2    1    2    0    0  0.20689846901E+02 -0.91483885972E+01 -0.14420868227E+04  0.14444048734E+04  0.78608341034E+02 0.  0.
         25    2    1    2    0    0 -0.31190819304E+02 -0.58573748400E+01  0.15124749769E+03  0.19882252766E+03  0.12508963147E+03 0.  0.
        -24    2    1    2    0    0  0.10500972403E+02  0.15005763437E+02  0.15390721730E+04  0.15414278161E+04  0.83193240439E+02 0.  0.
        -13    1    3    3    0    0  0.31141878067E+02  0.88654700385E+01 -0.13303334639E+04  0.13307274470E+04  0.00000000000E+00 0.  1.
         14    1    3    3    0    0 -0.10452031165E+02 -0.18013858636E+02 -0.11175335887E+03  0.11367742642E+03  0.00000000000E+00 0. -1.
         11    1    5    5    0    0  0.41143414370E+02 -0.11872355626E+02  0.93658768567E+03  0.93756611837E+03  0.00000000000E+00 0. -1.
        -12    1    5    5    0    0 -0.30642441967E+02  0.26878119063E+02  0.60248448732E+03  0.60386169774E+03  0.00000000000E+00 0.  1.
          5    1    4    4  501    0 -0.92893639425E+01 -0.99161303669E+01 -0.20852189416E+02  0.25237038799E+02  0.41800000000E+01 0. -1.
         -5    1    4    4    0  501 -0.21901455362E+02  0.40587555269E+01  0.17209968710E+03  0.17358548886E+03  0.41800000000E+01 0. -1.
</event>
<event>
11    1  0.8039394E-009  0.1421982E+03  0.7561462E-02  0.1105128E+00
         22   -1    0    0    0    0  0.00000000000E+00  0.00000000000E+00  0.14983581161E+04  0.14983581161E+04  0.00000000000E+00 0. -1.
         22   -1    0    0    0    0 -0.00000000000E+00 -0.00000000000E+00 -0.16681052876E+04  0.16681052876E+04  0.00000000000E+00 0. -1.
        -24    2    1    2    0    0 -0.10643997510E+02 -0.20759462381E+02 -0.14961116375E+04  0.14986068880E+04  0.83236549257E+02 0.  0.
         25    2    1    2    0    0  0.10505977405E+02  0.88191099430E+02 -0.13400619135E+03  0.20368551954E+03  0.12506832520E+03 0.  0.
         24    2    1    2    0    0  0.13802010552E+00 -0.67431637049E+02  0.14603706573E+04  0.14641709961E+04  0.81038290460E+02 0.  0.
        -11    1    5    5    0    0 -0.93036910665E+01  0.14996257564E+02  0.12683069601E+03  0.12805261364E+03  0.00000000000E+00 0.  1.
         12    1    5    5    0    0  0.94417111720E+01 -0.82427894612E+02  0.13335399613E+04  0.13361183825E+04  0.00000000000E+00 0. -1.
         11    1    3    3    0    0 -0.33540029559E+01 -0.43808447634E+01 -0.14326755965E+04  0.14326862204E+04  0.00000000000E+00 0. -1.
        -12    1    3    3    0    0 -0.72899945542E+01 -0.16378617617E+02 -0.63436040932E+02  0.65920667660E+02  0.00000000000E+00 0.  1.
          5    1    4    4  501    0  0.21531324160E+02 -0.26555512011E+02 -0.51133221770E+02  0.61651211722E+02  0.41800000000E+01 0.  1.
         -5    1    4    4    0  501 -0.11025346755E+02  0.11474661144E+03 -0.82872969584E+02  0.14203430781E+03  0.41800000000E+01 0.  1.
</event>
<event>
11    1  0.8039394E-009  0.1447870E+03  0.7561462E-02  0.1102328E+00
         22   -1    0    0    0    0  0.00000000000E+00  0.00000000000E+00  0.18193018878E+03  0.18193018878E+03  0.00000000000E+00 0. -1.
         22   -1    0    0    0    0 -0.00000000000E+00 -0.00000000000E+00 -0.59143039088E+03  0.59143039088E+03  0.00000000000E+00 0. -1.
        -24    2    1    2    0    0  0.11978558583E+02 -0.42203459105E+01 -0.30086154737E+03  0.31182413466E+03  0.80964949698E+02 0.  0.
         25    2    1    2    0    0 -0.83929318826E+02 -0.10000927123E+01 -0.24492499693E+03  0.28754255224E+03  0.12508930602E+03 0.  0.
         24    2    1    2    0    0  0.71950760243E+02  0.52204386228E+01  0.13628634221E+03  0.17399389277E+03  0.80596170935E+02 0.  0.
        -11    1    5    5    0    0  0.65073995283E+02  0.28338097854E+01  0.37942356808E+02  0.75380884713E+02  0.00000000000E+00 0.  1.
         12    1    5    5    0    0  0.68767649606E+01  0.23866288373E+01  0.98343985398E+02  0.98613008054E+02  0.00000000000E+00 0. -1.
         11    1    3    3    0    0  0.17812701579E+02  0.10434040319E+01 -0.30312277937E+03  0.30364749365E+03  0.00000000000E+00 0. -1.
        -12    1    3    3    0    0 -0.58341429963E+01 -0.52637499424E+01  0.22612319937E+01  0.81766410027E+01  0.00000000000E+00 0.  1.
          5    1    4    4  501    0 -0.43165077509E+02 -0.13657635067E+02 -0.24011911584E+03  0.24438579562E+03  0.41800000000E+01 0. -1.
         -5    1    4    4    0  501 -0.40764241317E+02  0.12657542354E+02 -0.48058810975E+01  0.43156756618E+02  0.41800000000E+01 0. -1.
</event>
<event>
11    1  0.8039394E-009  0.1540657E+03  0.7561462E-02  0.1092795E+00
         22   -1    0    0    0    0  0.00000000000E+00  0.00000000000E+00  0.75095057009E+03  0.75095057009E+03  0.00000000000E+00 0.  1.
         22   -1    0    0    0    0 -0.00000000000E+00 -0.00000000000E+00 -0.38626938543E+03  0.38626938543E+03  0.00000000000E+00 0.  1.
        -24    2    1    2    0    0 -0.58976268940E+01 -0.86476749379E+02 -0.32369117105E+03  0.34418311889E+03  0.78568663805E+02 0.  0.
         25    2    1    2    0    0  0.29485032046E+02  0.16120765708E+03  0.18346029274E+03  0.27597689888E+03  0.12509314085E+03 0.  0.
         24    2    1    2    0    0 -0.23587405151E+02 -0.74730907697E+02  0.50491206297E+03  0.51705993775E+03  0.79206777791E+02 0.  0.
        -13    1    5    5    0    0  0.82625822571E+01 -0.76874711335E+02  0.30679965725E+03  0.31639219522E+03  0.00000000000E+00 0.  1.
         14    1    5    5    0    0 -0.31849987409E+02  0.21438036377E+01  0.19811240572E+03  0.20066774253E+03  0.00000000000E+00 0. -1.
         11    1    3    3    0    0  0.31902645497E+02 -0.48406474020E+02 -0.11607423492E+03  0.12974665132E+03  0.00000000000E+00 0. -1.
        -12    1    3    3    0    0 -0.37800272391E+02 -0.38070275359E+02 -0.20761693613E+03  0.21443646757E+03  0.00000000000E+00 0.  1.
          5    1    4    4  501    0 -0.70315337415E+01  0.33489358768E+02  0.12697130769E+03  0.13156810022E+03  0.41800000000E+01 0.  1.
         -5    1    4    4    0  501  0.36516565787E+02  0.12771829831E+03  0.56488985048E+02  0.14440879866E+03  0.41800000000E+01 0.  1.
</event>
<event>
11    1  0.8039394E-009  0.1562228E+03  0.7561462E-02  0.1090685E+00
         22   -1    0    0    0    0  0.00000000000E+00  0.00000000000E+00  0.20543794371E+03  0.20543794371E+03  0.00000000000E+00 0. -1.
         22   -1    0    0    0    0 -0.00000000000E+00 -0.00000000000E+00 -0.72798010791E+03  0.72798010791E+03  0.00000000000E+00 0. -1.
        -24    2    1    2    0    0  0.44119752583E+02 -0.64459835697E+02 -0.54302261452E+03  0.55480947811E+03  0.82694462511E+02 0.  0.
         25    2    1    2    0    0 -0.84676292422E+02  0.13649605693E+03 -0.86653575895E+02  0.22126428230E+03  0.12509113618E+03 0.  0.
         24    2    1    2    0    0  0.40556539839E+02 -0.72036221233E+02  0.10713402623E+03  0.15734429120E+03  0.80283723795E+02 0.  0.
        -13    1    5    5    0    0 -0.44870531968E+01  0.82028201876E+01  0.45833960205E+02  0.46777898772E+02  0.00000000000E+00 0.  1.
         14    1    5    5    0    0  0.45043593035E+02 -0.80239041421E+02  0.61300066020E+02  0.11056639243E+03  0.00000000000E+00 0. -1.
         11    1    3    3    0    0  0.56694281492E+02 -0.62241817554E+02 -0.52972591951E+03  0.53637471530E+03  0.00000000000E+00 0. -1.
        -12    1    3    3    0    0 -0.12574528909E+02 -0.22180181425E+01 -0.13296695012E+02  0.18434762814E+02  0.00000000000E+00 0.  1.
          5    1    4    4  501    0 -0.66189120581E+02  0.15426219994E+03 -0.47907390119E+02  0.17461505216E+03  0.41800000000E+01 0.  1.
         -5    1    4    4    0  501 -0.18487171841E+02 -0.17766143013E+02 -0.38746185776E+02  0.46649230138E+02  0.41800000000E+01 0.  1.
</event>
<event>
11    1  0.8039394E-009  0.1411083E+03  0.7561462E-02  0.1106327E+00
         22   -1    0    0    0    0  0.00000000000E+00  0.00000000000E+00  0.34389095368E+03  0.34389095368E+03  0.00000000000E+00 0.  1.
         22   -1    0    0    0    0 -0.00000000000E+00 -0.00000000000E+00 -0.45139655467E+03  0.45139655467E+03  0.00000000000E+00 0.  1.
        -24    2    1    2    0    0  0.51481663465E+02  0.48478385946E+02 -0.27721766217E+03  0.29738426455E+03  0.81161893797E+02 0.  0.
         25    2    1    2    0    0 -0.49923292262E+02 -0.18053183275E+02 -0.12862389531E+03  0.18710932653E+03  0.12509013188E+03 0.  0.
         24    2    1    2    0    0 -0.15583712037E+01 -0.30425202670E+02  0.29833595649E+03  0.31079391727E+03  0.81611240622E+02 0.  0.
        -11    1    5    5    0    0  0.10746787396E+02  0.12527907653E+02  0.21994520194E+03  0.22056367281E+03  0.00000000000E+00 0.  1.
         12    1    5    5    0    0 -0.12305158600E+02 -0.42953110323E+02  0.78390754555E+02  0.90230244454E+02  0.00000000000E+00 0. -1.
         11    1    3    3    0    0 -0.71608515226E+01  0.19507509532E+02 -0.11531999357E+02  0.23765683913E+02  0.00000000000E+00 0. -1.
        -12    1    3    3    0    0  0.58642514988E+02  0.28970876413E+02 -0.26568566281E+03  0.27361858063E+03  0.00000000000E+00 0.  1.
          5    1    4    4  501    0 -0.55115794599E+02 -0.47949892678E+02 -0.22352742214E+02  0.76511832461E+02  0.41800000000E+01 0. -1.
         -5    1    4    4    0  501  0.51925023370E+01  0.29896709402E+02 -0.10627115310E+03  0.11059749407E+03  0.41800000000E+01 0. -1.
</event>
<event>
11    1  0.8039394E-009  0.1350528E+03  0.7561462E-02  0.1113212E+00
         22   -1    0    0    0    0  0.00000000000E+00  0.00000000000E+00  0.65872699088E+03  0.65872699088E+03  0.00000000000E+00 0.  1.
         22   -1    0    0    0    0 -0.00000000000E+00 -0.00000000000E+00 -0.48519399611E+02  0.48519399611E+02  0.00000000000E+00 0.  1.
         24    2    1    2    0    0  0.26427206475E+01  0.33418844346E+02  0.65460558491E+02  0.11016140508E+03  0.82016140610E+02 0.  0.
         25    2    1    2    0    0  0.25408155811E+02  0.19477780414E+02  0.20779196444E+03  0.24463977754E+03  0.12508461919E+03 0.  0.
        -24    2    1    2    0    0 -0.28050876458E+02 -0.52896624761E+02  0.33695506834E+03  0.35244520787E+03  0.84225897995E+02 0.  0.
        -11    1    3    3    0    0 -0.22515290698E+02  0.62394663332E+01 -0.10529247499E+02  0.25626827900E+02  0.00000000000E+00 0.  1.
         12    1    3    3    0    0  0.25158011345E+02  0.27179378013E+02  0.75989805990E+02  0.84534577176E+02  0.00000000000E+00 0. -1.
         13    1    5    5    0    0 -0.11712031891E+02 -0.52930073598E+02  0.90822554200E+02  0.10577098247E+03  0.00000000000E+00 0. -1.
        -14    1    5    5    0    0 -0.16338844567E+02  0.33448836785E-01  0.24613251414E+03  0.24667422540E+03  0.00000000000E+00 0.  1.
          5    1    4    4  501    0 -0.48546492563E+02 -0.81793102721E+01  0.91998885197E+02  0.10442667444E+03  0.41800000000E+01 0. -1.
         -5    1    4    4    0  501  0.73954648374E+02  0.27657090686E+02  0.11579307924E+03  0.14021310310E+03  0.41800000000E+01 0. -1.
</event>
<event>
11    1  0.8039394E-009  0.1384491E+03  0.7561462E-02  0.1109303E+00
         22   -1    0    0    0    0  0.00000000000E+00  0.00000000000E+00  0.78036713881E+03  0.78036713881E+03  0.00000000000E+00 0. -1.
         22   -1    0    0    0    0 -0.00000000000E+00 -0.00000000000E+00 -0.24550095018E+03  0.24550095018E+03  0.00000000000E+00 0.  1.
        -24    2    1    2    0    0  0.42212364458E+02 -0.43031845289E+02 -0.19509904964E+03  0.21694259510E+03  0.73258630726E+02 0.  0.
         25    2    1    2    0    0 -0.92266072455E+02  0.14871369596E+02  0.13645343321E+03  0.20736971962E+03  0.12509386643E+03 0.  0.
         24    2    1    2    0    0  0.50053707997E+02  0.28160475694E+02  0.59351180506E+03  0.60155577427E+03  0.79465091351E+02 0.  0.
        -13    1    5    5    0    0 -0.78000152147E+01 -0.19957139384E+02  0.94244380755E+02  0.96649526401E+02  0.00000000000E+00 0.  1.
         14    1    5    5    0    0  0.57853723212E+02  0.48117615078E+02  0.49926742430E+03  0.50490624787E+03  0.00000000000E+00 0. -1.
         13    1    3    3    0    0 -0.17101763263E+02 -0.14417425320E+02 -0.91417123142E+02  0.94113882415E+02  0.00000000000E+00 0. -1.
        -14    1    3    3    0    0  0.59314127720E+02 -0.28614419969E+02 -0.10368192650E+03  0.12282871268E+03  0.00000000000E+00 0.  1.
          5    1    4    4  501    0 -0.14471871457E+02 -0.17680839079E+02 -0.19302044591E+02  0.30200802298E+02  0.41800000000E+01 0.  1.
         -5    1    4    4    0  501 -0.77794200997E+02  0.32552208675E+02  0.15575547781E+03  0.17716891732E+03  0.41800000000E+01 0.  1.
</event>
<event>
11    1  0.8039394E-009  0.1302325E+03  0.7561462E-02  0.1118984E+00
         22   -1    0    0    0    0  0.00000000000E+00  0.00000000000E+00  0.15465991594E+04  0.15465991594E+04  0.00000000000E+00 0. -1.
         22   -1    0    0    0    0 -0.00000000000E+00 -0.00000000000E+00 -0.11703483230E+03  0.11703483230E+03  0.00000000000E+00 0. -1.
        -24    2    1    2    0    0 -0.35862276715E+02 -0.85332516297E+00 -0.84722493960E+02  0.12413506126E+03  0.83335355026E+02 0.  0.
         25    2    1    2    0    0  0.43315663260E+02  0.64921115897E+01  0.38289051742E+03  0.40518033747E+03  0.12509022081E+03 0.  0.
         24    2    1    2    0    0 -0.74533865454E+01 -0.56387864267E+01  0.11313963036E+04  0.11343185929E+04  0.80831464174E+02 0.  0.
        -11    1    5    5    0    0  0.12481656373E+02 -0.37027136845E+02  0.38021325551E+03  0.38221580328E+03  0.00000000000E+00 0.  1.
         12    1    5    5    0    0 -0.19935042919E+02  0.31388350418E+02  0.75118304809E+03  0.75210278966E+03  0.00000000000E+00 0. -1.
         11    1    3    3    0    0 -0.35496098455E+02  0.20638779218E+02 -0.92557660190E+02  0.10125637102E+03  0.00000000000E+00 0. -1.
        -12    1    3    3    0    0 -0.36617825966E+00 -0.21492104381E+02  0.78351662299E+01  0.22878690240E+02  0.00000000000E+00 0.  1.
          5    1    4    4  501    0 -0.16410047314E+02  0.11948420719E+02  0.31001430184E+03  0.31070628277E+03  0.41800000000E+01 0. -1.
         -5    1    4    4    0  501  0.59725710574E+02 -0.54563091291E+01  0.72876215586E+02  0.94474054698E+02  0.41800000000E+01 0. -1.
</event>
<event>
11    1  0.8039394E-009  0.1669385E+03  0.7561462E-02  0.1080727E+00
         22   -1    0    0    0    0  0.00000000000E+00  0.00000000000E+00  0.10458846659E+04  0.10458846659E+04  0.00000000000E+00 0.  1.
         22   -1    0    0    0    0 -0.00000000000E+00 -0.00000000000E+00 -0.43661273667E+03  0.43661273667E+03  0.00000000000E+00 0.  1.
        -24    2    1    2    0    0  0.71528701188E+02 -0.83888231673E+02 -0.40484179844E+03  0.42765415206E+03  0.82689790775E+02 0.  0.
         25    2    1    2    0    0 -0.76890503515E+02  0.94867520697E+02  0.41279970436E+03  0.44828900072E+03  0.12508971273E+03 0.  0.
         24    2    1    2    0    0  0.53618023268E+01 -0.10979289025E+02  0.60131402336E+03  0.60655424985E+03  0.78614309194E+02 0.  0.
        -11    1    5    5    0    0  0.23255171273E+01  0.49285980202E+01  0.57877255270E+03  0.57879820911E+03  0.00000000000E+00 0.  1.
         12    1    5    5    0    0  0.30362851995E+01 -0.15907887045E+02  0.22541470651E+02  0.27756040733E+02  0.00000000000E+00 0. -1.
         11    1    3    3    0    0 -0.29224309622E+00  0.12540114701E+02 -0.85722795275E+02  0.86635659589E+02  0.00000000000E+00 0. -1.
        -12    1    3    3    0    0  0.71820944285E+02 -0.96428346373E+02 -0.31911900317E+03  0.34101849247E+03  0.00000000000E+00 0.  1.
          5    1    4    4  501    0 -0.95128457708E+02  0.63243783564E+02  0.18442767000E+03  0.21697980894E+03  0.41800000000E+01 0. -1.
         -5    1    4    4    0  501  0.18237954193E+02  0.31623737133E+02  0.22837203436E+03  0.23130919178E+03  0.41800000000E+01 0. -1.
</event>
<event>
11    1  0.8039394E-009  0.1401021E+03  0.7561462E-02  0.1107444E+00
         22   -1    0    0    0    0  0.00000000000E+00  0.00000000000E+00  0.10370107635E+04  0.10370107635E+04  0.00000000000E+00 0.  1.
         22   -1    0    0    0    0 -0.00000000000E+00 -0.00000000000E+00 -0.54911606753E+03  0.54911606753E+03  0.00000000000E+00 0. -1.
        -24    2    1    2    0    0 -0.56890720334E+02  0.68030006920E+01 -0.48731691400E+03  0.49679728829E+03  0.77762047991E+02 0.  0.
         25    2    1    2    0    0 -0.55378666614E+00  0.25153493021E+02  0.20844948509E+02  0.12928219707E+03  0.12508544963E+03 0.  0.
         24    2    1    2    0    0  0.57444507000E+02 -0.31956493713E+02  0.95436666150E+03  0.96004734570E+03  0.80957350017E+02 0.  0.
        -13    1    5    5    0    0  0.68694342575E+02  0.14944845592E+01  0.66307597916E+03  0.66662650736E+03  0.00000000000E+00 0.  1.
         14    1    5    5    0    0 -0.11249835575E+02 -0.33450978272E+02  0.29129068235E+03  0.29342083834E+03  0.00000000000E+00 0. -1.
         11    1    3    3    0    0 -0.23050459194E+02  0.18147318283E+02 -0.41614294473E+03  0.41717574148E+03  0.00000000000E+00 0. -1.
        -12    1    3    3    0    0 -0.33840261140E+02 -0.11344317591E+02 -0.71173969268E+02  0.79621546814E+02  0.00000000000E+00 0.  1.
          5    1    4    4  501    0  0.60273044206E+02  0.22421143813E+02  0.22414017260E+02  0.68230551203E+02  0.41800000000E+01 0.  1.
         -5    1    4    4    0  501 -0.60826830872E+02  0.27323492076E+01 -0.15690687511E+01  0.61051645866E+02  0.41800000000E+01 0.  1.
</event>
<event>
11    1  0.8039394E-009  0.1786998E+03  0.7561462E-02  0.1070699E+00
         22   -1    0    0    0    0  0.00000000000E+00  0.00000000000E+00  0.46239812524E+03  0.46239812524E+03  0.00000000000E+00 0. -1.
         22   -1    0    0    0    0 -0.00000000000E+00 -0.00000000000E+00 -0.90448694515E+03  0.90448694515E+03  0.00000000000E+00 0. -1.
         24    2    1    2    0    0  0.96058114529E+01 -0.76438948408E+01 -0.82375332636E+03  0.82767073843E+03  0.79489671119E+02 0.  0.
         25    2    1    2    0    0 -0.33671559987E+02 -0.11891687636E+03  0.63267818377E+02  0.18688182323E+03  0.12508797536E+03 0.  0.
        -24    2    1    2    0    0  0.24065748534E+02  0.12656077120E+03  0.31839668808E+03  0.35233250873E+03  0.78517238014E+02 0.  0.
        -11    1    3    3    0    0 -0.20970635354E+02 -0.26057150295E+02 -0.61336012917E+03  0.61427143079E+03  0.00000000000E+00 0.  1.
         12    1    3    3    0    0  0.30576446806E+02  0.18413255454E+02 -0.21039319719E+03  0.21339930764E+03  0.00000000000E+00 0. -1.
         11    1    5    5    0    0 -0.54794425806E+01  0.39480167370E+02  0.19159567231E+03  0.19569775051E+03  0.00000000000E+00 0. -1.
        -12    1    5    5    0    0  0.29545191115E+02  0.87080603827E+02  0.12680101577E+03  0.15663475822E+03  0.00000000000E+00 0.  1.
          5    1    4    4  501    0 -0.60436427563E+02 -0.12908281192E+03  0.67286337446E+02  0.15767009138E+03  0.41800000000E+01 0. -1.
         -5    1    4    4    0  501  0.26764867576E+02  0.10165935563E+02 -0.40185190697E+01  0.29211731851E+02  0.41800000000E+01 0. -1.
</event>
<event>
11    1  0.8039394E-009  0.1284664E+03  0.7561462E-02  0.1121168E+00
         22   -1    0    0    0    0  0.00000000000E+00  0.00000000000E+00  0.19329433995E+04  0.19329433995E+04  0.00000000000E+00 0.  1.
         22   -1    0    0    0    0 -0.00000000000E+00 -0.00000000000E+00 -0.47590999577E+02  0.47590999577E+02  0.00000000000E+00 0. -1.
         24    2    1    2    0    0 -0.29722799580E+02 -0.77803257417E+01  0.48295801803E+02  0.98266874066E+02  0.79874375012E+02 0.  0.
         25    2    1    2    0    0  0.22695849680E+02  0.13036438752E+02  0.16641454561E+03  0.20982516694E+03  0.12509096435E+03 0.  0.
        -24    2    1    2    0    0  0.70269499002E+01 -0.52561130098E+01  0.16706420525E+04  0.16724423581E+04  0.77081571862E+02 0.  0.
        -11    1    3    3    0    0 -0.16780294028E+02 -0.14920908035E+02  0.69150493233E+02  0.72704899963E+02  0.00000000000E+00 0.  1.
         12    1    3    3    0    0 -0.12942505552E+02  0.71405822928E+01 -0.20854691430E+02  0.25561974104E+02  0.00000000000E+00 0. -1.
         13    1    5    5    0    0  0.14248482831E+02 -0.37594768928E+02  0.63574607534E+03  0.63701605806E+03  0.00000000000E+00 0. -1.
        -14    1    5    5    0    0 -0.72215329312E+01  0.32338655919E+02  0.10348959771E+04  0.10354263000E+04  0.00000000000E+00 0.  1.
          5    1    4    4  501    0  0.44909390360E+02  0.34968507604E+02  0.16885194220E+03  0.17823608123E+03  0.41800000000E+01 0.  1.
         -5    1    4    4    0  501 -0.22213540680E+02 -0.21932068853E+02 -0.24373965898E+01  0.31589085708E+02  0.41800000000E+01 0.  1.
</event>
<event>
11    1  0.8039394E-009  0.1681388E+03  0.7561462E-02  0.1079663E+00
         22   -1    0    0    0    0  0.00000000000E+00  0.00000000000E+00  0.25323474911E+03  0.25323474911E+03  0.00000000000E+00 0. -1.
         22   -1    0    0    0    0 -0.00000000000E+00 -0.00000000000E+00 -0.49318339940E+03  0.49318339940E+03  0.00000000000E+00 0. -1.
         24    2    1    2    0    0  0.70491947684E+01 -0.26677180914E+02 -0.37850558239E+03  0.38814340605E+03  0.81409241685E+02 0.  0.
         25    2    1    2    0    0 -0.96670919807E+02  0.84470712986E+02  0.20884537940E+02  0.18046727549E+03  0.12510677643E+03 0.  0.
        -24    2    1    2    0    0  0.89621725039E+02 -0.57793532072E+02  0.11767239416E+03  0.17780746698E+03  0.79978478466E+02 0.  0.
        -11    1    3    3    0    0  0.25632969947E+02 -0.24068259260E+02 -0.63545791067E+02  0.72625049497E+02  0.00000000000E+00 0.  1.
         12    1    3    3    0    0 -0.18583775179E+02 -0.26089216544E+01 -0.31495979132E+03  0.31551835655E+03  0.00000000000E+00 0. -1.
         13    1    5    5    0    0  0.68315099863E+02 -0.39216166144E+02  0.27700953112E+02  0.83499720716E+02  0.00000000000E+00 0. -1.
        -14    1    5    5    0    0  0.21306625176E+02 -0.18577365928E+02  0.89971441043E+02  0.94307746260E+02  0.00000000000E+00 0.  1.
          5    1    4    4  501    0  0.16003726787E+00  0.77795877743E+02 -0.99491233776E+01  0.78540955314E+02  0.41800000000E+01 0.  1.
         -5    1    4    4    0  501 -0.96830957075E+02  0.66748352435E+01  0.30833661318E+02  0.10192632017E+03  0.41800000000E+01 0.  1.
</event>
<event>
11    1  0.8039394E-009  0.1354590E+03  0.7561462E-02  0.1112738E+00
         22   -1    0    0    0    0  0.00000000000E+00  0.00000000000E+00  0.58816652806E+02  0.58816652806E+02  0.00000000000E+00 0.  1.
         22   -1    0    0    0    0 -0.00000000000E+00 -0.00000000000E+00 -0.20706167602E+04  0.20706167602E+04  0.00000000000E+00 0.  1.
         24    2    1    2    0    0  0.42122568486E+02  0.33506081433E+02 -0.17030962133E+04  0.17057736400E+04  0.78930544578E+02 0.  0.
         25    2    1    2    0    0 -0.64372118144E+01 -0.43923880130E+02 -0.30934837911E+03  0.33662238484E+03  0.12508982923E+03 0.  0.
        -24    2    1    2    0    0 -0.35685356671E+02  0.10417798697E+02  0.64448502314E+00  0.87037388165E+02  0.78696355489E+02 0.  0.
        -11    1    3    3    0    0  0.62657833806E+02  0.20692719398E+02 -0.14560633203E+04  0.14575577469E+04  0.00000000000E+00 0.  1.
         12    1    3    3    0    0 -0.20535265321E+02  0.12813362035E+02 -0.24703289294E+03  0.24821589305E+03  0.00000000000E+00 0. -1.
         13    1    5    5    0    0  0.18680331810E+02  0.16623292799E+02 -0.16187944816E+02  0.29788222797E+02  0.00000000000E+00 0. -1.
        -14    1    5    5    0    0 -0.54365688482E+02 -0.62054941019E+01  0.16832429839E+02  0.57249165369E+02  0.00000000000E+00 0.  1.
          5    1    4    4  501    0 -0.59173114199E+02 -0.17779325677E+02 -0.88423308130E+02  0.10795237694E+03  0.41800000000E+01 0.  1.
         -5    1    4    4    0  501  0.52735902385E+02 -0.26144554453E+02 -0.22092507098E+03  0.22867000791E+03  0.41800000000E+01 0.  1.
</event>
<event>
11    1  0.8039394E-009  0.2439897E+03  0.7561462E-02  0.1027151E+00
         22   -1    0    0    0    0  0.00000000000E+00  0.00000000000E+00  0.36619786487E+03  0.36619786487E+03  0.00000000000E+00 0.  1.
         22   -1    0    0    0    0 -0.00000000000E+00 -0.00000000000E+00 -0.90642265877E+03  0.90642265877E+03  0.00000000000E+00 0. -1.
         24    2    1    2    0    0 -0.17528400751E+03 -0.12463483972E+03 -0.68037414704E+03  0.71806402648E+03  0.80303422117E+02 0.  0.
         25    2    1    2    0    0  0.99145418555E+02  0.17777730267E+03 -0.11935085305E+03  0.26707426514E+03  0.12509777620E+03 0.  0.
        -24    2    1    2    0    0  0.76138588952E+02 -0.53142462953E+02  0.25950020619E+03  0.28748223201E+03  0.81758611861E+02 0.  0.
        -11    1    3    3    0    0 -0.41455814605E+01 -0.10028696323E+02 -0.12933357909E+03  0.12978803980E+03  0.00000000000E+00 0.  1.
         12    1    3    3    0    0 -0.17113842605E+03 -0.11460614339E+03 -0.55104056795E+03  0.58827598668E+03  0.00000000000E+00 0. -1.
         11    1    5    5    0    0  0.20275625404E+02 -0.11894854885E+01  0.38237988840E+01  0.20667300239E+02  0.00000000000E+00 0. -1.
        -12    1    5    5    0    0  0.55862963548E+02 -0.51952977465E+02  0.25567640731E+03  0.26681493178E+03  0.00000000000E+00 0.  1.
          5    1    4    4  501    0  0.35440059895E+02 -0.11766823648E+01  0.10171369129E+02  0.37125618872E+02  0.41800000000E+01 0. -1.
         -5    1    4    4    0  501  0.63705358660E+02  0.17895398503E+03 -0.12952222218E+03  0.22994864627E+03  0.41800000000E+01 0. -1.
</event>
<event>
11    1  0.8039394E-009  0.1725672E+03  0.7561462E-02  0.1075819E+00
         22   -1    0    0    0    0  0.00000000000E+00  0.00000000000E+00  0.41138526023E+03  0.41138526023E+03  0.00000000000E+00 0. -1.
         22   -1    0    0    0    0 -0.00000000000E+00 -0.00000000000E+00 -0.59248972499E+03  0.59248972499E+03  0.00000000000E+00 0.  1.
        -24    2    1    2    0    0 -0.22814552458E+02 -0.33313461563E+02 -0.45285192305E+03  0.46205032639E+03  0.82373232213E+02 0.  0.
         25    2    1    2    0    0  0.35378778175E+02  0.14746443193E+03 -0.39141848264E+02  0.20044039519E+03  0.12508737390E+03 0.  0.
         24    2    1    2    0    0 -0.12564225717E+02 -0.11415097037E+03  0.31088930655E+03  0.34138426363E+03  0.81870328742E+02 0.  0.
        -11    1    5    5    0    0  0.21909558931E+02 -0.12374136796E+01  0.65371630355E+02  0.68956580690E+02  0.00000000000E+00 0.  1.
         12    1    5    5    0    0 -0.34473784648E+02 -0.11291355669E+03  0.24551767619E+03  0.27242768295E+03  0.00000000000E+00 0. -1.
         11    1    3    3    0    0  0.31592101411E+01  0.26398737472E+02 -0.12573715765E+03  0.12851734031E+03  0.00000000000E+00 0. -1.
        -12    1    3    3    0    0 -0.25973762599E+02 -0.59712199034E+02 -0.32711476540E+03  0.33353298608E+03  0.00000000000E+00 0.  1.
          5    1    4    4  501    0  0.79666327740E+02  0.65217703472E+02 -0.22379517956E+02  0.10544376627E+03  0.41800000000E+01 0.  1.
         -5    1    4    4    0  501 -0.44287549565E+02  0.82246728458E+02 -0.16762330308E+02  0.94996628919E+02  0.41800000000E+01 0.  1.
</event>
<event>
11    1  0.8039394E-009  0.1555354E+03  0.7561462E-02  0.1091353E+00
         22   -1    0    0    0    0  0.00000000000E+00  0.00000000000E+00  0.38211744693E+02  0.38211744693E+02  0.00000000000E+00 0. -1.
         22   -1    0    0    0    0 -0.00000000000E+00 -0.00000000000E+00 -0.38447530581E+04  0.38447530581E+04  0.00000000000E+00 0. -1.
        -24    2    1    2    0    0  0.46876302929E+01  0.46266666825E+01 -0.28514167611E+04  0.28525300257E+04  0.79414242691E+02 0.  0.
         25    2    1    2    0    0 -0.88272125105E+02  0.34155300598E+02 -0.86547971702E+03  0.87958084035E+03  0.12509500995E+03 0.  0.
         24    2    1    2    0    0  0.83584494812E+02 -0.38781967281E+02 -0.89644835216E+02  0.15085393670E+03  0.78932280961E+02 0.  0.
        -11    1    5    5    0    0  0.53920500360E+02  0.18107105884E+02 -0.36929991140E+02  0.67816752268E+02  0.00000000000E+00 0.  1.
         12    1    5    5    0    0  0.29663994452E+02 -0.56889073164E+02 -0.52714844076E+02  0.83037184431E+02  0.00000000000E+00 0. -1.
         13    1    3    3    0    0  0.34086084999E+02 -0.14809189471E+02 -0.20523670689E+04  0.20527035243E+04  0.00000000000E+00 0. -1.
        -14    1    3    3    0    0 -0.29398454706E+02  0.19435856153E+02 -0.79904969226E+03  0.79982650140E+03  0.00000000000E+00 0.  1.
          5    1    4    4  501    0 -0.77466386424E+02  0.78872326621E+02 -0.61972676474E+03  0.62952412207E+03  0.41800000000E+01 0. -1.
         -5    1    4    4    0  501 -0.10805738681E+02 -0.44717026022E+02 -0.24575295228E+03  0.25005671828E+03  0.41800000000E+01 0. -1.
</event>
<event>
11    1  0.8039394E-009  0.2136050E+03  0.7561462E-02  0.1045299E+00
         22   -1    0    0    0    0  0.00000000000E+00  0.00000000000E+00  0.14077309665E+04  0.14077309665E+04  0.00000000000E+00 0. -1.
         22   -1    0    0    0    0 -0.00000000000E+00 -0.00000000000E+00 -0.14266008180E+04  0.14266008180E+04  0.00000000000E+00 0. -1.
         24    2    1    2    0    0 -0.55265436219E+02  0.16474129152E+03 -0.13308746368E+04  0.13446895368E+04  0.82272047742E+02 0.  0.
         25    2    1    2    0    0  0.14037754063E+03 -0.12050243456E+03  0.59773914091E+02  0.23118849511E+03  0.12509399993E+03 0.  0.
        -24    2    1    2    0    0 -0.85112104409E+02 -0.44238856956E+02  0.12522308712E+04  0.12584537526E+04  0.80140788083E+02 0.  0.
        -11    1    3    3    0    0 -0.51329440652E+02  0.13552640290E+03 -0.80161348541E+03  0.81460806364E+03  0.00000000000E+00 0.  1.
         12    1    3    3    0    0 -0.39359955670E+01  0.29214888621E+02 -0.52926115143E+03  0.53008147317E+03  0.00000000000E+00 0. -1.
         11    1    5    5    0    0 -0.53215087701E+02 -0.66539763618E+02  0.92528928175E+03  0.92920376701E+03  0.00000000000E+00 0. -1.
        -12    1    5    5    0    0 -0.31897016708E+02  0.22300906662E+02  0.32694158942E+03  0.32924998558E+03  0.00000000000E+00 0.  1.
          5    1    4    4  501    0  0.60878693437E+01  0.20024804273E+02  0.26361577667E+02  0.33918433284E+02  0.41800000000E+01 0.  1.
         -5    1    4    4    0  501  0.13428967128E+03 -0.14052723884E+03  0.33412336425E+02  0.19727006183E+03  0.41800000000E+01 0.  1.
</event>
<event>
11    1  0.8039394E-009  0.1663936E+03  0.7561462E-02  0.1081213E+00
         22   -1    0    0    0    0  0.00000000000E+00  0.00000000000E+00  0.20105047091E+04  0.20105047091E+04  0.00000000000E+00 0.  1.
         22   -1    0    0    0    0 -0.00000000000E+00 -0.00000000000E+00 -0.79386523755E+02  0.79386523755E+02  0.00000000000E+00 0.  1.
         24    2    1    2    0    0 -0.19748573768E+02 -0.88263516356E+01 -0.19638459027E+02  0.85107151802E+02  0.79935271100E+02 0.  0.
         25    2    1    2    0    0 -0.42713303786E+02  0.99437011239E+02  0.25750603878E+03  0.30607104308E+03  0.12513184200E+03 0.  0.
        -24    2    1    2    0    0  0.62461877554E+02 -0.90610659603E+02  0.16932506056E+04  0.16987130380E+04  0.80103646930E+02 0.  0.
        -13    1    3    3    0    0  0.11638609392E+02 -0.66932669416E+00 -0.43377783978E+02  0.44917005351E+02  0.00000000000E+00 0.  1.
         14    1    3    3    0    0 -0.31387183160E+02 -0.81570249414E+01  0.23739324951E+02  0.40190146451E+02  0.00000000000E+00 0. -1.
         11    1    5    5    0    0 -0.15657913650E+02 -0.71182811123E+01  0.41578290422E+03  0.41613851496E+03  0.00000000000E+00 0. -1.
        -12    1    5    5    0    0  0.78119791204E+02 -0.83492378491E+02  0.12774677014E+04  0.12825745231E+04  0.00000000000E+00 0.  1.
          5    1    4    4  501    0  0.31221595778E+02  0.44183380757E+01  0.11575010323E+03  0.12004111193E+03  0.41800000000E+01 0.  1.
         -5    1    4    4    0  501 -0.73934899563E+02  0.95018673163E+02  0.14175593555E+03  0.18602993116E+03  0.41800000000E+01 0.  1.
</event>
<event>
11    1  0.8039394E-009  0.1849198E+03  0.7561462E-02  0.1065731E+00
         22   -1    0    0    0    0  0.00000000000E+00  0.00000000000E+00  0.11819136909E+04  0.11819136909E+04  0.00000000000E+00 0.  1.
         22   -1    0    0    0    0 -0.00000000000E+00 -0.00000000000E+00 -0.25799019957E+03  0.25799019957E+03  0.00000000000E+00 0.  1.
        -24    2    1    2    0    0  0.10571118333E+03 -0.58999505395E+02 -0.13509898363E+03  0.19873678990E+03  0.81171302577E+02 0.  0.
         25    2    1    2    0    0 -0.21821187960E+03  0.90554116116E+02  0.12206162412E+03  0.29387818056E+03  0.12509545388E+03 0.  0.
         24    2    1    2    0    0  0.11250069627E+03 -0.31554610721E+02  0.93696085085E+03  0.94728892002E+03  0.76213921592E+02 0.  0.
        -13    1    5    5    0    0  0.96269529032E+02 -0.30463488677E+02  0.91149276995E+03  0.91706865393E+03  0.00000000000E+00 0.  1.
         14    1    5    5    0    0  0.16231167243E+02 -0.10911220442E+01  0.25468080907E+02  0.30220266089E+02  0.00000000000E+00 0. -1.
         13    1    3    3    0    0  0.11076738029E+00 -0.44135520516E+01  0.10135823426E+02  0.11055615209E+02  0.00000000000E+00 0. -1.
        -14    1    3    3    0    0  0.10560041595E+03 -0.54585953344E+02 -0.14523480706E+03  0.18768117469E+03  0.00000000000E+00 0.  1.
          5    1    4    4  501    0 -0.14240489400E+03  0.12639947975E+02  0.19467904606E+02  0.14434470489E+03  0.41800000000E+01 0. -1.
         -5    1    4    4    0  501 -0.75806985609E+02  0.77914168141E+02  0.10259371951E+03  0.14953347567E+03  0.41800000000E+01 0. -1.
</event>
<event>
11    1  0.8039394E-009  0.1581746E+03  0.7561462E-02  0.1088807E+00
         22   -1    0    0    0    0  0.00000000000E+00  0.00000000000E+00  0.24178294567E+04  0.24178294567E+04  0.00000000000E+00 0. -1.
         22   -1    0    0    0    0 -0.00000000000E+00 -0.00000000000E+00 -0.13355460851E+03  0.13355460851E+03  0.00000000000E+00 0.  1.
        -24    2    1    2    0    0 -0.97028136036E+02  0.10888939841E+02 -0.77851054308E+02  0.14947111157E+03  0.82144983672E+02 0.  0.
         25    2    1    2    0    0  0.91098890197E+02  0.10744831432E+02  0.29677435572E+03  0.33486655244E+03  0.12508449358E+03 0.  0.
         24    2    1    2    0    0  0.59292458385E+01 -0.21633771273E+02  0.20653515468E+04  0.20670464012E+04  0.80626527614E+02 0.  0.
        -13    1    5    5    0    0  0.43333835704E+02 -0.10310997884E+02  0.10596042588E+04  0.10605401092E+04  0.00000000000E+00 0.  1.
         14    1    5    5    0    0 -0.37404589866E+02 -0.11322773389E+02  0.10057472880E+04  0.10065062920E+04  0.00000000000E+00 0. -1.
         13    1    3    3    0    0 -0.93708141019E+00  0.22189713614E+02  0.42090428309E+01  0.22604812616E+02  0.00000000000E+00 0. -1.
        -14    1    3    3    0    0 -0.96091054626E+02 -0.11300773773E+02 -0.82060097139E+02  0.12686629895E+03  0.00000000000E+00 0.  1.
          5    1    4    4  501    0 -0.27714783871E+02  0.13772501353E+02  0.10182116474E+03  0.10650264329E+03  0.41800000000E+01 0.  1.
         -5    1    4    4    0  501  0.11881367407E+03 -0.30276699205E+01  0.19495319098E+03  0.22836390915E+03  0.41800000000E+01 0.  1.
</event>
<event>
11    1  0.8039394E-009  0.1960441E+03  0.7561462E-02  0.1057357E+00
         22   -1    0    0    0    0  0.00000000000E+00  0.00000000000E+00  0.11721951903E+04  0.11721951903E+04  0.00000000000E+00 0.  1.
         22   -1    0    0    0    0 -0.00000000000E+00 -0.00000000000E+00 -0.66820547281E+03  0.66820547281E+03  0.00000000000E+00 0.  1.
        -24    2    1    2    0    0  0.21596315447E+02 -0.46525041597E+02 -0.61759503881E+03  0.62507479970E+03  0.81632670619E+02 0.  0.
         25    2    1    2    0    0 -0.64834414460E+01 -0.11201776094E+03  0.14304767602E+03  0.22066600240E+03  0.12506331686E+03 0.  0.
         24    2    1    2    0    0 -0.15112874001E+02  0.15854280253E+03  0.97853708025E+03  0.99465986096E+03  0.80306926195E+02 0.  0.
        -13    1    5    5    0    0 -0.89945260175E+01  0.15704149213E+03  0.97464064870E+03  0.98725241243E+03  0.00000000000E+00 0.  1.
         14    1    5    5    0    0 -0.61183479834E+01  0.15013104006E+01  0.38964315477E+01  0.74074485331E+01  0.00000000000E+00 0. -1.
         13    1    3    3    0    0 -0.12625573540E+02  0.17361345236E+02 -0.20923065055E+03  0.21032899597E+03  0.00000000000E+00 0. -1.
        -14    1    3    3    0    0  0.34221888986E+02 -0.63886386833E+02 -0.40836438827E+03  0.41474580373E+03  0.00000000000E+00 0.  1.
          5    1    4    4  501    0 -0.59634812868E+02 -0.27762707978E+02  0.75547220297E+02  0.10025933251E+03  0.41800000000E+01 0.  1.
         -5    1    4    4    0  501  0.53151371422E+02 -0.84255052958E+02  0.67500455719E+02  0.12040666990E+03  0.41800000000E+01 0.  1.
</event>
<event>
11    1  0.8039394E-009  0.2024638E+03  0.7561462E-02  0.1052795E+00
         22   -1    0    0    0    0  0.00000000000E+00  0.00000000000E+00  0.16307727745E+03  0.16307727745E+03  0.00000000000E+00 0. -1.
         22   -1    0    0    0    0 -0.00000000000E+00 -0.00000000000E+00 -0.92157028867E+03  0.92157028867E+03  0.00000000000E+00 0.  1.
        -24    2    1    2    0    0 -0.72005652798E+00 -0.99931411800E+02 -0.33783367984E+03  0.36089073540E+03  0.78254214715E+02 0.  0.
         25    2    1    2    0    0 -0.32215186862E+02  0.24474802345E+03 -0.47189495802E+03  0.54705697737E+03  0.12508825619E+03 0.  0.
         24    2    1    2    0    0  0.32935243390E+02 -0.14481661165E+03  0.51235626626E+02  0.17669985335E+03  0.80877484319E+02 0.  0.
        -11    1    5    5    0    0  0.33862200906E+02 -0.17430530337E+02  0.27850393119E+02  0.47181738362E+02  0.00000000000E+00 0.  1.
         12    1    5    5    0    0 -0.92695751637E+00 -0.12738608132E+03  0.23385233508E+02  0.12951811499E+03  0.00000000000E+00 0. -1.
         11    1    3    3    0    0 -0.28257298839E+02 -0.45199801301E+02 -0.81855005630E+02  0.97681824932E+02  0.00000000000E+00 0. -1.
        -12    1    3    3    0    0  0.27537242311E+02 -0.54731610499E+02 -0.25597867421E+03  0.26320891047E+03  0.00000000000E+00 0.  1.
          5    1    4    4  501    0 -0.69575823936E+02  0.77170202965E+02 -0.15573512603E+03  0.18726168156E+03  0.41800000000E+01 0. -1.
         -5    1    4    4    0  501  0.37360637074E+02  0.16757782049E+03 -0.31615983199E+03  0.35979529581E+03  0.41800000000E+01 0. -1.
</event>
<event>
11    1  0.8039394E-009  0.1489399E+03  0.7561462E-02  0.1097967E+00
         22   -1    0    0    0    0  0.00000000000E+00  0.00000000000E+00  0.28271192262E+03  0.28271192262E+03  0.00000000000E+00 0. -1.
         22   -1    0    0    0    0 -0.00000000000E+00 -0.00000000000E+00 -0.56806776744E+03  0.56806776744E+03  0.00000000000E+00 0.  1.
         24    2    1    2    0    0 -0.91775716932E+01 -0.26879905863E+02 -0.28944553555E+03  0.30187048208E+03  0.80872200031E+02 0.  0.
         25    2    1    2    0    0 -0.13146389539E+02  0.10349162752E+03 -0.23463414383E+03  0.28562751553E+03  0.12508617691E+03 0.  0.
        -24    2    1    2    0    0  0.22323961232E+02 -0.76611721657E+02  0.23872383456E+03  0.26328169246E+03  0.77204049493E+02 0.  0.
        -13    1    3    3    0    0  0.22311180210E+02 -0.44385333812E+02 -0.16547772524E+03  0.17277362117E+03  0.00000000000E+00 0.  1.
         14    1    3    3    0    0 -0.31488751903E+02  0.17505427949E+02 -0.12396781031E+03  0.12909686091E+03  0.00000000000E+00 0. -1.
         11    1    5    5    0    0  0.24126261066E+02 -0.87776643236E+02  0.23389323854E+03  0.25098378953E+03  0.00000000000E+00 0. -1.
        -12    1    5    5    0    0 -0.18022998339E+01  0.11164921579E+02  0.48305960116E+01  0.12297902926E+02  0.00000000000E+00 0.  1.
          5    1    4    4  501    0  0.30269849119E+02  0.10067583919E+03 -0.10425177121E+03  0.14811412007E+03  0.41800000000E+01 0. -1.
         -5    1    4    4    0  501 -0.43416238658E+02  0.28157883288E+01 -0.13038237262E+03  0.13751339547E+03  0.41800000000E+01 0. -1.
</event>
<event>
11    1  0.8039394E-009  0.1754350E+03  0.7561462E-02  0.1073396E+00
         22   -1    0    0    0    0  0.00000000000E+00  0.00000000000E+00  0.36644609615E+03  0.36644609615E+03  0.00000000000E+00 0.  1.
         22   -1    0    0    0    0 -0.00000000000E+00 -0.00000000000E+00 -0.14141120718E+04  0.14141120718E+04  0.00000000000E+00 0. -1.
         24    2    1    2    0    0 -0.12535086346E+03  0.14881064325E+02 -0.13265130560E+04  0.13349191966E+04  0.80237700920E+02 0.  0.
         25    2    1    2    0    0  0.70840531366E+02  0.25232932745E+02 -0.16656629125E+01  0.14596281897E+03  0.12508912146E+03 0.  0.
        -24    2    1    2    0    0  0.54510332092E+02 -0.40113997070E+02  0.28051274328E+03  0.29967615237E+03  0.80857208058E+02 0.  0.
        -11    1    3    3    0    0 -0.74427903586E+02  0.27571741128E+02 -0.45835323822E+03  0.46517459596E+03  0.00000000000E+00 0.  1.
         12    1    3    3    0    0 -0.50922959872E+02 -0.12690676804E+02 -0.86815981779E+03  0.86974460065E+03  0.00000000000E+00 0. -1.
         13    1    5    5    0    0  0.44733479688E+02 -0.10980535051E+02  0.53516625764E+02  0.70609387394E+02  0.00000000000E+00 0. -1.
        -14    1    5    5    0    0  0.97768524044E+01 -0.29133462018E+02  0.22699611751E+03  0.22906676498E+03  0.00000000000E+00 0.  1.
          5    1    4    4  501    0 -0.32000629069E+02 -0.86518977380E+01  0.14464294517E+02  0.36408567826E+02  0.41800000000E+01 0.  1.
         -5    1    4    4    0  501  0.10284116043E+03  0.33884830483E+02 -0.16129957429E+02  0.10955425114E+03  0.41800000000E+01 0.  1.
</event>
<event>
11    1  0.8039394E-009  0.1385050E+03  0.7561462E-02  0.1109239E+00
         22   -1    0    0    0    0  0.00000000000E+00  0.00000000000E+00  0.18886759465E+04  0.18886759465E+04  0.00000000000E+00 0.  1.
         22   -1    0    0    0    0 -0.00000000000E+00 -0.00000000000E+00 -0.15422004536E+04  0.15422004536E+04  0.00000000000E+00 0. -1.
        -24    2    1    2    0    0  0.26402085676E+02 -0.39848929945E+01 -0.14485687585E+04  0.14512883938E+04  0.84697132158E+02 0.  0.
         25    2    1    2    0    0  0.29812833567E+02 -0.16579561432E+02 -0.44657600042E+02  0.13713200045E+03  0.12508875810E+03 0.  0.
         24    2    1    2    0    0 -0.56214919243E+02  0.20564454427E+02  0.18397018514E+04  0.18424560059E+04  0.80982823538E+02 0.  0.
        -11    1    5    5    0    0  0.17600864886E+02  0.20130459248E+02  0.44652967284E+03  0.44732960394E+03  0.00000000000E+00 0.  1.
         12    1    5    5    0    0 -0.73815784129E+02  0.43399517884E+00  0.13931721786E+04  0.13951264020E+04  0.00000000000E+00 0. -1.
         13    1    3    3    0    0 -0.27515281747E+02  0.18777731346E+01 -0.79320977818E+03  0.79368908835E+03  0.00000000000E+00 0. -1.
        -14    1    3    3    0    0  0.53917367422E+02 -0.58626661290E+01 -0.65535898035E+03  0.65759930543E+03  0.00000000000E+00 0.  1.
          5    1    4    4  501    0  0.78727030490E+02 -0.13377906797E+02 -0.21791857144E+02  0.82881066341E+02  0.41800000000E+01 0. -1.
         -5    1    4    4    0  501 -0.48914196923E+02 -0.32016546351E+01 -0.22865742898E+02  0.54250934106E+02  0.41800000000E+01 0. -1.
</event>
<event>
11    1  0.8039394E-009  0.1647781E+03  0.7561462E-02  0.1082667E+00
         22   -1    0    0    0    0  0.00000000000E+00  0.00000000000E+00  0.53297227095E+03  0.53297227095E+03  0.00000000000E+00 0. -1.
         22   -1    0    0    0    0 -0.00000000000E+00 -0.00000000000E+00 -0.35146626343E+03  0.35146626343E+03  0.00000000000E+00 0. -1.
         24    2    1    2    0    0 -0.55968236482E+01  0.10449134678E+03 -0.24497824907E+03  0.27789269259E+03  0.79121679006E+02 0.  0.
         25    2    1    2    0    0  0.32175572252E+02 -0.11961388150E+03  0.49131466050E+01  0.17611025731E+03  0.12509170885E+03 0.  0.
        -24    2    1    2    0    0 -0.26578748603E+02  0.15122534721E+02  0.42157110999E+03  0.43043558448E+03  0.81347837577E+02 0.  0.
        -13    1    3    3    0    0  0.11213172077E+02 -0.13807428343E+01 -0.92683284335E+00  0.11335814833E+02  0.00000000000E+00 0.  1.
         14    1    3    3    0    0 -0.16809995725E+02  0.10587208961E+03 -0.24405141623E+03  0.26655687775E+03  0.00000000000E+00 0. -1.
         11    1    5    5    0    0 -0.53428200609E+02  0.26187474997E+01  0.20567735227E+03  0.21251965484E+03  0.00000000000E+00 0. -1.
        -12    1    5    5    0    0  0.26849452006E+02  0.12503787221E+02  0.21589375772E+03  0.21791592964E+03  0.00000000000E+00 0.  1.
          5    1    4    4  501    0 -0.14118527294E+02  0.11843819966E+02  0.28998128230E+02  0.34611742591E+02  0.41800000000E+01 0.  1.
         -5    1    4    4    0  501  0.46294099546E+02 -0.13145770147E+03 -0.24084981625E+02  0.14149851472E+03  0.41800000000E+01 0.  1.
</event>
<event>
11    1  0.8039394E-009  0.3169808E+03  0.7561462E-02  0.9932501E-01
         22   -1    0    0    0    0  0.00000000000E+00  0.00000000000E+00  0.12731048562E+04  0.12731048562E+04  0.00000000000E+00 0.  1.
         22   -1    0    0    0    0 -0.00000000000E+00 -0.00000000000E+00 -0.15007460905E+04  0.15007460905E+04  0.00000000000E+00 0.  1.
        -24    2    1    2    0    0 -0.11950163828E+03 -0.26605148323E+03 -0.14483458134E+04  0.14796049296E+04  0.80381087868E+02 0.  0.
         25    2    1    2    0    0  0.89857016574E+02  0.25965534493E+03  0.64581857333E+03  0.71289903460E+03  0.12509285470E+03 0.  0.
         24    2    1    2    0    0  0.29644621706E+02  0.63961382968E+01  0.57488600580E+03  0.58134698241E+03  0.80936271874E+02 0.  0.
        -13    1    5    5    0    0  0.48526802720E+02 -0.19189674062E+02  0.28654457017E+03  0.29125742027E+03  0.00000000000E+00 0.  1.
         14    1    5    5    0    0 -0.18882181013E+02  0.25585812359E+02  0.28834143564E+03  0.29008956213E+03  0.00000000000E+00 0. -1.
         11    1    3    3    0    0 -0.93233838728E+01 -0.58575561625E+02 -0.45552716363E+03  0.45937241832E+03  0.00000000000E+00 0. -1.
        -12    1    3    3    0    0 -0.11017825441E+03 -0.20747592160E+03 -0.99281864978E+03  0.10202325113E+04  0.00000000000E+00 0.  1.
          5    1    4    4  501    0  0.71672061946E+02  0.23292120535E+03  0.63221846333E+03  0.67757422482E+03  0.41800000000E+01 0. -1.
         -5    1    4    4    0  501  0.18184954628E+02  0.26734139576E+02  0.13600109997E+02  0.35324809775E+02  0.41800000000E+01 0. -1.
</event>
<event>
11    1  0.8039394E-009  0.1516874E+03  0.7561462E-02  0.1095167E+00
         22   -1    0    0    0    0  0.00000000000E+00  0.00000000000E+00  0.16806538684E+03  0.16806538684E+03  0.00000000000E+00 0. -1.
         22   -1    0    0    0    0 -0.00000000000E+00 -0.00000000000E+00 -0.18412893653E+04  0.18412893653E+04  0.00000000000E+00 0.  1.
         24    2    1    2    0    0  0.22979378762E+02  0.78564244684E+02 -0.13030231843E+04  0.13100934884E+04  0.10851330331E+03 0.  0.
         25    2    1    2    0    0  0.29286930595E+02 -0.10969368711E+03 -0.50274889216E+03  0.53037209027E+03  0.12509067221E+03 0.  0.
        -24    2    1    2    0    0 -0.52266309356E+02  0.31129442429E+02  0.13254809802E+03  0.16888917350E+03  0.85168922484E+02 0.  0.
        -11    1    3    3    0    0  0.23300333014E+02  0.83262814789E+02 -0.13024869522E+04  0.13053535393E+04  0.00000000000E+00 0.  1.
         12    1    3    3    0    0 -0.32095425187E+00 -0.46985701053E+01 -0.53623213817E+00  0.47399491108E+01  0.00000000000E+00 0. -1.
         13    1    5    5    0    0 -0.64508535753E+02  0.47117896055E+02  0.82006428246E+02  0.11448363022E+03  0.00000000000E+00 0. -1.
        -14    1    5    5    0    0  0.12242226397E+02 -0.15988453626E+02  0.50541669771E+02  0.54405543282E+02  0.00000000000E+00 0.  1.
          5    1    4    4  501    0  0.39711802702E+02  0.15743197831E+02 -0.13458948345E+03  0.14126810329E+03  0.41800000000E+01 0. -1.
         -5    1    4    4    0  501 -0.10424872108E+02 -0.12543688494E+03 -0.36815940871E+03  0.38910398698E+03  0.41800000000E+01 0. -1.
</event>
<event>
11    1  0.8039394E-009  0.1684453E+03  0.7561462E-02  0.1079393E+00
         22   -1    0    0    0    0  0.00000000000E+00  0.00000000000E+00  0.22272972495E+04  0.22272972495E+04  0.00000000000E+00 0.  1.
         22   -1    0    0    0    0 -0.00000000000E+00 -0.00000000000E+00 -0.63372611570E+03  0.63372611570E+03  0.00000000000E+00 0. -1.
        -24    2    1    2    0    0 -0.35606668371E+02 -0.10455898198E+03 -0.53117489801E+03  0.55094616162E+03  0.95887878165E+02 0.  0.
         25    2    1    2    0    0  0.36519688919E+02  0.12987789899E+03  0.31430484727E+00  0.18398416996E+03  0.12509244454E+03 0.  0.
         24    2    1    2    0    0 -0.91302054887E+00 -0.25318917010E+02  0.21244317270E+04  0.21260930337E+04  0.80122056281E+02 0.  0.
        -13    1    5    5    0    0 -0.29538208070E+02 -0.39082137888E+02  0.15593833954E+04  0.15601527147E+04  0.00000000000E+00 0.  1.
         14    1    5    5    0    0  0.28625187521E+02  0.13763220878E+02  0.56504833156E+03  0.56594031895E+03  0.00000000000E+00 0. -1.
         11    1    3    3    0    0 -0.15760727696E+02  0.50541030973E+00 -0.24405148973E+03  0.24456039258E+03  0.00000000000E+00 0. -1.
        -12    1    3    3    0    0 -0.19845940674E+02 -0.10506439229E+03 -0.28712340828E+03  0.30638576904E+03  0.00000000000E+00 0.  1.
          5    1    4    4  501    0 -0.40591083786E+02  0.41112193832E+02 -0.25886526524E+02  0.63446301863E+02  0.41800000000E+01 0. -1.
         -5    1    4    4    0  501  0.77110772705E+02  0.88765705162E+02  0.26200831371E+02  0.12053786809E+03  0.41800000000E+01 0. -1.
</event>
<event>
11    1  0.8039394E-009  0.1931769E+03  0.7561462E-02  0.1059456E+00
         22   -1    0    0    0    0  0.00000000000E+00  0.00000000000E+00  0.52230228670E+03  0.52230228670E+03  0.00000000000E+00 0.  1.
         22   -1    0    0    0    0 -0.00000000000E+00 -0.00000000000E+00 -0.18642357905E+04  0.18642357905E+04  0.00000000000E+00 0. -1.
         24    2    1    2    0    0  0.72446925109E+02  0.34184410453E+02 -0.17631728818E+04  0.17669535024E+04  0.83240239979E+02 0.  0.
         25    2    1    2    0    0 -0.70168762633E+02 -0.17476325700E+03  0.76344572178E+02  0.23863077914E+03  0.12510117428E+03 0.  0.
        -24    2    1    2    0    0 -0.22781624758E+01  0.14057884654E+03  0.34489480583E+03  0.38095379568E+03  0.80036024574E+02 0.  0.
        -13    1    3    3    0    0  0.45718449478E+02 -0.48460426935E+01 -0.35221665503E+03  0.35520449439E+03  0.00000000000E+00 0.  1.
         14    1    3    3    0    0  0.26728475630E+02  0.39030453147E+02 -0.14109562268E+04  0.14117490080E+04  0.00000000000E+00 0. -1.
         11    1    5    5    0    0  0.13679855949E+02 -0.26726143670E+00  0.73593945833E+02  0.74855051604E+02  0.00000000000E+00 0. -1.
        -12    1    5    5    0    0 -0.15958018425E+02  0.14084610798E+03  0.27130086000E+03  0.30609874407E+03  0.00000000000E+00 0.  1.
          5    1    4    4  501    0 -0.93604787056E+02 -0.15779833361E+03  0.33174344210E+02  0.18649444968E+03  0.41800000000E+01 0. -1.
         -5    1    4    4    0  501  0.23436024423E+02 -0.16964923391E+02  0.43170227968E+02  0.52136329456E+02  0.41800000000E+01 0. -1.
</event>
<event>
11    1  0.8039394E-009  0.1717683E+03  0.7561462E-02  0.1076503E+00
         22   -1    0    0    0    0  0.00000000000E+00  0.00000000000E+00  0.27200903326E+03  0.27200903326E+03  0.00000000000E+00 0.  1.
         22   -1    0    0    0    0 -0.00000000000E+00 -0.00000000000E+00 -0.86222051653E+03  0.86222051653E+03  0.00000000000E+00 0. -1.
         24    2    1    2    0    0  0.12558181677E+03  0.29396116399E+02 -0.61805582792E+03  0.63650621450E+03  0.80698390960E+02 0.  0.
         25    2    1    2    0    0 -0.90352996658E+02  0.33394283470E+02 -0.19313399073E+03  0.24945472288E+03  0.12509227881E+03 0.  0.
        -24    2    1    2    0    0 -0.35228820115E+02 -0.62790399869E+02  0.22097833538E+03  0.24826861242E+03  0.87305069290E+02 0.  0.
        -11    1    3    3    0    0  0.23542674968E+02  0.35110716041E+02 -0.10173706001E+03  0.11017009260E+03  0.00000000000E+00 0.  1.
         12    1    3    3    0    0  0.10203914180E+03 -0.57145996416E+01 -0.51631876791E+03  0.52633612189E+03  0.00000000000E+00 0. -1.
         11    1    5    5    0    0 -0.44105988997E+02  0.35260320710E+01  0.65944361215E+02  0.79413033840E+02  0.00000000000E+00 0. -1.
        -12    1    5    5    0    0  0.88771688822E+01 -0.66316431940E+02  0.15503397416E+03  0.16885557858E+03  0.00000000000E+00 0.  1.
          5    1    4    4  501    0  0.31805347566E+02  0.67476677653E+01 -0.40480973268E+02  0.52089276735E+02  0.41800000000E+01 0.  1.
         -5    1    4    4    0  501 -0.12215834422E+03  0.26646615705E+02 -0.15265301746E+03  0.19736544614E+03  0.41800000000E+01 0.  1.
</event>
<event>
11    1  0.8039394E-009  0.1337577E+03  0.7561462E-02  0.1114736E+00
         22   -1    0    0    0    0  0.00000000000E+00  0.00000000000E+00  0.44359230580E+03  0.44359230580E+03  0.00000000000E+00 0.  1.
         22   -1    0    0    0    0 -0.00000000000E+00 -0.00000000000E+00 -0.78376761412E+03  0.78376761412E+03  0.00000000000E+00 0. -1.
         24    2    1    2    0    0  0.32443235240E+01  0.25563739585E+02 -0.63779722032E+03  0.64329953857E+03  0.79906017727E+02 0.  0.
         25    2    1    2    0    0  0.32791327685E+02  0.63092613876E+01 -0.10723279440E+03  0.16811244639E+03  0.12509134457E+03 0.  0.
        -24    2    1    2    0    0 -0.36035651209E+02 -0.31873000973E+02  0.40485470640E+03  0.41594793496E+03  0.82406886585E+02 0.  0.
        -13    1    3    3    0    0  0.25539095784E+02 -0.17631037617E+02 -0.15603489046E+03  0.15909112464E+03  0.00000000000E+00 0.  1.
         14    1    3    3    0    0 -0.22294772260E+02  0.43194777202E+02 -0.48176232986E+03  0.48420841393E+03  0.00000000000E+00 0. -1.
         13    1    5    5    0    0  0.66822906664E+01 -0.22932371145E+02  0.29012395430E+02  0.37580124315E+02  0.00000000000E+00 0. -1.
        -14    1    5    5    0    0 -0.42717941876E+02 -0.89406298273E+01  0.37584231097E+03  0.37836781064E+03  0.00000000000E+00 0.  1.
          5    1    4    4  501    0  0.35158978799E+00  0.12346620386E+02  0.26912576220E+02  0.29905213745E+02  0.41800000000E+01 0.  1.
         -5    1    4    4    0  501  0.32439737897E+02 -0.60373589987E+01 -0.13414537062E+03  0.13820723265E+03  0.41800000000E+01 0.  1.
</event>
<event>
11    1  0.8039394E-009  0.1945491E+03  0.7561462E-02  0.1058447E+00
         22   -1    0    0    0    0  0.00000000000E+00  0.00000000000E+00  0.22819176470E+03  0.22819176470E+03  0.00000000000E+00 0. -1.
         22   -1    0    0    0    0 -0.00000000000E+00 -0.00000000000E+00 -0.98640599239E+03  0.98640599239E+03  0.00000000000E+00 0. -1.
         24    2    1    2    0    0  0.66417140792E+00  0.57682951209E+01 -0.21918035976E+03  0.23394039583E+03  0.81574287250E+02 0.  0.
         25    2    1    2    0    0 -0.97592075622E+02  0.10762235214E+03 -0.71248492540E+03  0.73782939637E+03  0.12510261916E+03 0.  0.
        -24    2    1    2    0    0  0.96927904214E+02 -0.11339064726E+03  0.17345105747E+03  0.24282796489E+03  0.81410648532E+02 0.  0.
        -13    1    3    3    0    0  0.34487740148E+02 -0.12114450261E+02 -0.60265459308E+02  0.70484677138E+02  0.00000000000E+00 0.  1.
         14    1    3    3    0    0 -0.33823568740E+02  0.17882745382E+02 -0.15891490046E+03  0.16345571869E+03  0.00000000000E+00 0. -1.
         11    1    5    5    0    0  0.82665971991E+02 -0.51188012507E+02  0.14089197289E+03  0.17118534860E+03  0.00000000000E+00 0. -1.
        -12    1    5    5    0    0  0.14261932223E+02 -0.62202634750E+02  0.32559084581E+02  0.71642616293E+02  0.00000000000E+00 0.  1.
          5    1    4    4  501    0 -0.92409340888E+02  0.13146235463E+03 -0.66645143783E+03  0.68556314688E+03  0.41800000000E+01 0.  1.
         -5    1    4    4    0  501 -0.51827347335E+01 -0.23840002493E+02 -0.46033487562E+02  0.52266249486E+02  0.41800000000E+01 0.  1.
</event>
<event>
11    1  0.8039394E-009  0.1420975E+03  0.7561462E-02  0.1105239E+00
         22   -1    0    0    0    0  0.00000000000E+00  0.00000000000E+00  0.20732157192E+03  0.20732157192E+03  0.00000000000E+00 0. -1.
         22   -1    0    0    0    0 -0.00000000000E+00 -0.00000000000E+00 -0.10992095016E+04  0.10992095016E+04  0.00000000000E+00 0. -1.
         24    2    1    2    0    0 -0.67744396990E+02 -0.14222500040E+02 -0.97862617688E+03  0.98447967468E+03  0.81850185962E+02 0.  0.
         25    2    1    2    0    0  0.35498458439E+02  0.30301224607E+02 -0.62359773762E+02  0.14735598948E+03  0.12508693572E+03 0.  0.
        -24    2    1    2    0    0  0.32245938551E+02 -0.16078724567E+02  0.14909802098E+03  0.17469540935E+03  0.83605862525E+02 0.  0.
        -11    1    3    3    0    0 -0.17349404737E+02  0.12141333772E+02 -0.52513764624E+02  0.56622515888E+02  0.00000000000E+00 0.  1.
         12    1    3    3    0    0 -0.50394992253E+02 -0.26363833812E+02 -0.92611241226E+03  0.92785715879E+03  0.00000000000E+00 0. -1.
         13    1    5    5    0    0  0.39811338815E+02  0.18363731218E+02  0.12369424863E+03  0.13123428083E+03  0.00000000000E+00 0. -1.
        -14    1    5    5    0    0 -0.75654002642E+01 -0.34442455785E+02  0.25403772358E+02  0.43461128513E+02  0.00000000000E+00 0.  1.
          5    1    4    4  501    0  0.56411062521E+00  0.67779683288E+02 -0.18192717736E+01  0.67935159065E+02  0.41800000000E+01 0. -1.
         -5    1    4    4    0  501  0.34934347814E+02 -0.37478458680E+02 -0.60540501988E+02  0.79420830411E+02  0.41800000000E+01 0. -1.
</event>
<event>
11    1  0.8039394E-009  0.1592995E+03  0.7561462E-02  0.1087738E+00
         22   -1    0    0    0    0  0.00000000000E+00  0.00000000000E+00  0.25458975546E+03  0.25458975546E+03  0.00000000000E+00 0. -1.
         22   -1    0    0    0    0 -0.00000000000E+00 -0.00000000000E+00 -0.12628560071E+04  0.12628560071E+04  0.00000000000E+00 0.  1.
         24    2    1    2    0    0  0.96330222230E+02  0.18053112019E+02 -0.10806555669E+04  0.10879863069E+04  0.79324165841E+02 0.  0.
         25    2    1    2    0    0 -0.95135585858E+02 -0.63739642854E+02 -0.12548093163E+03  0.21096151506E+03  0.12508307186E+03 0.  0.
        -24    2    1    2    0    0 -0.11946363718E+01  0.45686530835E+02  0.19787024682E+03  0.21849794060E+03  0.80622758671E+02 0.  0.
        -11    1    3    3    0    0  0.60991031451E+02 -0.24369579011E+02 -0.73731422510E+03  0.74023377986E+03  0.00000000000E+00 0.  1.
         12    1    3    3    0    0  0.35339190779E+02  0.42422691031E+02 -0.34334134175E+03  0.34775252705E+03  0.00000000000E+00 0. -1.
         11    1    5    5    0    0  0.33150748592E+02  0.42793254098E+02  0.15032071850E+03  0.15977031370E+03  0.00000000000E+00 0. -1.
        -12    1    5    5    0    0 -0.34345384964E+02  0.28932767369E+01  0.47549528317E+02  0.58727626904E+02  0.00000000000E+00 0.  1.
          5    1    4    4  501    0 -0.92103106316E+02  0.10961971914E+02 -0.84800456704E+02  0.12574472903E+03  0.41800000000E+01 0.  1.
         -5    1    4    4    0  501 -0.30324795420E+01 -0.74701614768E+02 -0.40680474921E+02  0.85216786028E+02  0.41800000000E+01 0.  1.
</event>
<event>
11    1  0.8039394E-009  0.1325328E+03  0.7561462E-02  0.1116196E+00
         22   -1    0    0    0    0  0.00000000000E+00  0.00000000000E+00  0.52726870512E+03  0.52726870512E+03  0.00000000000E+00 0.  1.
         22   -1    0    0    0    0 -0.00000000000E+00 -0.00000000000E+00 -0.30709067711E+03  0.30709067711E+03  0.00000000000E+00 0.  1.
         24    2    1    2    0    0 -0.17376090969E+02 -0.37540290139E+02 -0.20829403589E+03  0.22725837976E+03  0.80924433031E+02 0.  0.
         25    2    1    2    0    0  0.19834355745E+02  0.54803989256E+02 -0.30187377936E+02  0.14125838539E+03  0.12508307140E+03 0.  0.
        -24    2    1    2    0    0 -0.24582647766E+01 -0.17263699116E+02  0.45865944183E+03  0.46584261708E+03  0.79603906582E+02 0.  0.
        -13    1    3    3    0    0 -0.25302328542E+02 -0.56821460343E+02 -0.10634368987E+03  0.12319848441E+03  0.00000000000E+00 0.  1.
         14    1    3    3    0    0  0.79262375730E+01  0.19281170204E+02 -0.10195034602E+03  0.10405989535E+03  0.00000000000E+00 0. -1.
         11    1    5    5    0    0  0.54666336315E+01 -0.26874290635E+02  0.50277557939E+02  0.57270798953E+02  0.00000000000E+00 0. -1.
        -12    1    5    5    0    0 -0.79248984081E+01  0.96105915192E+01  0.40838188389E+03  0.40857181813E+03  0.00000000000E+00 0.  1.
          5    1    4    4  501    0 -0.46435017866E+02  0.13561855088E+02  0.15189281577E+02  0.50875548866E+02  0.41800000000E+01 0. -1.
         -5    1    4    4    0  501  0.66269373611E+02  0.41242134168E+02 -0.45376659513E+02  0.90382836524E+02  0.41800000000E+01 0. -1.
</event>
<event>
11    1  0.8039394E-009  0.1404609E+03  0.7561462E-02  0.1107045E+00
         22   -1    0    0    0    0  0.00000000000E+00  0.00000000000E+00  0.13954972780E+03  0.13954972780E+03  0.00000000000E+00 0.  1.
         22   -1    0    0    0    0 -0.00000000000E+00 -0.00000000000E+00 -0.66645706458E+03  0.66645706458E+03  0.00000000000E+00 0.  1.
        -24    2    1    2    0    0 -0.52229325323E+02 -0.35307088133E+02 -0.49116888656E+03  0.50173527108E+03  0.80727406907E+02 0.  0.
         25    2    1    2    0    0  0.73509723712E+02  0.13728896546E+02 -0.11605726155E+03  0.18630377491E+03  0.12509055322E+03 0.  0.
         24    2    1    2    0    0 -0.21280398390E+02  0.21578191587E+02  0.80318811330E+02  0.11796774639E+03  0.80912323084E+02 0.  0.
        -13    1    5    5    0    0 -0.19501286250E+02  0.97442294795E+01  0.95885693867E+02  0.98332682573E+02  0.00000000000E+00 0.  1.
         14    1    5    5    0    0 -0.17791121399E+01  0.11833962108E+02 -0.15566882537E+02  0.19635063817E+02  0.00000000000E+00 0. -1.
         11    1    3    3    0    0 -0.59949311372E+02 -0.90421533797E+00 -0.21088376449E+03  0.21924119062E+03  0.00000000000E+00 0. -1.
        -12    1    3    3    0    0  0.77199860491E+01 -0.34402872795E+02 -0.28028512207E+03  0.28249408046E+03  0.00000000000E+00 0.  1.
          5    1    4    4  501    0  0.10986685900E+02  0.17007251656E+02  0.24689920361E+02  0.32202770741E+02  0.41800000000E+01 0. -1.
         -5    1    4    4    0  501  0.62523037813E+02 -0.32783551099E+01 -0.14074718191E+03  0.15410100417E+03  0.41800000000E+01 0. -1.
</event>
<event>
11    1  0.8039394E-009  0.1609518E+03  0.7561462E-02  0.1086186E+00
         22   -1    0    0    0    0  0.00000000000E+00  0.00000000000E+00  0.81470208806E+02  0.81470208806E+02  0.00000000000E+00 0.  1.
         22   -1    0    0    0    0 -0.00000000000E+00 -0.00000000000E+00 -0.12075326694E+04  0.12075326694E+04  0.00000000000E+00 0. -1.
        -24    2    1    2    0    0  0.55051233344E+01  0.52044740512E+02 -0.87410012143E+03  0.87956119507E+03  0.82691669477E+02 0.  0.
         25    2    1    2    0    0 -0.17062633438E+02 -0.13952245745E+03 -0.21259926058E+03  0.28390763194E+03  0.12508976090E+03 0.  0.
         24    2    1    2    0    0  0.11557510103E+02  0.87477716942E+02 -0.39363078631E+02  0.12553405124E+03  0.80146235465E+02 0.  0.
        -11    1    5    5    0    0 -0.31718387044E+02  0.22052759610E+02 -0.20937604576E+01  0.38688035824E+02  0.00000000000E+00 0.  1.
         12    1    5    5    0    0  0.43275897147E+02  0.65424957332E+02 -0.37269318174E+02  0.86846015412E+02  0.00000000000E+00 0. -1.
         13    1    3    3    0    0  0.31355054297E+01  0.70287625099E+02 -0.49051616574E+03  0.49553636646E+03  0.00000000000E+00 0. -1.
        -14    1    3    3    0    0  0.23696179047E+01 -0.18242884587E+02 -0.38358395569E+03  0.38402482861E+03  0.00000000000E+00 0.  1.
          5    1    4    4  501    0 -0.33123223001E+02  0.12082728240E+02 -0.44636585956E+02  0.57035405052E+02  0.41800000000E+01 0.  1.
         -5    1    4    4    0  501  0.16060589563E+02 -0.15160518569E+03 -0.16796267462E+03  0.22687222689E+03  0.41800000000E+01 0.  1.
</event>
<event>
11    1  0.8039394E-009  0.1296080E+03  0.7561462E-02  0.1119752E+00
         22   -1    0    0    0    0  0.00000000000E+00  0.00000000000E+00  0.12087556190E+04  0.12087556190E+04  0.00000000000E+00 0.  1.
         22   -1    0    0    0    0 -0.00000000000E+00 -0.00000000000E+00 -0.31597428485E+03  0.31597428485E+03  0.00000000000E+00 0.  1.
         24    2    1    2    0    0  0.10326813174E+02 -0.27979988452E+01 -0.29514358941E+03  0.30604944314E+03  0.80262391013E+02 0.  0.
         25    2    1    2    0    0 -0.33220731663E+02  0.26038630940E+02  0.31569398793E+03  0.34218790725E+03  0.12509293561E+03 0.  0.
        -24    2    1    2    0    0  0.22893918488E+02 -0.23240632095E+02  0.87223093566E+03  0.87649255350E+03  0.79925795183E+02 0.  0.
        -13    1    3    3    0    0 -0.16422403878E+02  0.28991872470E+02 -0.75715885390E+02  0.82723148627E+02  0.00000000000E+00 0.  1.
         14    1    3    3    0    0  0.26749217052E+02 -0.31789871315E+02 -0.21942770402E+03  0.22332629451E+03  0.00000000000E+00 0. -1.
         13    1    5    5    0    0  0.48591991803E+02 -0.18408592350E+02  0.37604466415E+03  0.37961776483E+03  0.00000000000E+00 0. -1.
        -14    1    5    5    0    0 -0.25698073315E+02 -0.48320397451E+01  0.49618627151E+03  0.49687478867E+03  0.00000000000E+00 0.  1.
          5    1    4    4  501    0 -0.94120089679E+00  0.32290650497E+02  0.30589672825E+03  0.30762615741E+03  0.41800000000E+01 0.  1.
         -5    1    4    4    0  501 -0.32279530766E+02 -0.62520195572E+01  0.97972596860E+01  0.34561749845E+02  0.41800000000E+01 0.  1.
</event>
<event>
11    1  0.8039394E-009  0.1989338E+03  0.7561462E-02  0.1055280E+00
         22   -1    0    0    0    0  0.00000000000E+00  0.00000000000E+00  0.11111058177E+03  0.11111058177E+03  0.00000000000E+00 0.  1.
         22   -1    0    0    0    0 -0.00000000000E+00 -0.00000000000E+00 -0.28633560162E+04  0.28633560162E+04  0.00000000000E+00 0. -1.
         24    2    1    2    0    0 -0.13085539513E+03  0.10511587008E+03 -0.22705796189E+04  0.22781776051E+04  0.79930682191E+02 0.  0.
         25    2    1    2    0    0  0.10542580082E+03 -0.43910587465E+02 -0.54880715544E+03  0.57435095001E+03  0.12508789208E+03 0.  0.
        -24    2    1    2    0    0  0.25429594312E+02 -0.61205282613E+02  0.67141339953E+02  0.12193804285E+03  0.77253969966E+02 0.  0.
        -13    1    3    3    0    0 -0.50831070018E+02  0.43125554302E+02 -0.46395890540E+03  0.46872324138E+03  0.00000000000E+00 0.  1.
         14    1    3    3    0    0 -0.80024325110E+02  0.61990315776E+02 -0.18066207135E+04  0.18094543637E+04  0.00000000000E+00 0. -1.
         11    1    5    5    0    0  0.13357790219E+02 -0.71466620616E+02  0.24943844139E+02  0.76864190506E+02  0.00000000000E+00 0. -1.
        -12    1    5    5    0    0  0.12071804093E+02  0.10261338003E+02  0.42197495815E+02  0.45073852339E+02  0.00000000000E+00 0.  1.
          5    1    4    4  501    0  0.11992743592E+03  0.17858492498E+01 -0.42145331666E+03  0.43820788407E+03  0.41800000000E+01 0. -1.
         -5    1    4    4    0  501 -0.14501635104E+02 -0.45696436715E+02 -0.12735383879E+03  0.13614306594E+03  0.41800000000E+01 0. -1.
</event>
<event>
11    1  0.8039394E-009  0.2297253E+03  0.7561462E-02  0.1035291E+00
         22   -1    0    0    0    0  0.00000000000E+00  0.00000000000E+00  0.13575999642E+03  0.13575999642E+03  0.00000000000E+00 0.  1.
         22   -1    0    0    0    0 -0.00000000000E+00 -0.00000000000E+00 -0.12473582485E+04  0.12473582485E+04  0.00000000000E+00 0.  1.
         24    2    1    2    0    0 -0.87521299329E-01  0.12426513362E+03 -0.61667445345E+03  0.63422884709E+03  0.80728048719E+02 0.  0.
         25    2    1    2    0    0 -0.17287197170E+03 -0.16281363620E+02 -0.48406972496E+03  0.52926355138E+03  0.12508639730E+03 0.  0.
        -24    2    1    2    0    0  0.17295949300E+03 -0.10798377000E+03 -0.10854073630E+02  0.21962584642E+03  0.80883995306E+02 0.  0.
        -11    1    3    3    0    0 -0.56378914196E+00  0.13357215821E+03 -0.51187753803E+03  0.52901838649E+03  0.00000000000E+00 0.  1.
         12    1    3    3    0    0  0.47626784263E+00 -0.93070245899E+01 -0.10479691542E+03  0.10521046060E+03  0.00000000000E+00 0. -1.
         13    1    5    5    0    0  0.81059563665E+02 -0.65625354328E+01 -0.15009985877E+02  0.82698364004E+02  0.00000000000E+00 0. -1.
        -14    1    5    5    0    0  0.91899929337E+02 -0.10142123456E+03  0.41559122465E+01  0.13692748241E+03  0.00000000000E+00 0.  1.
          5    1    4    4  501    0 -0.18896305241E+03  0.17708119165E+00 -0.44838799842E+03  0.48659668727E+03  0.41800000000E+01 0.  1.
         -5    1    4    4    0  501  0.16091080704E+02 -0.16458444811E+02 -0.35681726539E+02  0.42666864106E+02  0.41800000000E+01 0.  1.
</event>
<event>
11    1  0.8039394E-009  0.2019297E+03  0.7561462E-02  0.1053167E+00
         22   -1    0    0    0    0  0.00000000000E+00  0.00000000000E+00  0.26341307624E+03  0.26341307624E+03  0.00000000000E+00 0. -1.
         22   -1    0    0    0    0 -0.00000000000E+00 -0.00000000000E+00 -0.18825125479E+04  0.18825125479E+04  0.00000000000E+00 0.  1.
        -24    2    1    2    0    0 -0.12154508119E+03  0.98604086712E+02 -0.17209491915E+04  0.17298452262E+04  0.78755407379E+02 0.  0.
         25    2    1    2    0    0  0.12937435586E+03 -0.17454055737E+03 -0.20035832981E+02  0.25149649851E+03  0.12508766541E+03 0.  0.
         24    2    1    2    0    0 -0.78292746671E+01  0.75936470658E+02  0.12188555284E+03  0.16458389942E+03  0.80025788591E+02 0.  0.
        -11    1    5    5    0    0  0.25944916745E+02  0.37903054072E+02  0.98330694851E+02  0.10852974598E+03  0.00000000000E+00 0.  1.
         12    1    5    5    0    0 -0.33774191412E+02  0.38033416586E+02  0.23554857984E+02  0.56054153436E+02  0.00000000000E+00 0. -1.
         13    1    3    3    0    0  0.73032884146E+01  0.57921814635E+01 -0.29014179153E+02  0.30474743309E+02  0.00000000000E+00 0. -1.
        -14    1    3    3    0    0 -0.12884836961E+03  0.92811905248E+02 -0.16919350123E+04  0.16993704829E+04  0.00000000000E+00 0.  1.
          5    1    4    4  501    0  0.14233285940E+03 -0.10937738948E+03  0.68923026667E+01  0.17968592719E+03  0.41800000000E+01 0.  1.
         -5    1    4    4    0  501 -0.12958503540E+02 -0.65163167894E+02 -0.26928135648E+02  0.71810571321E+02  0.41800000000E+01 0.  1.
</event>
<event>
11    1  0.8039394E-009  0.2103445E+03  0.7561462E-02  0.1047440E+00
         22   -1    0    0    0    0  0.00000000000E+00  0.00000000000E+00  0.27199059232E+04  0.27199059232E+04  0.00000000000E+00 0.  1.
         22   -1    0    0    0    0 -0.00000000000E+00 -0.00000000000E+00 -0.21128697749E+03  0.21128697749E+03  0.00000000000E+00 0. -1.
         24    2    1    2    0    0  0.57596451586E+02 -0.62177414334E+01 -0.17164208481E+03  0.19914643609E+03  0.82718112790E+02 0.  0.
         25    2    1    2    0    0 -0.20992318096E+03  0.56120180785E+02  0.69677678610E+03  0.74051463104E+03  0.12508721977E+03 0.  0.
        -24    2    1    2    0    0  0.15232672937E+03 -0.49902439352E+02  0.19834842444E+04  0.19915318336E+04  0.79344882017E+02 0.  0.
        -11    1    3    3    0    0  0.19782381878E+02 -0.12172766504E+02  0.61326148464E-01  0.23227626612E+02  0.00000000000E+00 0.  1.
         12    1    3    3    0    0  0.37814069707E+02  0.59550250701E+01 -0.17170341096E+03  0.17591880947E+03  0.00000000000E+00 0. -1.
         13    1    5    5    0    0  0.46692387560E+02 -0.52045168859E+02  0.61125426876E+03  0.61524032682E+03  0.00000000000E+00 0. -1.
        -14    1    5    5    0    0  0.10563434181E+03  0.21427295079E+01  0.13722299757E+04  0.13762915068E+04  0.00000000000E+00 0.  1.
          5    1    4    4  501    0 -0.16221373737E+03  0.93984643554E+02  0.48078698109E+03  0.51606201507E+03  0.41800000000E+01 0.  1.
         -5    1    4    4    0  501 -0.47709443585E+02 -0.37864462769E+02  0.21598980501E+03  0.22445261597E+03  0.41800000000E+01 0.  1.
</event>
<event>
11    1  0.8039394E-009  0.2921940E+03  0.7561462E-02  0.1003550E+00
         22   -1    0    0    0    0  0.00000000000E+00  0.00000000000E+00  0.27397671262E+03  0.27397671262E+03  0.00000000000E+00 0.  1.
         22   -1    0    0    0    0 -0.00000000000E+00 -0.00000000000E+00 -0.61524030229E+03  0.61524030229E+03  0.00000000000E+00 0.  1.
        -24    2    1    2    0    0 -0.25494056128E+03 -0.15765644603E+02 -0.24443260704E+03  0.36122422209E+03  0.74110686858E+02 0.  0.
         25    2    1    2    0    0  0.26987171802E+03  0.68572200846E+02 -0.21588729411E+03  0.37388075270E+03  0.12508638043E+03 0.  0.
         24    2    1    2    0    0 -0.14931156735E+02 -0.52806556243E+02  0.11905631148E+03  0.15411204011E+03  0.81022489343E+02 0.  0.
        -11    1    5    5    0    0 -0.26015335098E+02 -0.35462539182E+02  0.12694775406E+02  0.45777141328E+02  0.00000000000E+00 0.  1.
         12    1    5    5    0    0  0.11084178363E+02 -0.17344017061E+02  0.10636153608E+03  0.10833489878E+03  0.00000000000E+00 0. -1.
         11    1    3    3    0    0 -0.39321762801E+01  0.11888180144E+02 -0.18748987218E+02  0.22545850153E+02  0.00000000000E+00 0. -1.
        -12    1    3    3    0    0 -0.25100838500E+03 -0.27653824747E+02 -0.22568361982E+03  0.33867837194E+03  0.00000000000E+00 0.  1.
          5    1    4    4  501    0  0.12187268939E+03  0.99555358165E+00 -0.27654546236E+02  0.12504475148E+03  0.41800000000E+01 0.  1.
         -5    1    4    4    0  501  0.14799902863E+03  0.67576647265E+02 -0.18823274788E+03  0.24883600122E+03  0.41800000000E+01 0.  1.
</event>
<event>
11    1  0.8039394E-009  0.1396325E+03  0.7561462E-02  0.1107969E+00
         22   -1    0    0    0    0  0.00000000000E+00  0.00000000000E+00  0.29589897925E+04  0.29589897925E+04  0.00000000000E+00 0.  1.
         22   -1    0    0    0    0 -0.00000000000E+00 -0.00000000000E+00 -0.38524069889E+03  0.38524069889E+03  0.00000000000E+00 0. -1.
         24    2    1    2    0    0  0.67576359979E+02 -0.46177007558E+01 -0.30806080365E+03  0.32520260637E+03  0.79166841880E+02 0.  0.
         25    2    1    2    0    0 -0.22029958032E+02  0.64217088689E+01 -0.82656009066E+01  0.12744924776E+03  0.12509369768E+03 0.  0.
        -24    2    1    2    0    0 -0.45546401947E+02 -0.18040081131E+01  0.28900754982E+04  0.28915786373E+04  0.81319746327E+02 0.  0.
        -13    1    3    3    0    0  0.48677640663E+00  0.21063558061E+02 -0.22837420789E+02  0.31071823534E+02  0.00000000000E+00 0.  1.
         14    1    3    3    0    0  0.67089583572E+02 -0.25681258817E+02 -0.28522338286E+03  0.29413078283E+03  0.00000000000E+00 0. -1.
         11    1    5    5    0    0  0.17020915623E+02 -0.94031954344E+01  0.25155354607E+03  0.25230401937E+03  0.00000000000E+00 0. -1.
        -12    1    5    5    0    0 -0.62567317570E+02  0.75991873213E+01  0.26385219521E+04  0.26392746179E+04  0.00000000000E+00 0.  1.
          5    1    4    4  501    0 -0.48545869341E+02 -0.45489578287E+02 -0.15850868912E+02  0.68518067749E+02  0.41800000000E+01 0.  1.
         -5    1    4    4    0  501  0.26515911309E+02  0.51911287155E+02  0.75852680054E+01  0.58931180010E+02  0.41800000000E+01 0.  1.
</event>
<event>
11    1  0.8039394E-009  0.1409492E+03  0.7561462E-02  0.1106503E+00
         22   -1    0    0    0    0  0.00000000000E+00  0.00000000000E+00  0.18284510654E+03  0.18284510654E+03  0.00000000000E+00 0. -1.
         22   -1    0    0    0    0 -0.00000000000E+00 -0.00000000000E+00 -0.22216177604E+04  0.22216177604E+04  0.00000000000E+00 0.  1.
        -24    2    1    2    0    0 -0.51647194672E+02  0.26562123255E+02 -0.21151857932E+04  0.21173937854E+04  0.77282103784E+02 0.  0.
         25    2    1    2    0    0  0.72452604557E+02 -0.77003164165E+02  0.14881065188E-01  0.16378849565E+03  0.12509118229E+03 0.  0.
         24    2    1    2    0    0 -0.20805409884E+02  0.50441040910E+02  0.76398258218E+02  0.12328058595E+03  0.79901472614E+02 0.  0.
        -13    1    5    5    0    0  0.15322912566E+02  0.49965793523E+02  0.19303288298E+02  0.55713455385E+02  0.00000000000E+00 0.  1.
         14    1    5    5    0    0 -0.36128322450E+02  0.47524738767E+00  0.57094969919E+02  0.67567130569E+02  0.00000000000E+00 0. -1.
         13    1    3    3    0    0 -0.28651846250E+02 -0.10369848679E+02 -0.27314919208E+03  0.27484348854E+03  0.00000000000E+00 0. -1.
        -14    1    3    3    0    0 -0.22995348422E+02  0.36931971935E+02 -0.18420366011E+04  0.18425502968E+04  0.00000000000E+00 0.  1.
          5    1    4    4  501    0  0.45338951720E+02 -0.64555378167E+02 -0.58280641980E+02  0.98168849555E+02  0.41800000000E+01 0. -1.
         -5    1    4    4    0  501  0.27113652837E+02 -0.12447785999E+02  0.58295523046E+02  0.65619646095E+02  0.41800000000E+01 0. -1.
</event>
<event>
11    1  0.8039394E-009  0.1434898E+03  0.7561462E-02  0.1103723E+00
         22   -1    0    0    0    0  0.00000000000E+00  0.00000000000E+00  0.39684978263E+03  0.39684978263E+03  0.00000000000E+00 0.  1.
         22   -1    0    0    0    0 -0.00000000000E+00 -0.00000000000E+00 -0.25154256168E+03  0.25154256168E+03  0.00000000000E+00 0. -1.
         24    2    1    2    0    0 -0.65178799747E+02 -0.21468102192E+01 -0.78788831674E+02  0.13184913374E+03  0.83208348993E+02 0.  0.
         25    2    1    2    0    0  0.72839175238E+02  0.39374202149E+02 -0.99883345174E+02  0.18022115430E+03  0.12508840301E+03 0.  0.
        -24    2    1    2    0    0 -0.76603754916E+01 -0.37227391930E+02  0.32397939779E+03  0.33632205627E+03  0.81885989502E+02 0.  0.
        -13    1    3    3    0    0  0.13922013487E+02  0.10017439902E+02  0.30077687347E+01  0.17413162679E+02  0.00000000000E+00 0.  1.
         14    1    3    3    0    0 -0.79100813234E+02 -0.12164250121E+02 -0.81796600408E+02  0.11443597107E+03  0.00000000000E+00 0. -1.
         13    1    5    5    0    0  0.19710709738E+02  0.19111817955E+02  0.10891706294E+03  0.11232408585E+03  0.00000000000E+00 0. -1.
        -14    1    5    5    0    0 -0.27371085229E+02 -0.56339209885E+02  0.21506233486E+03  0.22399797042E+03  0.00000000000E+00 0.  1.
          5    1    4    4  501    0  0.80257014519E+02 -0.25695374987E+02 -0.55052257531E+02  0.10074554151E+03  0.41800000000E+01 0.  1.
         -5    1    4    4    0  501 -0.74178392809E+01  0.65069577136E+02 -0.44831087643E+02  0.79475612785E+02  0.41800000000E+01 0.  1.
</event>
<event>
11    1  0.8039394E-009  0.3018053E+03  0.7561462E-02  0.9994300E-01
         22   -1    0    0    0    0  0.00000000000E+00  0.00000000000E+00  0.22598477002E+04  0.22598477002E+04  0.00000000000E+00 0. -1.
         22   -1    0    0    0    0 -0.00000000000E+00 -0.00000000000E+00 -0.38790032556E+03  0.38790032556E+03  0.00000000000E+00 0.  1.
         24    2    1    2    0    0  0.24834667274E+02  0.20665439172E+02 -0.11691865496E+03  0.14470909684E+03  0.78910897579E+02 0.  0.
         25    2    1    2    0    0 -0.29330704507E+03  0.33672495711E+02 -0.14385142226E+03  0.35143095064E+03  0.12509045419E+03 0.  0.
        -24    2    1    2    0    0  0.26847237780E+03 -0.54337934883E+02  0.21327174519E+04  0.21516079783E+04  0.76831854793E+02 0.  0.
        -11    1    3    3    0    0  0.40423910513E+02 -0.17480263429E+02 -0.61926822693E+02  0.75990680478E+02  0.00000000000E+00 0.  1.
         12    1    3    3    0    0 -0.15589243239E+02  0.38145702600E+02 -0.54991832265E+02  0.68718416364E+02  0.00000000000E+00 0. -1.
         11    1    5    5    0    0  0.23201595931E+03 -0.56128675872E+02  0.19912741557E+04  0.20055310012E+04  0.00000000000E+00 0. -1.
        -12    1    5    5    0    0  0.36456418490E+02  0.17907409897E+01  0.14144329615E+03  0.14607697707E+03  0.00000000000E+00 0.  1.
          5    1    4    4  501    0 -0.14583777494E+03  0.55060584858E+02 -0.12756871461E+03  0.20147350682E+03  0.41800000000E+01 0. -1.
         -5    1    4    4    0  501 -0.14746927013E+03 -0.21388089147E+02 -0.16282707653E+02  0.14995744382E+03  0.41800000000E+01 0. -1.
</event>
<event>
11    1  0.8039394E-009  0.1459992E+03  0.7561462E-02  0.1101038E+00
         22   -1    0    0    0    0  0.00000000000E+00  0.00000000000E+00  0.10864805721E+03  0.10864805721E+03  0.00000000000E+00 0.  1.
         22   -1    0    0    0    0 -0.00000000000E+00 -0.00000000000E+00 -0.50408648351E+03  0.50408648351E+03  0.00000000000E+00 0.  1.
        -24    2    1    2    0    0  0.61319419416E+02  0.30434814169E+02 -0.18708627888E+03  0.21537539317E+03  0.81847022716E+02 0.  0.
         25    2    1    2    0    0 -0.75903824128E+02  0.45752886459E+02 -0.23028279152E+03  0.27662862233E+03  0.12505404227E+03 0.  0.
         24    2    1    2    0    0  0.14584404711E+02 -0.76187700628E+02  0.21930644105E+02  0.12073052522E+03  0.89875669571E+02 0.  0.
        -11    1    5    5    0    0  0.39135791722E+02 -0.32049622258E+02  0.42624598303E+02  0.66148657289E+02  0.00000000000E+00 0.  1.
         12    1    5    5    0    0 -0.24551387010E+02 -0.44138078370E+02 -0.20693954199E+02  0.54581867930E+02  0.00000000000E+00 0. -1.
         11    1    3    3    0    0 -0.61850549400E+01  0.33598594034E+02 -0.96429503002E+02  0.10230234345E+03  0.00000000000E+00 0. -1.
        -12    1    3    3    0    0  0.67504474356E+02 -0.31637798646E+01 -0.90656775876E+02  0.11307304972E+03  0.00000000000E+00 0.  1.
          5    1    4    4  501    0 -0.47989324250E+02 -0.39603932019E+02 -0.11019213344E+03  0.12661447526E+03  0.41800000000E+01 0. -1.
         -5    1    4    4    0  501 -0.27914499877E+02  0.85356818478E+02 -0.12009065808E+03  0.15001414707E+03  0.41800000000E+01 0. -1.
</event>
<event>
11    1  0.8039394E-009  0.1516857E+03  0.7561462E-02  0.1095169E+00
         22   -1    0    0    0    0  0.00000000000E+00  0.00000000000E+00  0.26028948164E+03  0.26028948164E+03  0.00000000000E+00 0.  1.
         22   -1    0    0    0    0 -0.00000000000E+00 -0.00000000000E+00 -0.96161698981E+03  0.96161698981E+03  0.00000000000E+00 0.  1.
         24    2    1    2    0    0  0.20583103899E+02 -0.86094430332E+02 -0.88478466462E+03  0.89361140570E+03  0.88665250018E+02 0.  0.
         25    2    1    2    0    0  0.68910591974E+01  0.43422509168E+02  0.12803772474E+02  0.13320856737E+03  0.12509030671E+03 0.  0.
        -24    2    1    2    0    0 -0.27474163096E+02  0.42671921164E+02  0.17065338397E+03  0.19508649838E+03  0.79752378610E+02 0.  0.
        -13    1    3    3    0    0  0.52684098943E+02 -0.70058091109E+02 -0.69039280951E+03  0.69593532877E+03  0.00000000000E+00 0.  1.
         14    1    3    3    0    0 -0.32100995044E+02 -0.16036339224E+02 -0.19439185511E+03  0.19767607693E+03  0.00000000000E+00 0. -1.
         13    1    5    5    0    0  0.21108581603E+02 -0.95680575813E+01  0.40310357930E+02  0.46497794567E+02  0.00000000000E+00 0. -1.
        -14    1    5    5    0    0 -0.48582744699E+02  0.52239978745E+02  0.13034302604E+03  0.14858870381E+03  0.00000000000E+00 0.  1.
          5    1    4    4  501    0  0.16419511175E+02  0.70212242219E+02 -0.32782572812E+02  0.79319157741E+02  0.41800000000E+01 0.  1.
         -5    1    4    4    0  501 -0.95284519776E+01 -0.26789733051E+02  0.45586345286E+02  0.53889409633E+02  0.41800000000E+01 0.  1.
</event>
<event>
11    1  0.1137555E-008  0.1692572E+03  0.7561462E-02  0.1078680E+00
         22   -1    0    0    0    0  0.00000000000E+00  0.00000000000E+00  0.59184443198E+03  0.59184443198E+03  0.00000000000E+00 0.  1.
         22   -1    0    0    0    0 -0.00000000000E+00 -0.00000000000E+00 -0.11247536695E+04  0.11247536695E+04  0.00000000000E+00 0.  1.
         24    2    1    2    0    0  0.12144720334E+03 -0.28083304331E+02 -0.66258210226E+03  0.67885123976E+03  0.79283468037E+02 0.  0.
         25    2    1    2    0    0 -0.46680389752E+02  0.12342869177E+03 -0.42581321007E+03  0.46300935055E+03  0.12508824119E+03 0.  0.
        -24    2    1    2    0    0 -0.74766813592E+02 -0.95345387439E+02  0.55548607485E+03  0.57473751113E+03  0.84128520887E+02 0.  0.
        -11    1    3    3    0    0  0.90254870221E+02 -0.52644369626E+02 -0.53948576218E+03  0.54951092696E+03  0.00000000000E+00 0.  1.
         12    1    3    3    0    0  0.31192333123E+02  0.24561065294E+02 -0.12309634007E+03  0.12934031279E+03  0.00000000000E+00 0. -1.
         13    1    5    5    0    0 -0.65912762789E+02 -0.60596793943E+02  0.22269148097E+03  0.24001658157E+03  0.00000000000E+00 0. -1.
        -14    1    5    5    0    0 -0.88540508029E+01 -0.34748593496E+02  0.33279459388E+03  0.33472092956E+03  0.00000000000E+00 0.  1.
          5    1    4    4  501    0  0.25727622696E+01  0.97084059144E+02 -0.13214918243E+03  0.16405124950E+03  0.41800000000E+01 0.  1.
         -5    1    4    4    0  501 -0.49253152022E+02  0.26344632627E+02 -0.29366402764E+03  0.29895810104E+03  0.41800000000E+01 0.  1.
</event>
<event>
11    1  0.8039394E-009  0.1330115E+03  0.7561462E-02  0.1115623E+00
         22   -1    0    0    0    0  0.00000000000E+00  0.00000000000E+00  0.39265490112E+03  0.39265490112E+03  0.00000000000E+00 0.  1.
         22   -1    0    0    0    0 -0.00000000000E+00 -0.00000000000E+00 -0.17594815429E+03  0.17594815429E+03  0.00000000000E+00 0. -1.
        -24    2    1    2    0    0  0.60424027309E+02 -0.18817861792E+01 -0.77757708254E+02  0.12682494876E+03  0.79898074064E+02 0.  0.
         25    2    1    2    0    0 -0.81789911266E+01 -0.43156099959E+01 -0.63246162266E+01  0.12559817445E+03  0.12509748307E+03 0.  0.
         24    2    1    2    0    0 -0.52245036183E+02  0.61973961751E+01  0.30078907132E+03  0.31617993220E+03  0.82022756450E+02 0.  0.
        -13    1    5    5    0    0 -0.33425403422E+02  0.11772310939E+02  0.29288355914E+03  0.29501970123E+03  0.00000000000E+00 0.  1.
         14    1    5    5    0    0 -0.18819632761E+02 -0.55749147641E+01  0.79055121778E+01  0.21160230969E+02  0.00000000000E+00 0. -1.
         13    1    3    3    0    0  0.26648670619E+02 -0.55541129653E+01 -0.87373695894E+02  0.91515914194E+02  0.00000000000E+00 0. -1.
        -14    1    3    3    0    0  0.33775356690E+02  0.36723267861E+01  0.96159876398E+01  0.35309034564E+02  0.00000000000E+00 0.  1.
          5    1    4    4  501    0 -0.47563696640E+02  0.10495742936E+02 -0.46355491226E+02  0.67370392789E+02  0.41800000000E+01 0.  1.
         -5    1    4    4    0  501  0.39384705513E+02 -0.14811352932E+02  0.40030874999E+02  0.58227781662E+02  0.41800000000E+01 0.  1.
</event>
<event>
11    1  0.8039394E-009  0.2941840E+03  0.7561462E-02  0.1002683E+00
         22   -1    0    0    0    0  0.00000000000E+00  0.00000000000E+00  0.87184701276E+03  0.87184701276E+03  0.00000000000E+00 0. -1.
         22   -1    0    0    0    0 -0.00000000000E+00 -0.00000000000E+00 -0.26957944900E+03  0.26957944900E+03  0.00000000000E+00 0.  1.
        -24    2    1    2    0    0  0.19365069101E+03  0.14778155691E+03 -0.55141590038E+02  0.26218158142E+03  0.79740880307E+02 0.  0.
         25    2    1    2    0    0 -0.31264561779E+03 -0.14946499565E+03  0.24426383704E+03  0.44203966193E+03  0.12508866212E+03 0.  0.
         24    2    1    2    0    0  0.11899492678E+03  0.16834387388E+01  0.41314531676E+03  0.43720521842E+03  0.79351897819E+02 0.  0.
        -13    1    5    5    0    0 -0.16854774308E+01  0.17309227784E+02  0.95060290209E+02  0.96638030688E+02  0.00000000000E+00 0.  1.
         14    1    5    5    0    0  0.12068040421E+03 -0.15625789045E+02  0.31808502655E+03  0.34056718773E+03  0.00000000000E+00 0. -1.
         11    1    3    3    0    0  0.16404285561E+03  0.12655189949E+03 -0.14634335359E+02  0.20770075954E+03  0.00000000000E+00 0. -1.
        -12    1    3    3    0    0  0.29607835403E+02  0.21229657417E+02 -0.40507254679E+02  0.54480821881E+02  0.00000000000E+00 0.  1.
          5    1    4    4  501    0 -0.20163582796E+03 -0.10030430700E+03  0.22620557544E+03  0.31922467931E+03  0.41800000000E+01 0.  1.
         -5    1    4    4    0  501 -0.11100978982E+03 -0.49160688649E+02  0.18058261604E+02  0.12281498262E+03  0.41800000000E+01 0.  1.
</event>
<event>
11    1  0.8039394E-009  0.5835769E+03  0.7561462E-02  0.9224000E-01
         22   -1    0    0    0    0  0.00000000000E+00  0.00000000000E+00  0.60929642984E+03  0.60929642984E+03  0.00000000000E+00 0.  1.
         22   -1    0    0    0    0 -0.00000000000E+00 -0.00000000000E+00 -0.16028249727E+04  0.16028249727E+04  0.00000000000E+00 0.  1.
        -24    2    1    2    0    0  0.43929269869E+03  0.36720286642E+03 -0.12545132929E+04  0.13813598090E+04  0.80841199456E+02 0.  0.
         25    2    1    2    0    0 -0.51317810626E+03 -0.24138939209E+03  0.30892318620E+03  0.65780061161E+03  0.12508997682E+03 0.  0.
         24    2    1    2    0    0  0.73885407577E+02 -0.12581347433E+03 -0.47938436127E+02  0.17296098192E+03  0.79557047670E+02 0.  0.
        -13    1    5    5    0    0  0.82695837754E+02 -0.99290238761E+02 -0.15500821892E+02  0.13014387644E+03  0.00000000000E+00 0.  1.
         14    1    5    5    0    0 -0.88104301769E+01 -0.26523235569E+02 -0.32437614235E+02  0.42817105486E+02  0.00000000000E+00 0. -1.
         13    1    3    3    0    0  0.15681818145E+03  0.11243348593E+03 -0.51034098051E+03  0.54560163781E+03  0.00000000000E+00 0. -1.
        -14    1    3    3    0    0  0.28247451724E+03  0.25476938049E+03 -0.74417231241E+03  0.83575817117E+03  0.00000000000E+00 0.  1.
          5    1    4    4  501    0 -0.34607166678E+03 -0.16919187558E+03  0.14137724504E+03  0.41036141038E+03  0.41800000000E+01 0. -1.
         -5    1    4    4    0  501 -0.16710643948E+03 -0.72197516507E+02  0.16754594117E+03  0.24743920124E+03  0.41800000000E+01 0. -1.
</event>
<event>
11    1  0.8039394E-009  0.1429872E+03  0.7561462E-02  0.1104268E+00
         22   -1    0    0    0    0  0.00000000000E+00  0.00000000000E+00  0.10808312471E+04  0.10808312471E+04  0.00000000000E+00 0.  1.
         22   -1    0    0    0    0 -0.00000000000E+00 -0.00000000000E+00 -0.50337455869E+03  0.50337455869E+03  0.00000000000E+00 0. -1.
         24    2    1    2    0    0  0.46890135199E+02 -0.58517552436E+02 -0.47771907364E+03  0.49035846625E+03  0.81319883082E+02 0.  0.
         25    2    1    2    0    0 -0.42385854675E+02  0.10970388797E+03  0.52928597924E+03  0.55643720610E+03  0.12508881964E+03 0.  0.
        -24    2    1    2    0    0 -0.45042805241E+01 -0.51186335537E+02  0.52588978282E+03  0.53741013345E+03  0.98026824755E+02 0.  0.
        -13    1    3    3    0    0  0.23052633125E+02 -0.24872627058E+02 -0.48597117905E+02  0.59260031551E+02  0.00000000000E+00 0.  1.
         14    1    3    3    0    0  0.23837502074E+02 -0.33644925379E+02 -0.42912195573E+03  0.43109843470E+03  0.00000000000E+00 0. -1.
         13    1    5    5    0    0 -0.11162998238E+02  0.19316665976E+02  0.29649282104E+03  0.29733102603E+03  0.00000000000E+00 0. -1.
        -14    1    5    5    0    0  0.66587177136E+01 -0.70503001512E+02  0.22939696178E+03  0.24007910742E+03  0.00000000000E+00 0.  1.
          5    1    4    4  501    0 -0.49523987893E+02  0.15712608565E+02  0.68428909986E+02  0.86020343911E+02  0.41800000000E+01 0. -1.
         -5    1    4    4    0  501  0.71381332176E+01  0.93991279408E+02  0.46085706925E+03  0.47041686218E+03  0.41800000000E+01 0. -1.
</event>
<event>
11    1  0.8039394E-009  0.1655416E+03  0.7561462E-02  0.1081978E+00
         22   -1    0    0    0    0  0.00000000000E+00  0.00000000000E+00  0.90422315538E+03  0.90422315538E+03  0.00000000000E+00 0. -1.
         22   -1    0    0    0    0 -0.00000000000E+00 -0.00000000000E+00 -0.10429637498E+03  0.10429637498E+03  0.00000000000E+00 0. -1.
         24    2    1    2    0    0  0.68858211297E+02  0.38093570694E+01 -0.17992878838E+02  0.10911909126E+03  0.82627283173E+02 0.  0.
         25    2    1    2    0    0 -0.10154191080E+03 -0.10172062873E+03  0.23847022156E+03  0.30524241638E+03  0.12508812983E+03 0.  0.
        -24    2    1    2    0    0  0.32683699508E+02  0.97911271661E+02  0.57944943768E+03  0.59415802272E+03  0.81285077392E+02 0.  0.
        -11    1    3    3    0    0 -0.98054004958E+01 -0.22531162654E+02 -0.21793213602E+01  0.24668778061E+02  0.00000000000E+00 0.  1.
         12    1    3    3    0    0  0.78663611792E+02  0.26340519724E+02 -0.15813557478E+02  0.84450313200E+02  0.00000000000E+00 0. -1.
         13    1    5    5    0    0  0.38907646451E+02  0.64898519159E+02  0.21058584277E+03  0.22376778123E+03  0.00000000000E+00 0. -1.
        -14    1    5    5    0    0 -0.62239469437E+01  0.33012752501E+02  0.36886359491E+03  0.37039024149E+03  0.00000000000E+00 0.  1.
          5    1    4    4  501    0 -0.48134593356E+02 -0.12333849699E+03  0.17385824150E+03  0.21857146304E+03  0.41800000000E+01 0.  1.
         -5    1    4    4    0  501 -0.53407317448E+02  0.21617868260E+02  0.64611980065E+02  0.86670953341E+02  0.41800000000E+01 0.  1.
</event>
<event>
11    1  0.8039394E-009  0.1951417E+03  0.7561462E-02  0.1058013E+00
         22   -1    0    0    0    0  0.00000000000E+00  0.00000000000E+00  0.57787171872E+03  0.57787171872E+03  0.00000000000E+00 0.  1.
         22   -1    0    0    0    0 -0.00000000000E+00 -0.00000000000E+00 -0.30636838228E+03  0.30636838228E+03  0.00000000000E+00 0. -1.
        -24    2    1    2    0    0  0.85745836250E+00  0.56525206903E+02 -0.17731699014E+03  0.20284148432E+03  0.80669191882E+02 0.  0.
         25    2    1    2    0    0  0.13517228066E+03 -0.11184799340E+03  0.14665398672E+02  0.21597431782E+03  0.12509321705E+03 0.  0.
         24    2    1    2    0    0 -0.13602973903E+03  0.55322786499E+02  0.43415492791E+03  0.46542429886E+03  0.81022070671E+02 0.  0.
        -11    1    5    5    0    0 -0.14051306533E+03  0.66660357000E+02  0.40326534746E+03  0.43221576230E+03  0.00000000000E+00 0.  1.
         12    1    5    5    0    0  0.44833263067E+01 -0.11337570502E+02  0.30889580457E+02  0.33208536560E+02  0.00000000000E+00 0. -1.
         11    1    3    3    0    0 -0.32314476424E+01  0.72849804473E+02 -0.16901758513E+03  0.18407737599E+03  0.00000000000E+00 0. -1.
        -12    1    3    3    0    0  0.40889060049E+01 -0.16324597571E+02 -0.82994050085E+01  0.18764108336E+02  0.00000000000E+00 0.  1.
          5    1    4    4  501    0  0.15295455973E+03 -0.10608475302E+03  0.33422159506E+02  0.18916549715E+03  0.41800000000E+01 0.  1.
         -5    1    4    4    0  501 -0.17782279071E+02 -0.57632403848E+01 -0.18756760834E+02  0.26808820669E+02  0.41800000000E+01 0.  1.
</event>
<event>
11    1  0.8039394E-009  0.2230381E+03  0.7561462E-02  0.1039331E+00
         22   -1    0    0    0    0  0.00000000000E+00  0.00000000000E+00  0.14235528623E+04  0.14235528623E+04  0.00000000000E+00 0. -1.
         22   -1    0    0    0    0 -0.00000000000E+00 -0.00000000000E+00 -0.60421578334E+03  0.60421578334E+03  0.00000000000E+00 0.  1.
         24    2    1    2    0    0  0.25384243010E+02  0.47471183140E+01 -0.52790599102E+03  0.53446355335E+03  0.79370394808E+02 0.  0.
         25    2    1    2    0    0 -0.71603942992E+02 -0.18219755057E+03  0.14378746607E+03  0.27322422936E+03  0.12511423590E+03 0.  0.
        -24    2    1    2    0    0  0.46219699981E+02  0.17745043225E+03  0.12034556039E+04  0.12200808629E+04  0.81651729545E+02 0.  0.
        -11    1    3    3    0    0 -0.16105124032E+01  0.11547404839E+02 -0.47069324445E+03  0.47083762242E+03  0.00000000000E+00 0.  1.
         12    1    3    3    0    0  0.26994755414E+02 -0.68002865249E+01 -0.57212746571E+02  0.63625930932E+02  0.00000000000E+00 0. -1.
         11    1    5    5    0    0  0.53903172796E+02  0.16162215317E+03  0.11694266315E+04  0.11817723634E+04  0.00000000000E+00 0. -1.
        -12    1    5    5    0    0 -0.76834728150E+01  0.15828279085E+02  0.34028972421E+02  0.38308499545E+02  0.00000000000E+00 0.  1.
          5    1    4    4  501    0  0.69509942869E+01 -0.86340362800E+02  0.46461347344E+01  0.86844882048E+02  0.41800000000E+01 0. -1.
         -5    1    4    4    0  501 -0.78554937279E+02 -0.95857187768E+02  0.13914133134E+03  0.18637934731E+03  0.41800000000E+01 0. -1.
</event>
<event>
11    1  0.8039394E-009  0.2119760E+03  0.7561462E-02  0.1046364E+00
         22   -1    0    0    0    0  0.00000000000E+00  0.00000000000E+00  0.59751078376E+03  0.59751078376E+03  0.00000000000E+00 0. -1.
         22   -1    0    0    0    0 -0.00000000000E+00 -0.00000000000E+00 -0.23299795446E+04  0.23299795446E+04  0.00000000000E+00 0. -1.
        -24    2    1    2    0    0  0.23034164321E+02  0.11574830633E+02 -0.22168791312E+04  0.22185212430E+04  0.81356462286E+02 0.  0.
         25    2    1    2    0    0 -0.80700257238E+02  0.15004290633E+03  0.24789354846E+02  0.21280742416E+03  0.12508829845E+03 0.  0.
         24    2    1    2    0    0  0.57666092917E+02 -0.16161773696E+03  0.45962101549E+03  0.49616166120E+03  0.74021922386E+02 0.  0.
        -13    1    5    5    0    0  0.26877742708E+02 -0.84569061443E+01  0.10378220086E+03  0.10753919067E+03  0.00000000000E+00 0.  1.
         14    1    5    5    0    0  0.30788350209E+02 -0.15316083082E+03  0.35583881464E+03  0.38862247054E+03  0.00000000000E+00 0. -1.
         13    1    3    3    0    0  0.30939750266E+02  0.18201207245E+02 -0.21780346828E+04  0.21783304688E+04  0.00000000000E+00 0. -1.
        -14    1    3    3    0    0 -0.79055859450E+01 -0.66263766119E+01 -0.38844448440E+02  0.40190774199E+02  0.00000000000E+00 0.  1.
          5    1    4    4  501    0  0.17392745146E+02 -0.12167470785E+02  0.46779376025E+01  0.22133920332E+02  0.41800000000E+01 0. -1.
         -5    1    4    4    0  501 -0.98093002384E+02  0.16221037711E+03  0.20111417244E+02  0.19067350383E+03  0.41800000000E+01 0. -1.
</event>
<event>
11    1  0.8039394E-009  0.1611902E+03  0.7561462E-02  0.1085963E+00
         22   -1    0    0    0    0  0.00000000000E+00  0.00000000000E+00  0.22267985528E+04  0.22267985528E+04  0.00000000000E+00 0.  1.
         22   -1    0    0    0    0 -0.00000000000E+00 -0.00000000000E+00 -0.22187037186E+03  0.22187037186E+03  0.00000000000E+00 0. -1.
        -24    2    1    2    0    0 -0.12378973396E+02 -0.52829495925E+02 -0.19053017215E+03  0.21533238992E+03  0.84392517595E+02 0.  0.
         25    2    1    2    0    0 -0.51615227253E+02  0.12642724985E+03  0.50100920910E+03  0.53414085468E+03  0.12509294085E+03 0.  0.
         24    2    1    2    0    0  0.63994200649E+02 -0.73597753926E+02  0.16944491440E+04  0.16991956801E+04  0.81216811450E+02 0.  0.
        -11    1    5    5    0    0  0.49209343586E+02 -0.33139697821E+02  0.14325418779E+04  0.14337698668E+04  0.00000000000E+00 0.  1.
         12    1    5    5    0    0  0.14784857062E+02 -0.40458056105E+02  0.26190726612E+03  0.26542581327E+03  0.00000000000E+00 0. -1.
         11    1    3    3    0    0  0.96407308983E+01 -0.69997873731E+02 -0.15325327785E+03  0.16875785371E+03  0.00000000000E+00 0. -1.
        -12    1    3    3    0    0 -0.22019704294E+02  0.17168377807E+02 -0.37276894302E+02  0.46574536202E+02  0.00000000000E+00 0.  1.
          5    1    4    4  501    0 -0.53046612719E+02  0.13696180454E+03  0.31287162063E+03  0.34565676967E+03  0.41800000000E+01 0. -1.
         -5    1    4    4    0  501  0.14313854659E+01 -0.10534554693E+02  0.18813758847E+03  0.18848408501E+03  0.41800000000E+01 0. -1.
</event>
<event>
11    1  0.8039394E-009  0.1346391E+03  0.7561462E-02  0.1113697E+00
         22   -1    0    0    0    0  0.00000000000E+00  0.00000000000E+00  0.51489516931E+03  0.51489516931E+03  0.00000000000E+00 0.  1.
         22   -1    0    0    0    0 -0.00000000000E+00 -0.00000000000E+00 -0.12988921713E+03  0.12988921713E+03  0.00000000000E+00 0. -1.
        -24    2    1    2    0    0  0.46543013011E+01 -0.13543659624E+02 -0.78406493696E+02  0.11359142964E+03  0.80934179418E+02 0.  0.
         25    2    1    2    0    0 -0.12718283698E+02  0.59806644997E+02  0.15181297482E+03  0.20599370336E+03  0.12509051514E+03 0.  0.
         24    2    1    2    0    0  0.80639823966E+01 -0.46262985373E+02  0.31159947106E+03  0.32519925343E+03  0.80343216497E+02 0.  0.
        -11    1    5    5    0    0  0.68797433949E+01  0.17595359695E+02  0.15392506854E+03  0.15508015436E+03  0.00000000000E+00 0.  1.
         12    1    5    5    0    0  0.11842390017E+01 -0.63858345067E+02  0.15767440252E+03  0.17011909907E+03  0.00000000000E+00 0. -1.
         13    1    3    3    0    0 -0.98951112569E+01 -0.17721268615E+02 -0.91409703785E+02  0.93635946806E+02  0.00000000000E+00 0. -1.
        -14    1    3    3    0    0  0.14549412558E+02  0.41776089910E+01  0.13003210089E+02  0.19955482838E+02  0.00000000000E+00 0.  1.
          5    1    4    4  501    0  0.34078146120E+02  0.36848805650E+02  0.55569094291E+01  0.50670565057E+02  0.41800000000E+01 0. -1.
         -5    1    4    4    0  501 -0.46796429817E+02  0.22957839347E+02  0.14625606539E+03  0.15532313831E+03  0.41800000000E+01 0. -1.
</event>
<event>
11    1  0.8039394E-009  0.1553042E+03  0.7561462E-02  0.1091579E+00
         22   -1    0    0    0    0  0.00000000000E+00  0.00000000000E+00  0.79333790190E+03  0.79333790190E+03  0.00000000000E+00 0.  1.
         22   -1    0    0    0    0 -0.00000000000E+00 -0.00000000000E+00 -0.68841338421E+03  0.68841338421E+03  0.00000000000E+00 0. -1.
         24    2    1    2    0    0 -0.38649532530E+02  0.97560539829E+02 -0.51747195740E+03  0.53417555853E+03  0.80959590752E+02 0.  0.
         25    2    1    2    0    0  0.93851891169E+01 -0.48141653319E+02 -0.13090907672E+03  0.18758819314E+03  0.12508574370E+03 0.  0.
        -24    2    1    2    0    0  0.29264343413E+02 -0.49418886510E+02  0.75330555182E+03  0.75998753444E+03  0.82541928519E+02 0.  0.
        -11    1    3    3    0    0 -0.73374054320E+01  0.20228855508E+02 -0.30725952748E+03  0.30801211233E+03  0.00000000000E+00 0.  1.
         12    1    3    3    0    0 -0.31312127098E+02  0.77331684322E+02 -0.21021242993E+03  0.22616344620E+03  0.00000000000E+00 0. -1.
         13    1    5    5    0    0  0.15994113047E+02 -0.10561648981E+02  0.30537684468E+02  0.36054268181E+02  0.00000000000E+00 0. -1.
        -14    1    5    5    0    0  0.13270230366E+02 -0.38857237529E+02  0.72276786735E+03  0.72393326626E+03  0.00000000000E+00 0.  1.
          5    1    4    4  501    0 -0.46404407887E+02 -0.14910777901E+00 -0.94531049562E+02  0.10538967234E+03  0.41800000000E+01 0. -1.
         -5    1    4    4    0  501  0.55789597004E+02 -0.47992545540E+02 -0.36378027161E+02  0.82198520798E+02  0.41800000000E+01 0. -1.
</event>
<event>
11    1  0.8039394E-009  0.1728454E+03  0.7561462E-02  0.1075582E+00
         22   -1    0    0    0    0  0.00000000000E+00  0.00000000000E+00  0.64432672277E+02  0.64432672277E+02  0.00000000000E+00 0.  1.
         22   -1    0    0    0    0 -0.00000000000E+00 -0.00000000000E+00 -0.23498143435E+04  0.23498143435E+04  0.00000000000E+00 0.  1.
        -24    2    1    2    0    0  0.96633662686E+02 -0.64824170896E+02 -0.19035236524E+04  0.19089048711E+04  0.83518105336E+02 0.  0.
         25    2    1    2    0    0 -0.12966064452E+03  0.65970691822E+02 -0.37196902213E+03  0.41853547849E+03  0.12508788277E+03 0.  0.
         24    2    1    2    0    0  0.33026981830E+02 -0.11465209258E+01 -0.98889967226E+01  0.86806666177E+02  0.79658703213E+02 0.  0.
        -13    1    5    5    0    0  0.32509907488E+02 -0.25818304670E+02  0.21601841867E+02  0.46798702043E+02  0.00000000000E+00 0.  1.
         14    1    5    5    0    0  0.51707434189E+00  0.24671783744E+02 -0.31490838590E+02  0.40007964133E+02  0.00000000000E+00 0. -1.
         11    1    3    3    0    0  0.32287708083E+01  0.17837864541E+02 -0.19916133699E+03  0.19998463072E+03  0.00000000000E+00 0. -1.
        -12    1    3    3    0    0  0.93404891877E+02 -0.82662035437E+02 -0.17043623154E+04  0.17089202404E+04  0.00000000000E+00 0.  1.
          5    1    4    4  501    0 -0.70274296011E+02  0.10062087661E+03 -0.22959596052E+03  0.26037437465E+03  0.41800000000E+01 0.  1.
         -5    1    4    4    0  501 -0.59386348504E+02 -0.34650184787E+02 -0.14237306161E+03  0.15816110383E+03  0.41800000000E+01 0.  1.
</event>
<event>
11    1  0.8039394E-009  0.2628919E+03  0.7561462E-02  0.1017247E+00
         22   -1    0    0    0    0  0.00000000000E+00  0.00000000000E+00  0.92649377134E+02  0.92649377134E+02  0.00000000000E+00 0. -1.
         22   -1    0    0    0    0 -0.00000000000E+00 -0.00000000000E+00 -0.11232802700E+04  0.11232802700E+04  0.00000000000E+00 0. -1.
         24    2    1    2    0    0  0.25423941856E+02  0.34019083151E+01 -0.21263993678E+03  0.22868867825E+03  0.80154968955E+02 0.  0.
         25    2    1    2    0    0  0.14689924374E+03  0.15960610972E+03 -0.61689475524E+03  0.66577789470E+03  0.12509023929E+03 0.  0.
        -24    2    1    2    0    0 -0.17232318560E+03 -0.16300801803E+03 -0.20109620086E+03  0.32146307419E+03  0.81436673740E+02 0.  0.
        -11    1    3    3    0    0 -0.17699134910E+02 -0.25846699512E+02 -0.65762902857E+02  0.72842780317E+02  0.00000000000E+00 0.  1.
         12    1    3    3    0    0  0.43123076766E+02  0.29248607827E+02 -0.14687703392E+03  0.15584589793E+03  0.00000000000E+00 0. -1.
         11    1    5    5    0    0 -0.32295161401E+02 -0.83989661506E+02 -0.74425710442E+02  0.11677511321E+03  0.00000000000E+00 0. -1.
        -12    1    5    5    0    0 -0.14002802419E+03 -0.79018356525E+02 -0.12667049042E+03  0.20468796098E+03  0.00000000000E+00 0.  1.
          5    1    4    4  501    0 -0.21117540544E+02  0.29335610958E+02 -0.67812299650E+02  0.76957838930E+02  0.41800000000E+01 0. -1.
         -5    1    4    4    0  501  0.16801678428E+03  0.13027049876E+03 -0.54908245559E+03  0.58882005577E+03  0.41800000000E+01 0. -1.
</event>
<event>
11    1  0.8039394E-009  0.1535953E+03  0.7561462E-02  0.1093261E+00
         22   -1    0    0    0    0  0.00000000000E+00  0.00000000000E+00  0.87760433813E+03  0.87760433813E+03  0.00000000000E+00 0.  1.
         22   -1    0    0    0    0 -0.00000000000E+00 -0.00000000000E+00 -0.25807592216E+03  0.25807592216E+03  0.00000000000E+00 0. -1.
        -24    2    1    2    0    0  0.20772808925E+02 -0.84628306545E+02 -0.17256895030E+03  0.20947511505E+03  0.80661771349E+02 0.  0.
         25    2    1    2    0    0 -0.73460600471E+02  0.83651132796E+02  0.44913552945E+02  0.17337397683E+03  0.12508931514E+03 0.  0.
         24    2    1    2    0    0  0.52687791546E+02  0.97717374911E+00  0.74718381333E+03  0.75283116841E+03  0.75459651285E+02 0.  0.
        -13    1    5    5    0    0  0.45517808585E+02 -0.21899745082E+02  0.67248623048E+03  0.67438060464E+03  0.00000000000E+00 0.  1.
         14    1    5    5    0    0  0.71699829609E+01  0.22876918831E+02  0.74697582850E+02  0.78450563762E+02  0.00000000000E+00 0. -1.
         13    1    3    3    0    0 -0.23765334338E+02 -0.63774413973E+02 -0.83416409799E+02  0.10765809035E+03  0.00000000000E+00 0. -1.
        -14    1    3    3    0    0  0.44538143263E+02 -0.20853892573E+02 -0.89152540505E+02  0.10181702470E+03  0.00000000000E+00 0.  1.
          5    1    4    4  501    0 -0.35915476168E+02  0.67880122280E+01  0.74233163489E+02  0.82849462882E+02  0.41800000000E+01 0.  1.
         -5    1    4    4    0  501 -0.37545124304E+02  0.76863120568E+02 -0.29319610544E+02  0.90524513945E+02  0.41800000000E+01 0.  1.
</event>
<event>
11    1  0.8039394E-009  0.1301454E+03  0.7561462E-02  0.1119090E+00
         22   -1    0    0    0    0  0.00000000000E+00  0.00000000000E+00  0.19992127515E+04  0.19992127515E+04  0.00000000000E+00 0. -1.
         22   -1    0    0    0    0 -0.00000000000E+00 -0.00000000000E+00 -0.24352040672E+03  0.24352040672E+03  0.00000000000E+00 0. -1.
        -24    2    1    2    0    0 -0.40499170753E+02 -0.55458658015E+01 -0.20607337558E+03  0.22457282094E+03  0.79345928200E+02 0.  0.
         25    2    1    2    0    0  0.11032106079E+02 -0.17291636998E+02  0.12113046889E+03  0.17533223402E+03  0.12509234076E+03 0.  0.
         24    2    1    2    0    0  0.29467064675E+02  0.22837502799E+02  0.18406352515E+04  0.18428281033E+04  0.81776706930E+02 0.  0.
        -11    1    5    5    0    0 -0.23259985375E+02  0.13796728998E+02  0.10683347606E+04  0.10686770033E+04  0.00000000000E+00 0.  1.
         12    1    5    5    0    0  0.52727050050E+02  0.90407738011E+01  0.77230049082E+03  0.77415109992E+03  0.00000000000E+00 0. -1.
         11    1    3    3    0    0 -0.28901110719E+02 -0.19815156465E+02 -0.20291113179E+03  0.20591464744E+03  0.00000000000E+00 0. -1.
        -12    1    3    3    0    0 -0.11598060034E+02  0.14269290663E+02 -0.31622437952E+01  0.18658173502E+02  0.00000000000E+00 0.  1.
          5    1    4    4  501    0 -0.20908299007E+02  0.34698601561E+02  0.12428669251E+01  0.40745147390E+02  0.41800000000E+01 0. -1.
         -5    1    4    4    0  501  0.31940405086E+02 -0.51990238558E+02  0.11988760196E+03  0.13458708663E+03  0.41800000000E+01 0. -1.
</event>
<event>
11    1  0.9622517E-009  0.1806718E+03  0.7561462E-02  0.1069101E+00
         22   -1    0    0    0    0  0.00000000000E+00  0.00000000000E+00  0.34451985982E+03  0.34451985982E+03  0.00000000000E+00 0. -1.
         22   -1    0    0    0    0 -0.00000000000E+00 -0.00000000000E+00 -0.60517537338E+03  0.60517537338E+03  0.00000000000E+00 0. -1.
         24    2    1    2    0    0 -0.18978822573E+02  0.35909372945E+02 -0.38278680434E+03  0.39320155777E+03  0.80200054142E+02 0.  0.
         25    2    1    2    0    0  0.13622216573E+03  0.20632328507E+02 -0.15305499860E+03  0.24095003084E+03  0.12509561682E+03 0.  0.
        -24    2    1    2    0    0 -0.11724334315E+03 -0.56541701452E+02  0.27518628938E+03  0.31554364460E+03  0.83050179214E+02 0.  0.
        -11    1    3    3    0    0  0.26749863083E+02  0.13441512247E+02 -0.67724938379E+02  0.74046584694E+02  0.00000000000E+00 0.  1.
         12    1    3    3    0    0 -0.45728685657E+02  0.22467860698E+02 -0.31506186596E+03  0.31915497307E+03  0.00000000000E+00 0. -1.
         13    1    5    5    0    0 -0.12502190720E+03 -0.32612425933E+02  0.22777831798E+03  0.26187212480E+03  0.00000000000E+00 0. -1.
        -14    1    5    5    0    0  0.77785640447E+01 -0.23929275519E+02  0.47407971400E+02  0.53671519801E+02  0.00000000000E+00 0.  1.
          5    1    4    4  501    0  0.61835495663E+02  0.60824857088E+02 -0.12413304954E+03  0.15149184186E+03  0.41800000000E+01 0.  1.
         -5    1    4    4    0  501  0.74386670065E+02 -0.40192528581E+02 -0.28921949067E+02  0.89458188976E+02  0.41800000000E+01 0.  1.
</event>
<event>
11    1  0.9575099E-009  0.2178244E+03  0.7561462E-02  0.1042589E+00
         22   -1    0    0    0    0  0.00000000000E+00  0.00000000000E+00  0.14204720278E+04  0.14204720278E+04  0.00000000000E+00 0. -1.
         22   -1    0    0    0    0 -0.00000000000E+00 -0.00000000000E+00 -0.12834936126E+04  0.12834936126E+04  0.00000000000E+00 0. -1.
        -24    2    1    2    0    0 -0.40309370224E+02 -0.17750316029E+02 -0.95439433629E+03  0.95898013338E+03  0.82670599581E+02 0.  0.
         25    2    1    2    0    0 -0.49353085098E+02  0.17201080147E+03 -0.28262804699E+03  0.35714158108E+03  0.12509217865E+03 0.  0.
         24    2    1    2    0    0  0.89662455322E+02 -0.15426048544E+03  0.13740007985E+04  0.13878439259E+04  0.79980716913E+02 0.  0.
        -11    1    5    5    0    0 -0.14694170083E+02 -0.25891293594E+02  0.23995304003E+03  0.24179276072E+03  0.00000000000E+00 0.  1.
         12    1    5    5    0    0  0.10435662541E+03 -0.12836919185E+03  0.11340477585E+04  0.11460511652E+04  0.00000000000E+00 0. -1.
         11    1    3    3    0    0  0.58450308264E+01 -0.14497973282E+02 -0.71414014446E+03  0.71431120777E+03  0.00000000000E+00 0. -1.
        -12    1    3    3    0    0 -0.46154401050E+02 -0.32523427467E+01 -0.24025419183E+03  0.24466892561E+03  0.00000000000E+00 0.  1.
          5    1    4    4  501    0 -0.70269799664E+02  0.33088864786E+02 -0.99518974313E+02  0.12631000105E+03  0.41800000000E+01 0. -1.
         -5    1    4    4    0  501  0.20916714566E+02  0.13892193668E+03 -0.18310907268E+03  0.23083158002E+03  0.41800000000E+01 0. -1.
</event>
<event>
11    1  0.8039394E-009  0.1272244E+03  0.7561462E-02  0.1122727E+00
         22   -1    0    0    0    0  0.00000000000E+00  0.00000000000E+00  0.28041045612E+03  0.28041045612E+03  0.00000000000E+00 0.  1.
         22   -1    0    0    0    0 -0.00000000000E+00 -0.00000000000E+00 -0.68055619708E+03  0.68055619708E+03  0.00000000000E+00 0. -1.
         24    2    1    2    0    0 -0.22473283815E+02 -0.74575083257E+01 -0.57957593533E+03  0.58606631499E+03  0.83694670263E+02 0.  0.
         25    2    1    2    0    0  0.23382941549E+02 -0.21174434420E+02 -0.43874936425E+02  0.13626198530E+03  0.12508876833E+03 0.  0.
        -24    2    1    2    0    0 -0.90965773363E+00  0.28631942746E+02  0.22330513080E+03  0.23863835291E+03  0.79135746761E+02 0.  0.
        -11    1    3    3    0    0  0.30449874627E+02  0.85356899082E+01 -0.22225221126E+03  0.22449075321E+03  0.00000000000E+00 0.  1.
         12    1    3    3    0    0 -0.52923158442E+02 -0.15993198234E+02 -0.35732372407E+03  0.36157556178E+03  0.00000000000E+00 0. -1.
         13    1    5    5    0    0  0.39006979730E+02  0.13644849929E+02  0.11811385964E+03  0.12513436873E+03  0.00000000000E+00 0. -1.
        -14    1    5    5    0    0 -0.39916637464E+02  0.14987092817E+02  0.10519127116E+03  0.11350398418E+03  0.00000000000E+00 0.  1.
          5    1    4    4  501    0  0.51914243914E+02  0.23073198590E+02  0.13227511310E+02  0.58479916807E+02  0.41800000000E+01 0.  1.
         -5    1    4    4    0  501 -0.28531302365E+02 -0.44247633010E+02 -0.57102447735E+02  0.77782068492E+02  0.41800000000E+01 0.  1.
</event>
<event>
11    1  0.8039394E-009  0.1351819E+03  0.7561462E-02  0.1113061E+00
         22   -1    0    0    0    0  0.00000000000E+00  0.00000000000E+00  0.13328494850E+04  0.13328494850E+04  0.00000000000E+00 0. -1.
         22   -1    0    0    0    0 -0.00000000000E+00 -0.00000000000E+00 -0.10291130842E+03  0.10291130842E+03  0.00000000000E+00 0. -1.
        -24    2    1    2    0    0 -0.27437903926E+02  0.48973912024E+02 -0.57410519108E+02  0.11396393593E+03  0.80873533106E+02 0.  0.
         25    2    1    2    0    0  0.41980049070E+02  0.26089691336E+02  0.28457467246E+03  0.31475434615E+03  0.12507820634E+03 0.  0.
         24    2    1    2    0    0 -0.14542145143E+02 -0.75063603360E+02  0.10027740232E+04  0.10070425113E+04  0.52276758389E+02 0.  0.
        -11    1    5    5    0    0  0.11784216285E+02 -0.19630054825E+02  0.12176907855E+03  0.12390284620E+03  0.00000000000E+00 0.  1.
         12    1    5    5    0    0 -0.26326361429E+02 -0.55433548535E+02  0.88100494467E+03  0.88313966514E+03  0.00000000000E+00 0. -1.
         11    1    3    3    0    0 -0.35001809916E+02  0.44105773742E+02 -0.75250530031E+02  0.93984510664E+02  0.00000000000E+00 0. -1.
        -12    1    3    3    0    0  0.75639059896E+01  0.48681382823E+01  0.17840010923E+02  0.19979425264E+02  0.00000000000E+00 0.  1.
          5    1    4    4  501    0 -0.42979662271E+02 -0.18350444391E+01  0.70240350598E+02  0.82473013824E+02  0.41800000000E+01 0. -1.
         -5    1    4    4    0  501  0.84959711341E+02  0.27924735775E+02  0.21433432187E+03  0.23228133233E+03  0.41800000000E+01 0. -1.
</event>
<event>
11    1  0.8039394E-009  0.1724444E+03  0.7561462E-02  0.1075924E+00
         22   -1    0    0    0    0  0.00000000000E+00  0.00000000000E+00  0.10365075620E+03  0.10365075620E+03  0.00000000000E+00 0. -1.
         22   -1    0    0    0    0 -0.00000000000E+00 -0.00000000000E+00 -0.97815105972E+03  0.97815105972E+03  0.00000000000E+00 0.  1.
        -24    2    1    2    0    0 -0.58117264358E+02  0.11044051072E+03 -0.72943297747E+03  0.74422732420E+03  0.78912094470E+02 0.  0.
         25    2    1    2    0    0 -0.64490433795E+01 -0.10392505456E+03 -0.16559736637E+03  0.23219269226E+03  0.12509576916E+03 0.  0.
         24    2    1    2    0    0  0.64566307738E+02 -0.65154561569E+01  0.20530040323E+02  0.10538179946E+03  0.80452357567E+02 0.  0.
        -13    1    5    5    0    0  0.59185681114E+02 -0.56201609316E+01 -0.21334049703E+02  0.63163856236E+02  0.00000000000E+00 0.  1.
         14    1    5    5    0    0  0.53806266240E+01 -0.89529522526E+00  0.41864090027E+02  0.42217943225E+02  0.00000000000E+00 0. -1.
         13    1    3    3    0    0  0.17858132731E+02  0.38203849319E+02 -0.17908657872E+03  0.18398491700E+03  0.00000000000E+00 0. -1.
        -14    1    3    3    0    0 -0.75975397089E+02  0.72236661399E+02 -0.55034639875E+03  0.56024240720E+03  0.00000000000E+00 0.  1.
          5    1    4    4  501    0  0.45198087647E+02 -0.99510982627E+02 -0.12586562840E+03  0.16674810825E+03  0.41800000000E+01 0.  1.
         -5    1    4    4    0  501 -0.51647131026E+02 -0.44140719341E+01 -0.39731737969E+02  0.65444584011E+02  0.41800000000E+01 0.  1.
</event>
<event>
11    1  0.8039394E-009  0.2594635E+03  0.7561462E-02  0.1018975E+00
         22   -1    0    0    0    0  0.00000000000E+00  0.00000000000E+00  0.74457880189E+03  0.74457880189E+03  0.00000000000E+00 0. -1.
         22   -1    0    0    0    0 -0.00000000000E+00 -0.00000000000E+00 -0.33947586746E+03  0.33947586746E+03  0.00000000000E+00 0. -1.
         24    2    1    2    0    0 -0.23903657032E+03  0.96174734658E+01 -0.19461774429E+03  0.31840194932E+03  0.79200739845E+02 0.  0.
         25    2    1    2    0    0  0.19485948693E+03  0.98887695319E+01  0.91869488110E+02  0.24931014498E+03  0.12509012006E+03 0.  0.
        -24    2    1    2    0    0  0.44177083395E+02 -0.19506242998E+02  0.50785119061E+03  0.51634257505E+03  0.79779162634E+02 0.  0.
        -13    1    3    3    0    0 -0.12422939933E+03 -0.23787364949E+02 -0.13428042074E+03  0.18447225749E+03  0.00000000000E+00 0.  1.
         14    1    3    3    0    0 -0.11480717099E+03  0.33404838415E+02 -0.60337323544E+02  0.13392969183E+03  0.00000000000E+00 0. -1.
         11    1    5    5    0    0  0.40105310652E+02  0.57659405522E+01  0.46245509064E+03  0.46422666110E+03  0.00000000000E+00 0. -1.
        -12    1    5    5    0    0  0.40717727424E+01 -0.25272183550E+02  0.45396099967E+02  0.52115913950E+02  0.00000000000E+00 0.  1.
          5    1    4    4  501    0 -0.15543658019E+02  0.12349010439E+02  0.17328745266E+01  0.20361203735E+02  0.41800000000E+01 0. -1.
         -5    1    4    4    0  501  0.21040314495E+03 -0.24602409074E+01  0.90136613583E+02  0.22894894124E+03  0.41800000000E+01 0. -1.
</event>
<event>
11    1  0.8039394E-009  0.1382819E+03  0.7561462E-02  0.1109492E+00
         22   -1    0    0    0    0  0.00000000000E+00  0.00000000000E+00  0.47920215425E+03  0.47920215425E+03  0.00000000000E+00 0. -1.
         22   -1    0    0    0    0 -0.00000000000E+00 -0.00000000000E+00 -0.10680789125E+04  0.10680789125E+04  0.00000000000E+00 0.  1.
        -24    2    1    2    0    0 -0.46852195227E+02 -0.34112740163E+02 -0.94419539289E+03  0.94946785776E+03  0.81396963862E+02 0.  0.
         25    2    1    2    0    0  0.61856964356E+02  0.45369941222E+02 -0.71358848911E+02  0.16315868348E+03  0.12507579730E+03 0.  0.
         24    2    1    2    0    0 -0.15004769129E+02 -0.11257201059E+02  0.42667748358E+03  0.43465452549E+03  0.80740410333E+02 0.  0.
        -11    1    5    5    0    0 -0.45129246550E+02 -0.10216529792E+02  0.16899644787E+03  0.17521651112E+03  0.00000000000E+00 0.  1.
         12    1    5    5    0    0  0.30124477421E+02 -0.10406712673E+01  0.25768103571E+03  0.25943801437E+03  0.00000000000E+00 0. -1.
         11    1    3    3    0    0  0.40576408293E+01 -0.36811854747E+02 -0.19152228088E+03  0.19507014424E+03  0.00000000000E+00 0. -1.
        -12    1    3    3    0    0 -0.50909836056E+02  0.26991145843E+01 -0.75267311201E+03  0.75439771352E+03  0.00000000000E+00 0.  1.
          5    1    4    4  501    0  0.42459557937E+02  0.60970764940E+02  0.12611240062E+02  0.75476910466E+02  0.41800000000E+01 0. -1.
         -5    1    4    4    0  501  0.19397406419E+02 -0.15600823718E+02 -0.83970088973E+02  0.87681773013E+02  0.41800000000E+01 0. -1.
</event>
<event>
11    1  0.8039394E-009  0.1734525E+03  0.7561462E-02  0.1075066E+00
         22   -1    0    0    0    0  0.00000000000E+00  0.00000000000E+00  0.19163293767E+03  0.19163293767E+03  0.00000000000E+00 0.  1.
         22   -1    0    0    0    0 -0.00000000000E+00 -0.00000000000E+00 -0.41544989764E+03  0.41544989764E+03  0.00000000000E+00 0.  1.
         24    2    1    2    0    0 -0.83903076389E+02 -0.77806554009E+02 -0.20513438613E+03  0.24736873618E+03  0.77573121582E+02 0.  0.
         25    2    1    2    0    0  0.44181167850E+02  0.14372770365E+03 -0.10072555952E+03  0.22000681409E+03  0.12509089302E+03 0.  0.
        -24    2    1    2    0    0  0.39721908539E+02 -0.65921149636E+02  0.82042985678E+02  0.13970728504E+03  0.82847124316E+02 0.  0.
        -13    1    3    3    0    0 -0.28670113326E+02 -0.75066142067E+02 -0.14423094345E+03  0.16510440979E+03  0.00000000000E+00 0.  1.
         14    1    3    3    0    0 -0.55232963063E+02 -0.27404119423E+01 -0.60903442675E+02  0.82264326388E+02  0.00000000000E+00 0. -1.
         13    1    5    5    0    0  0.12355568689E+02 -0.79677476907E+02  0.47669447270E+02  0.93667158636E+02  0.00000000000E+00 0. -1.
        -14    1    5    5    0    0  0.27366339850E+02  0.13756327271E+02  0.34373538408E+02  0.46040126406E+02  0.00000000000E+00 0.  1.
          5    1    4    4  501    0  0.37542930158E+02  0.12718726167E+03 -0.12982444845E+03  0.18562847560E+03  0.41800000000E+01 0. -1.
         -5    1    4    4    0  501  0.66382376928E+01  0.16540441977E+02  0.29098888933E+02  0.34378338494E+02  0.41800000000E+01 0. -1.
</event>
<event>
11    1  0.8039394E-009  0.1774978E+03  0.7561462E-02  0.1071685E+00
         22   -1    0    0    0    0  0.00000000000E+00  0.00000000000E+00  0.44670004726E+03  0.44670004726E+03  0.00000000000E+00 0. -1.
         22   -1    0    0    0    0 -0.00000000000E+00 -0.00000000000E+00 -0.25166856651E+03  0.25166856651E+03  0.00000000000E+00 0. -1.
         24    2    1    2    0    0  0.48018076873E+02 -0.75981615066E+01 -0.15782642307E+03  0.18158200552E+03  0.75494219279E+02 0.  0.
         25    2    1    2    0    0 -0.13425375448E+03 -0.74449274985E+02  0.90361984494E+02  0.21766843941E+03  0.12508995217E+03 0.  0.
        -24    2    1    2    0    0  0.86235677611E+02  0.82047436491E+02  0.26249591932E+03  0.29911816885E+03  0.79994983277E+02 0.  0.
        -11    1    3    3    0    0  0.29159869691E+02  0.51994525467E+01 -0.89088417316E+01  0.30930563657E+02  0.00000000000E+00 0.  1.
         12    1    3    3    0    0  0.18858207182E+02 -0.12797614053E+02 -0.14891758134E+03  0.15065144186E+03  0.00000000000E+00 0. -1.
         11    1    5    5    0    0  0.73029901562E+02  0.62642549754E+02  0.11579851199E+03  0.15055481042E+03  0.00000000000E+00 0. -1.
        -12    1    5    5    0    0  0.13205776049E+02  0.19404886737E+02  0.14669740734E+03  0.14856335844E+03  0.00000000000E+00 0.  1.
          5    1    4    4  501    0 -0.82940438376E+02  0.13955600513E+02  0.77707814039E+02  0.11458556570E+03  0.41800000000E+01 0. -1.
         -5    1    4    4    0  501 -0.51313316108E+02 -0.88404875498E+02  0.12654170455E+02  0.10308287371E+03  0.41800000000E+01 0. -1.
</event>
<event>
11    1  0.8039394E-009  0.1358653E+03  0.7561462E-02  0.1112265E+00
         22   -1    0    0    0    0  0.00000000000E+00  0.00000000000E+00  0.29014959066E+03  0.29014959066E+03  0.00000000000E+00 0. -1.
         22   -1    0    0    0    0 -0.00000000000E+00 -0.00000000000E+00 -0.25534649939E+03  0.25534649939E+03  0.00000000000E+00 0.  1.
         24    2    1    2    0    0  0.35331632941E+01 -0.20532776305E+01 -0.19510744495E+03  0.21098017997E+03  0.80181182789E+02 0.  0.
         25    2    1    2    0    0 -0.53030730338E+02 -0.14708202437E+02  0.87040271482E+02  0.16202509297E+03  0.12509009678E+03 0.  0.
        -24    2    1    2    0    0  0.49497567044E+02  0.16761480067E+02  0.14287026474E+03  0.17249081711E+03  0.81303216933E+02 0.  0.
        -13    1    3    3    0    0 -0.76264528481E+01 -0.38741359992E+02 -0.73020887652E+02  0.83012684516E+02  0.00000000000E+00 0.  1.
         14    1    3    3    0    0  0.11159616142E+02  0.36688082362E+02 -0.12208655730E+03  0.12796749545E+03  0.00000000000E+00 0. -1.
         11    1    5    5    0    0  0.56824504274E+02 -0.11131739214E+02  0.12698902269E+03  0.13956773190E+03  0.00000000000E+00 0. -1.
        -12    1    5    5    0    0 -0.73269372307E+01  0.27893219281E+02  0.15881242058E+02  0.32923085219E+02  0.00000000000E+00 0.  1.
          5    1    4    4  501    0 -0.72479945672E+02 -0.44133340883E+02  0.93047835570E+02  0.12600185081E+03  0.41800000000E+01 0. -1.
         -5    1    4    4    0  501  0.19449215334E+02  0.29425138447E+02 -0.60075640887E+01  0.36023242164E+02  0.41800000000E+01 0. -1.
</event>
<event>
11    1  0.8039394E-009  0.4247308E+03  0.7561462E-02  0.9579481E-01
         22   -1    0    0    0    0  0.00000000000E+00  0.00000000000E+00  0.26702478128E+04  0.26702478128E+04  0.00000000000E+00 0. -1.
         22   -1    0    0    0    0 -0.00000000000E+00 -0.00000000000E+00 -0.12006611407E+03  0.12006611407E+03  0.00000000000E+00 0. -1.
        -24    2    1    2    0    0 -0.15576282582E+03  0.94578645156E+02  0.55405517991E+03  0.58892067171E+03  0.81506055965E+02 0.  0.
         25    2    1    2    0    0  0.18278558522E+03 -0.41248060361E+03  0.56954385176E+03  0.73727670881E+03  0.12508368304E+03 0.  0.
         24    2    1    2    0    0 -0.27022759402E+02  0.31790195846E+03  0.14265826670E+04  0.14641165463E+04  0.81897927930E+02 0.  0.
        -13    1    5    5    0    0 -0.38982306462E+02  0.30995959258E+03  0.13141993705E+04  0.13508199565E+04  0.00000000000E+00 0.  1.
         14    1    5    5    0    0  0.11959547060E+02  0.79423658771E+01  0.11238329651E+03  0.11329658987E+03  0.00000000000E+00 0. -1.
         13    1    3    3    0    0 -0.11492296473E+03  0.93198490472E+02  0.33699200863E+03  0.36804464448E+03  0.00000000000E+00 0. -1.
        -14    1    3    3    0    0 -0.40839861086E+02  0.13801546840E+01  0.21706317128E+03  0.22087602723E+03  0.00000000000E+00 0.  1.
          5    1    4    4  501    0  0.11043186886E+01 -0.26205052423E+02  0.13576301256E+01  0.26593981496E+02  0.41800000000E+01 0. -1.
         -5    1    4    4    0  501  0.18168126653E+03 -0.38627555119E+03  0.56818622163E+03  0.71068272732E+03  0.41800000000E+01 0. -1.
</event>
<event>
11    1  0.8039394E-009  0.1662266E+03  0.7561462E-02  0.1081363E+00
         22   -1    0    0    0    0  0.00000000000E+00  0.00000000000E+00  0.29238685428E+04  0.29238685428E+04  0.00000000000E+00 0. -1.
         22   -1    0    0    0    0 -0.00000000000E+00 -0.00000000000E+00 -0.12428575339E+03  0.12428575339E+03  0.00000000000E+00 0.  1.
         24    2    1    2    0    0  0.10203610331E+03  0.24173061080E+02 -0.65432317747E+02  0.14081081204E+03  0.67458085649E+02 0.  0.
         25    2    1    2    0    0 -0.19319324389E+03 -0.22862090969E+02  0.66707252427E+03  0.70603140291E+03  0.12509310362E+03 0.  0.
        -24    2    1    2    0    0  0.91157140581E+02 -0.13109701113E+01  0.21979425829E+04  0.22013120812E+04  0.80696582683E+02 0.  0.
        -13    1    3    3    0    0  0.99770115237E+02  0.23171018233E+01 -0.64483214485E+02  0.11881721174E+03  0.00000000000E+00 0.  1.
         14    1    3    3    0    0  0.22659880750E+01  0.21855959257E+02 -0.94910326172E+00  0.21993600296E+02  0.00000000000E+00 0. -1.
         11    1    5    5    0    0  0.28850807642E+02  0.35347978610E+02  0.11332180877E+04  0.11341362718E+04  0.00000000000E+00 0. -1.
        -12    1    5    5    0    0  0.62306332939E+02 -0.36658948721E+02  0.10647244952E+04  0.10671758094E+04  0.00000000000E+00 0.  1.
          5    1    4    4  501    0 -0.13115290495E+02 -0.47471315031E+02  0.14941987216E+03  0.15738267755E+03  0.41800000000E+01 0.  1.
         -5    1    4    4    0  501 -0.18007795340E+03  0.24609224063E+02  0.51765265211E+03  0.54864872536E+03  0.41800000000E+01 0.  1.
</event>
<event>
11    1  0.8039394E-009  0.1433756E+03  0.7561462E-02  0.1103846E+00
         22   -1    0    0    0    0  0.00000000000E+00  0.00000000000E+00  0.65661471809E+03  0.65661471809E+03  0.00000000000E+00 0. -1.
         22   -1    0    0    0    0 -0.00000000000E+00 -0.00000000000E+00 -0.33679949416E+03  0.33679949416E+03  0.00000000000E+00 0.  1.
         24    2    1    2    0    0  0.26731121939E+02  0.29563228369E+02 -0.19621806686E+03  0.21625741782E+03  0.81714158169E+02 0.  0.
         25    2    1    2    0    0  0.43398953496E+02 -0.16753556422E+02 -0.89992117174E+02  0.16096588164E+03  0.12508910057E+03 0.  0.
        -24    2    1    2    0    0 -0.70130075435E+02 -0.12809671948E+02  0.60602540797E+03  0.61619091279E+03  0.85686234108E+02 0.  0.
        -13    1    3    3    0    0  0.85699065252E+01  0.25037408754E+02 -0.19575436893E+03  0.19753503003E+03  0.00000000000E+00 0.  1.
         14    1    3    3    0    0  0.18161215414E+02  0.45258196150E+01 -0.46369793218E+00  0.18722387782E+02  0.00000000000E+00 0. -1.
         11    1    5    5    0    0 -0.33992436066E+02 -0.75656439992E+01  0.53676815133E+03  0.53789661922E+03  0.00000000000E+00 0. -1.
        -12    1    5    5    0    0 -0.36137639369E+02 -0.52440279484E+01  0.69257256638E+02  0.78294293568E+02  0.00000000000E+00 0.  1.
          5    1    4    4  501    0  0.16458012076E+02 -0.34639452450E+02  0.21940743578E+02  0.44380473818E+02  0.41800000000E+01 0. -1.
         -5    1    4    4    0  501  0.26940941420E+02  0.17885896029E+02 -0.11193286075E+03  0.11658540782E+03  0.41800000000E+01 0. -1.
</event>
<event>
11    1  0.8039394E-009  0.2483188E+03  0.7561462E-02  0.1024799E+00
         22   -1    0    0    0    0  0.00000000000E+00  0.00000000000E+00  0.61069530689E+03  0.61069530689E+03  0.00000000000E+00 0.  1.
         22   -1    0    0    0    0 -0.00000000000E+00 -0.00000000000E+00 -0.90051044849E+03  0.90051044849E+03  0.00000000000E+00 0.  1.
        -24    2    1    2    0    0  0.74698243105E+02  0.17382258494E+01 -0.66606867987E+03  0.67523983865E+03  0.81966483644E+02 0.  0.
         25    2    1    2    0    0 -0.26793574847E+03  0.72419780090E+02 -0.91797505258E+02  0.31797665219E+03  0.12509268368E+03 0.  0.
         24    2    1    2    0    0  0.19323750537E+03 -0.74158005940E+02  0.46805104354E+03  0.51798926454E+03  0.80005971657E+02 0.  0.
        -11    1    5    5    0    0  0.14805462346E+03 -0.46194367636E+02  0.25542607188E+03  0.29882531573E+03  0.00000000000E+00 0.  1.
         12    1    5    5    0    0  0.45182881909E+02 -0.27963638304E+02  0.21262497166E+03  0.21916394881E+03  0.00000000000E+00 0. -1.
         13    1    3    3    0    0  0.59000170029E+02  0.31190821058E+02 -0.28487302953E+03  0.29258593666E+03  0.00000000000E+00 0. -1.
        -14    1    3    3    0    0  0.15698073076E+02 -0.29452595208E+02 -0.38119565034E+03  0.38265390198E+03  0.00000000000E+00 0.  1.
          5    1    4    4  501    0 -0.42940329235E+02 -0.17139594515E+02  0.20814670056E+02  0.50875932075E+02  0.41800000000E+01 0.  1.
         -5    1    4    4    0  501 -0.22499541923E+03  0.89559374606E+02 -0.11261217531E+03  0.26710072011E+03  0.41800000000E+01 0.  1.
</event>
<event>
11    1  0.8039394E-009  0.2425023E+03  0.7561462E-02  0.1027971E+00
         22   -1    0    0    0    0  0.00000000000E+00  0.00000000000E+00  0.11109105922E+04  0.11109105922E+04  0.00000000000E+00 0.  1.
         22   -1    0    0    0    0 -0.00000000000E+00 -0.00000000000E+00 -0.29171410748E+03  0.29171410748E+03  0.00000000000E+00 0.  1.
        -24    2    1    2    0    0  0.11431496642E+03 -0.16834997352E+03 -0.11446287510E+03  0.24729198372E+03  0.81498161358E+02 0.  0.
         25    2    1    2    0    0 -0.42207510331E+02  0.22770738635E+03  0.55790850747E+02  0.26905773629E+03  0.12508924295E+03 0.  0.
         24    2    1    2    0    0 -0.72107456084E+02 -0.59357412837E+02  0.87786850908E+03  0.88627497967E+03  0.78150065084E+02 0.  0.
        -13    1    5    5    0    0 -0.39934734147E+02 -0.72676720424E+02  0.50268171008E+03  0.50947579955E+03  0.00000000000E+00 0.  1.
         14    1    5    5    0    0 -0.32172721937E+02  0.13319307587E+02  0.37518679901E+03  0.37679918012E+03  0.00000000000E+00 0. -1.
         11    1    3    3    0    0  0.59515357872E+02 -0.23323292994E+02 -0.28102997391E+02  0.69827160053E+02  0.00000000000E+00 0. -1.
        -12    1    3    3    0    0  0.54799608544E+02 -0.14502668052E+03 -0.86359877709E+02  0.17746482366E+03  0.00000000000E+00 0.  1.
          5    1    4    4  501    0  0.17453793570E+02 -0.46462621786E+01 -0.88963515965E+01  0.20563076958E+02  0.41800000000E+01 0. -1.
         -5    1    4    4    0  501 -0.59661303902E+02  0.23235364853E+03  0.64687202344E+02  0.24849465933E+03  0.41800000000E+01 0. -1.
</event>
<event>
11    1  0.8039394E-009  0.1604487E+03  0.7561462E-02  0.1086656E+00
         22   -1    0    0    0    0  0.00000000000E+00  0.00000000000E+00  0.14781089430E+03  0.14781089430E+03  0.00000000000E+00 0.  1.
         22   -1    0    0    0    0 -0.00000000000E+00 -0.00000000000E+00 -0.92695164809E+03  0.92695164809E+03  0.00000000000E+00 0. -1.
         24    2    1    2    0    0  0.48846369223E+02 -0.88501137500E+02 -0.67991955173E+03  0.69161336110E+03  0.76289090241E+02 0.  0.
         25    2    1    2    0    0 -0.56472080537E+02  0.80236270370E+02 -0.19889652780E+03  0.25462301152E+03  0.12508434858E+03 0.  0.
        -24    2    1    2    0    0  0.76257113136E+01  0.82648671294E+01  0.99675325747E+02  0.12852616978E+03  0.80357614789E+02 0.  0.
        -13    1    3    3    0    0 -0.12158475776E+02 -0.33618883041E+02 -0.10621610256E+03  0.11207104119E+03  0.00000000000E+00 0.  1.
         14    1    3    3    0    0  0.61004845000E+02 -0.54882254459E+02 -0.57370344917E+03  0.57954231991E+03  0.00000000000E+00 0. -1.
         11    1    5    5    0    0  0.27175395931E+02 -0.16561196589E+02  0.98636646225E+01  0.33317671831E+02  0.00000000000E+00 0. -1.
        -12    1    5    5    0    0 -0.19549684617E+02  0.24826063718E+02  0.89811661124E+02  0.95208497952E+02  0.00000000000E+00 0.  1.
          5    1    4    4  501    0 -0.65221437758E+02  0.56414006443E+02 -0.20966094820E+03  0.22674117770E+03  0.41800000000E+01 0.  1.
         -5    1    4    4    0  501  0.87493572215E+01  0.23822263928E+02  0.10764420395E+02  0.27881833815E+02  0.41800000000E+01 0.  1.
</event>
<event>
11    1  0.8039394E-009  0.1539432E+03  0.7561462E-02  0.1092916E+00
         22   -1    0    0    0    0  0.00000000000E+00  0.00000000000E+00  0.45918473942E+02  0.45918473942E+02  0.00000000000E+00 0. -1.
         22   -1    0    0    0    0 -0.00000000000E+00 -0.00000000000E+00 -0.16021717941E+04  0.16021717941E+04  0.00000000000E+00 0. -1.
        -24    2    1    2    0    0 -0.24361273188E+02 -0.47702782402E+02 -0.72711896327E+03  0.73335042585E+03  0.78941961453E+02 0.  0.
         25    2    1    2    0    0  0.66701096206E+02 -0.35555060898E+02 -0.75879748205E+03  0.77274462433E+03  0.12508971612E+03 0.  0.
         24    2    1    2    0    0 -0.42339823018E+02  0.83257843300E+02 -0.70336874828E+02  0.14199521784E+03  0.80565729968E+02 0.  0.
        -13    1    5    5    0    0  0.85545038347E+01  0.85602616307E+01 -0.47153337755E+02  0.48681566085E+02  0.00000000000E+00 0.  1.
         14    1    5    5    0    0 -0.50894326853E+02  0.74697581669E+02 -0.23183537073E+02  0.93313651757E+02  0.00000000000E+00 0. -1.
         11    1    3    3    0    0 -0.53079035147E+02 -0.36976638233E+02 -0.48166109118E+03  0.48598566080E+03  0.00000000000E+00 0. -1.
        -12    1    3    3    0    0  0.28717761958E+02 -0.10726144169E+02 -0.24545787209E+03  0.24736476505E+03  0.00000000000E+00 0.  1.
          5    1    4    4  501    0 -0.37143511081E+02 -0.14625783084E+02 -0.20867519183E+03  0.21250026360E+03  0.41800000000E+01 0.  1.
         -5    1    4    4    0  501  0.10384460729E+03 -0.20929277813E+02 -0.55012229023E+03  0.56024436073E+03  0.41800000000E+01 0.  1.
</event>
<event>
11    1  0.8039394E-009  0.4107594E+03  0.7561462E-02  0.9618534E-01
         22   -1    0    0    0    0  0.00000000000E+00  0.00000000000E+00  0.35980774366E+04  0.35980774366E+04  0.00000000000E+00 0. -1.
         22   -1    0    0    0    0 -0.00000000000E+00 -0.00000000000E+00 -0.42478483315E+03  0.42478483315E+03  0.00000000000E+00 0. -1.
        -24    2    1    2    0    0  0.25264724382E+01 -0.53018759984E+02  0.66594478025E+02  0.11628708827E+03  0.79186428263E+02 0.  0.
         25    2    1    2    0    0 -0.71351574776E+02  0.43658094424E+03 -0.25193256288E+03  0.52422473051E+03  0.12509030235E+03 0.  0.
         24    2    1    2    0    0  0.68825102337E+02 -0.38356218426E+03  0.33586306883E+04  0.33823504509E+04  0.89652824245E+02 0.  0.
        -11    1    5    5    0    0  0.31646388175E+01  0.38919828924E+01  0.97238171959E+02  0.97367471753E+02  0.00000000000E+00 0.  1.
         12    1    5    5    0    0  0.65660463520E+02 -0.38745416715E+03  0.32613925163E+04  0.32849829792E+04  0.00000000000E+00 0. -1.
         11    1    3    3    0    0  0.36975637551E+02 -0.21911186066E+02  0.52352672206E+02  0.67735516047E+02  0.00000000000E+00 0. -1.
        -12    1    3    3    0    0 -0.34449165113E+02 -0.31107573918E+02  0.14241805819E+02  0.48551572220E+02  0.00000000000E+00 0.  1.
          5    1    4    4  501    0  0.71935855743E+01  0.48687405868E+02  0.89411970504E+01  0.50195901907E+02  0.41800000000E+01 0.  1.
         -5    1    4    4    0  501 -0.78545160350E+02  0.38789353837E+03 -0.26087375993E+03  0.47402882860E+03  0.41800000000E+01 0.  1.
</event>
<event>
11    1  0.8039394E-009  0.1542030E+03  0.7561462E-02  0.1092660E+00
         22   -1    0    0    0    0  0.00000000000E+00  0.00000000000E+00  0.37871777856E+03  0.37871777856E+03  0.00000000000E+00 0.  1.
         22   -1    0    0    0    0 -0.00000000000E+00 -0.00000000000E+00 -0.13833949919E+04  0.13833949919E+04  0.00000000000E+00 0. -1.
        -24    2    1    2    0    0 -0.52056654986E+02 -0.73254863393E+02 -0.13192120018E+04  0.13251883222E+04  0.87906844133E+02 0.  0.
         25    2    1    2    0    0  0.21466904722E+02  0.11230506749E+03  0.85744173759E+02  0.18992838631E+03  0.12508985734E+03 0.  0.
         24    2    1    2    0    0  0.30589750264E+02 -0.39050204095E+02  0.22879061469E+03  0.24699606196E+03  0.78748066598E+02 0.  0.
        -13    1    5    5    0    0  0.77397276998E+01 -0.57680152549E+02  0.18704326977E+03  0.19588794795E+03  0.00000000000E+00 0.  1.
         14    1    5    5    0    0  0.22850022564E+02  0.18629948455E+02  0.41747344918E+02  0.51108114016E+02  0.00000000000E+00 0. -1.
         13    1    3    3    0    0 -0.61336701816E+02 -0.81528589836E+02 -0.12798363580E+04  0.12838964932E+04  0.00000000000E+00 0. -1.
        -14    1    3    3    0    0  0.92800468297E+01  0.82737264423E+01 -0.39375643825E+02  0.41291829035E+02  0.00000000000E+00 0.  1.
          5    1    4    4  501    0  0.20189108546E+02  0.14585942732E+02  0.88540148547E+02  0.92071603298E+02  0.41800000000E+01 0.  1.
         -5    1    4    4    0  501  0.12777961755E+01  0.97719124756E+02 -0.27959747878E+01  0.97856783011E+02  0.41800000000E+01 0.  1.
</event>
<event>
11    1  0.8039394E-009  0.3555391E+03  0.7561462E-02  0.9790894E-01
         22   -1    0    0    0    0  0.00000000000E+00  0.00000000000E+00  0.16898455834E+04  0.16898455834E+04  0.00000000000E+00 0. -1.
         22   -1    0    0    0    0 -0.00000000000E+00 -0.00000000000E+00 -0.17580786922E+04  0.17580786922E+04  0.00000000000E+00 0. -1.
        -24    2    1    2    0    0  0.79989248650E+01  0.17691325419E+02 -0.82499395053E+03  0.82916304442E+03  0.80742615895E+02 0.  0.
         25    2    1    2    0    0  0.23615900288E+03  0.20896494950E+03 -0.88183288546E+03  0.94483580158E+03  0.12509208333E+03 0.  0.
         24    2    1    2    0    0 -0.24415792774E+03 -0.22665627492E+03  0.16385937271E+04  0.16739254296E+04  0.77786763872E+02 0.  0.
        -13    1    5    5    0    0 -0.14414677579E+03 -0.84532783691E+02  0.87385734086E+03  0.88969137158E+03  0.00000000000E+00 0.  1.
         14    1    5    5    0    0 -0.10001115195E+03 -0.14212349123E+03  0.76473638627E+03  0.78423405803E+03  0.00000000000E+00 0. -1.
         13    1    3    3    0    0 -0.10522742985E+02  0.18338814360E+02 -0.54668957482E+02  0.58615144325E+02  0.00000000000E+00 0. -1.
        -14    1    3    3    0    0  0.18521667850E+02 -0.64748894032E+00 -0.77032499305E+03  0.77054790010E+03  0.00000000000E+00 0.  1.
          5    1    4    4  501    0  0.23239566876E+03  0.22269516602E+03 -0.81268635349E+03  0.87411524720E+03  0.41800000000E+01 0. -1.
         -5    1    4    4    0  501  0.37633341169E+01 -0.13730216523E+02 -0.69146531970E+02  0.70720554388E+02  0.41800000000E+01 0. -1.
</event>
<event>
11    1  0.8039394E-009  0.1725126E+03  0.7561462E-02  0.1075866E+00
         22   -1    0    0    0    0  0.00000000000E+00  0.00000000000E+00  0.96579925255E+02  0.96579925255E+02  0.00000000000E+00 0.  1.
         22   -1    0    0    0    0 -0.00000000000E+00 -0.00000000000E+00 -0.89100650450E+03  0.89100650450E+03  0.00000000000E+00 0.  1.
         24    2    1    2    0    0 -0.11508170730E+03 -0.54448068793E+02 -0.70992352548E+03  0.72563599807E+03  0.79673070243E+02 0.  0.
         25    2    1    2    0    0  0.64649510577E+02  0.29166101161E+02 -0.72819319979E+02  0.16118489127E+03  0.12509074761E+03 0.  0.
        -24    2    1    2    0    0  0.50432196726E+02  0.25281967632E+02 -0.11683733784E+02  0.10076554040E+03  0.82671640505E+02 0.  0.
        -11    1    3    3    0    0 -0.59043022479E+02 -0.66732860017E+02 -0.34972340646E+03  0.36089584943E+03  0.00000000000E+00 0.  1.
         12    1    3    3    0    0 -0.56038684825E+02  0.12284791224E+02 -0.36020011902E+03  0.36474014865E+03  0.00000000000E+00 0. -1.
         11    1    5    5    0    0  0.57167961779E+02  0.25729097554E+02 -0.38193905232E+02  0.73409377547E+02  0.00000000000E+00 0. -1.
        -12    1    5    5    0    0 -0.67357650536E+01 -0.44712992137E+00  0.26510171449E+02  0.27356162857E+02  0.00000000000E+00 0.  1.
          5    1    4    4  501    0 -0.19842827130E+02 -0.97675163939E+01  0.19701662291E+02  0.29912707368E+02  0.41800000000E+01 0.  1.
         -5    1    4    4    0  501  0.84492337708E+02  0.38933617555E+02 -0.92520982270E+02  0.13127218391E+03  0.41800000000E+01 0.  1.
</event>
<event>
11    1  0.8039394E-009  0.1633816E+04  0.7561462E-02  0.8236294E-01
         22   -1    0    0    0    0  0.00000000000E+00  0.00000000000E+00  0.56136919123E+03  0.56136919123E+03  0.00000000000E+00 0. -1.
         22   -1    0    0    0    0 -0.00000000000E+00 -0.00000000000E+00 -0.11887702879E+04  0.11887702879E+04  0.00000000000E+00 0.  1.
         24    2    1    2    0    0 -0.47494090607E+02  0.10873488350E+03 -0.44870194901E+01  0.14340917565E+03  0.80418249077E+02 0.  0.
         25    2    1    2    0    0  0.17413056586E+03 -0.64811348812E+03 -0.76917626403E+03  0.10284215230E+04  0.12508459651E+03 0.  0.
        -24    2    1    2    0    0 -0.12663647525E+03  0.53937860463E+03  0.14626218688E+03  0.57830878051E+03  0.77989373044E+02 0.  0.
        -11    1    3    3    0    0 -0.14537651502E+02  0.10782090692E+03  0.55735454302E+01  0.10893922934E+03  0.00000000000E+00 0.  1.
         12    1    3    3    0    0 -0.32956439106E+02  0.91397657082E+00 -0.10060564920E+02  0.34469946304E+02  0.00000000000E+00 0. -1.
         13    1    5    5    0    0 -0.47227605352E+02  0.28053487143E+03  0.11057491961E+03  0.30521643737E+03  0.00000000000E+00 0. -1.
        -14    1    5    5    0    0 -0.79408869898E+02  0.25884373320E+03  0.35687267269E+02  0.27309234314E+03  0.00000000000E+00 0.  1.
          5    1    4    4  501    0  0.27903385526E+02 -0.34284757438E+03 -0.37720504536E+03  0.51051364020E+03  0.41800000000E+01 0. -1.
         -5    1    4    4    0  501  0.14622718033E+03 -0.30526591374E+03 -0.39197121867E+03  0.51790788276E+03  0.41800000000E+01 0. -1.
</event>
<event>
11    1  0.8039394E-009  0.1472384E+03  0.7561462E-02  0.1099734E+00
         22   -1    0    0    0    0  0.00000000000E+00  0.00000000000E+00  0.11663145385E+04  0.11663145385E+04  0.00000000000E+00 0. -1.
         22   -1    0    0    0    0 -0.00000000000E+00 -0.00000000000E+00 -0.30057118336E+03  0.30057118336E+03  0.00000000000E+00 0.  1.
        -24    2    1    2    0    0 -0.28659659003E+02 -0.74609373757E+02 -0.27297724480E+03  0.29578883079E+03  0.81157387418E+02 0.  0.
         25    2    1    2    0    0 -0.71668806793E+01  0.20107177196E+02  0.29707487198E+03  0.32304245463E+03  0.12508910895E+03 0.  0.
         24    2    1    2    0    0  0.35826539682E+02  0.54502196561E+02  0.84164572794E+03  0.84805443642E+03  0.81084926991E+02 0.  0.
        -11    1    5    5    0    0  0.25931441419E+02  0.49017591934E+02  0.24082424877E+03  0.24712645097E+03  0.00000000000E+00 0.  1.
         12    1    5    5    0    0  0.98950982626E+01  0.54846046269E+01  0.60082147917E+03  0.60092798545E+03  0.00000000000E+00 0. -1.
         11    1    3    3    0    0 -0.40854254607E+02 -0.45588386045E+01 -0.76568039625E+02  0.86905223208E+02  0.00000000000E+00 0. -1.
        -12    1    3    3    0    0  0.12194595604E+02 -0.70050535152E+02 -0.19640920518E+03  0.20888360758E+03  0.00000000000E+00 0.  1.
          5    1    4    4  501    0 -0.44126764462E+00 -0.27479865392E+02  0.65778683252E+01  0.28567087195E+02  0.41800000000E+01 0. -1.
         -5    1    4    4    0  501 -0.67256130347E+01  0.47587042587E+02  0.29049700365E+03  0.29447536743E+03  0.41800000000E+01 0. -1.
</event>
<event>
11    1  0.8039394E-009  0.1349347E+03  0.7561462E-02  0.1113350E+00
         22   -1    0    0    0    0  0.00000000000E+00  0.00000000000E+00  0.50966656101E+03  0.50966656101E+03  0.00000000000E+00 0.  1.
         22   -1    0    0    0    0 -0.00000000000E+00 -0.00000000000E+00 -0.12867289726E+04  0.12867289726E+04  0.00000000000E+00 0.  1.
        -24    2    1    2    0    0  0.36503249693E+02 -0.36708623166E+02 -0.11980908151E+04  0.12042773091E+04  0.11037312037E+03 0.  0.
         25    2    1    2    0    0 -0.25216526291E+02  0.19070431208E+02 -0.30891267565E+02  0.13266937290E+03  0.12508931828E+03 0.  0.
         24    2    1    2    0    0 -0.11286723402E+02  0.17638191957E+02  0.45191967113E+03  0.45944885157E+03  0.80145880228E+02 0.  0.
        -11    1    5    5    0    0  0.18120566609E+02 -0.24792630276E+02  0.19369244416E+03  0.19611168342E+03  0.00000000000E+00 0.  1.
         12    1    5    5    0    0 -0.29407290011E+02  0.42430822233E+02  0.25822722697E+03  0.26333716815E+03  0.00000000000E+00 0. -1.
         11    1    3    3    0    0 -0.31898499385E+02 -0.22487541640E+02 -0.20176852432E+03  0.20550849423E+03  0.00000000000E+00 0. -1.
        -12    1    3    3    0    0  0.68401749078E+02 -0.14221081525E+02 -0.99632229078E+03  0.99876881487E+03  0.00000000000E+00 0.  1.
          5    1    4    4  501    0 -0.31021246505E+02 -0.15980795390E+02  0.40010285784E+02  0.53254097726E+02  0.41800000000E+01 0. -1.
         -5    1    4    4    0  501  0.58047202146E+01  0.35051226599E+02 -0.70901553350E+02  0.79415275169E+02  0.41800000000E+01 0. -1.
</event>
<event>
11    1  0.8039394E-009  0.1450950E+03  0.7561462E-02  0.1101999E+00
         22   -1    0    0    0    0  0.00000000000E+00  0.00000000000E+00  0.34631865486E+03  0.34631865486E+03  0.00000000000E+00 0.  1.
         22   -1    0    0    0    0 -0.00000000000E+00 -0.00000000000E+00 -0.75901072173E+03  0.75901072173E+03  0.00000000000E+00 0. -1.
         24    2    1    2    0    0 -0.20618859762E+02 -0.11089654732E+02 -0.60532710125E+03  0.61090740957E+03  0.78986364229E+02 0.  0.
         25    2    1    2    0    0 -0.19408215325E+02 -0.52186311131E+02 -0.10756084641E+03  0.17411785966E+03  0.12509038124E+03 0.  0.
        -24    2    1    2    0    0  0.40027075086E+02  0.63275965863E+02  0.30019588080E+03  0.32030410736E+03  0.82892338282E+02 0.  0.
        -13    1    3    3    0    0 -0.32608910080E+01 -0.68852133424E+01 -0.28014600507E+01  0.81171270380E+01  0.00000000000E+00 0.  1.
         14    1    3    3    0    0 -0.17357968753E+02 -0.42044413892E+01 -0.60252564120E+03  0.60279028253E+03  0.00000000000E+00 0. -1.
         13    1    5    5    0    0 -0.91445591911E+01  0.26238218361E+02  0.22176565496E+02  0.35550908888E+02  0.00000000000E+00 0. -1.
        -14    1    5    5    0    0  0.49171634277E+02  0.37037747502E+02  0.27801931530E+03  0.28475319847E+03  0.00000000000E+00 0.  1.
          5    1    4    4  501    0 -0.77247496952E+01  0.36221808810E+02 -0.65655839135E+02  0.75497369516E+02  0.41800000000E+01 0.  1.
         -5    1    4    4    0  501 -0.11683465630E+02 -0.88408119941E+02 -0.41905007280E+02  0.98620490142E+02  0.41800000000E+01 0.  1.
</event>
<event>
11    1  0.8039394E-009  0.1322902E+03  0.7561462E-02  0.1116487E+00
         22   -1    0    0    0    0  0.00000000000E+00  0.00000000000E+00  0.26008028541E+03  0.26008028541E+03  0.00000000000E+00 0. -1.
         22   -1    0    0    0    0 -0.00000000000E+00 -0.00000000000E+00 -0.13176642656E+04  0.13176642656E+04  0.00000000000E+00 0.  1.
         24    2    1    2    0    0  0.32114683385E+00 -0.43723313376E+02 -0.12138594685E+04  0.12173097591E+04  0.80476140096E+02 0.  0.
         25    2    1    2    0    0 -0.38924298850E+02  0.23477679780E+02 -0.44500666863E+02  0.14033479451E+03  0.12508893920E+03 0.  0.
        -24    2    1    2    0    0  0.38603152016E+02  0.20245633596E+02  0.20077615518E+03  0.22009999737E+03  0.78948434622E+02 0.  0.
        -11    1    3    3    0    0 -0.20101190909E+02 -0.44998676792E+02 -0.11268256264E+04  0.11279028908E+04  0.00000000000E+00 0.  1.
         12    1    3    3    0    0  0.20422337743E+02  0.12753634165E+01 -0.87033842069E+02  0.89406868282E+02  0.00000000000E+00 0. -1.
         11    1    5    5    0    0  0.19341234943E+02  0.21074408625E+01  0.19085366331E+03  0.19184276237E+03  0.00000000000E+00 0. -1.
        -12    1    5    5    0    0  0.19261917073E+02  0.18138192733E+02  0.99224918715E+01  0.28257235001E+02  0.00000000000E+00 0.  1.
          5    1    4    4  501    0 -0.58935365571E+01 -0.29980148970E+02  0.29834439590E+02  0.42908149471E+02  0.41800000000E+01 0.  1.
         -5    1    4    4    0  501 -0.33030762292E+02  0.53457828750E+02 -0.74335106452E+02  0.97426645039E+02  0.41800000000E+01 0.  1.
</event>
<event>
11    1  0.8039394E-009  0.1324795E+03  0.7561462E-02  0.1116259E+00
         22   -1    0    0    0    0  0.00000000000E+00  0.00000000000E+00  0.23086977077E+04  0.23086977077E+04  0.00000000000E+00 0.  1.
         22   -1    0    0    0    0 -0.00000000000E+00 -0.00000000000E+00 -0.19071274502E+03  0.19071274502E+03  0.00000000000E+00 0.  1.
         24    2    1    2    0    0  0.11288703744E+02  0.41209577610E+02 -0.15283500538E+03  0.17736672707E+03  0.79213337801E+02 0.  0.
         25    2    1    2    0    0  0.15406720784E+02 -0.63995863941E+02  0.17770595876E+03  0.22706936428E+03  0.12509296850E+03 0.  0.
        -24    2    1    2    0    0 -0.26695424527E+02  0.22786286330E+02  0.20931140093E+04  0.20949743613E+04  0.80990482904E+02 0.  0.
        -13    1    3    3    0    0  0.26599854529E+02  0.41301657774E+02 -0.15435114725E+03  0.16198041812E+03  0.00000000000E+00 0.  1.
         14    1    3    3    0    0 -0.15311150785E+02 -0.92080163566E-01  0.15161418749E+01  0.15386308957E+02  0.00000000000E+00 0. -1.
         13    1    5    5    0    0 -0.20927887523E+02 -0.18646644777E+02  0.28468226067E+03  0.28605884600E+03  0.00000000000E+00 0. -1.
        -14    1    5    5    0    0 -0.57675370043E+01  0.41432931108E+02  0.18084317486E+04  0.18089155153E+04  0.00000000000E+00 0.  1.
          5    1    4    4  501    0  0.64244950945E+02 -0.40030347759E+02  0.14454880415E+03  0.16322276693E+03  0.41800000000E+01 0.  1.
         -5    1    4    4    0  501 -0.48838230162E+02 -0.23965516182E+02  0.33157154614E+02  0.63846597351E+02  0.41800000000E+01 0.  1.
</event>
<event>
11    1  0.8039394E-009  0.1275958E+03  0.7561462E-02  0.1122259E+00
         22   -1    0    0    0    0  0.00000000000E+00  0.00000000000E+00  0.73323239926E+02  0.73323239926E+02  0.00000000000E+00 0.  1.
         22   -1    0    0    0    0 -0.00000000000E+00 -0.00000000000E+00 -0.10303239350E+04  0.10303239350E+04  0.00000000000E+00 0. -1.
         24    2    1    2    0    0 -0.27582946951E+01 -0.29065668113E+02 -0.78366661157E+03  0.78984017986E+03  0.94136764174E+02 0.  0.
         25    2    1    2    0    0  0.24081068531E+02 -0.49738739396E+01 -0.18231543756E+03  0.22246618743E+03  0.12509056117E+03 0.  0.
        -24    2    1    2    0    0 -0.21322773836E+02  0.34039542053E+02  0.89813540099E+01  0.91340807688E+02  0.81542181244E+02 0.  0.
        -11    1    3    3    0    0 -0.35921117389E+01  0.34389638959E+02 -0.31645361406E+03  0.31833699186E+03  0.00000000000E+00 0.  1.
         12    1    3    3    0    0  0.83381704374E+00 -0.63455307072E+02 -0.46721299751E+03  0.47150318800E+03  0.00000000000E+00 0. -1.
         13    1    5    5    0    0  0.23138730143E+01 -0.22999262378E+02 -0.12109961377E+02  0.26095425706E+02  0.00000000000E+00 0. -1.
        -14    1    5    5    0    0 -0.23636646850E+02  0.57038804431E+02  0.21091315387E+02  0.65245381982E+02  0.00000000000E+00 0.  1.
          5    1    4    4  501    0  0.14516508352E+02  0.54706384032E+02 -0.45172068134E+02  0.72536236517E+02  0.41800000000E+01 0. -1.
         -5    1    4    4    0  501  0.95645601797E+01 -0.59680257971E+02 -0.13714336942E+03  0.14992995091E+03  0.41800000000E+01 0. -1.
</event>
<event>
11    1  0.8039394E-009  0.1750041E+03  0.7561462E-02  0.1073757E+00
         22   -1    0    0    0    0  0.00000000000E+00  0.00000000000E+00  0.54150505725E+03  0.54150505725E+03  0.00000000000E+00 0. -1.
         22   -1    0    0    0    0 -0.00000000000E+00 -0.00000000000E+00 -0.85576453112E+03  0.85576453112E+03  0.00000000000E+00 0.  1.
        -24    2    1    2    0    0  0.14854982085E+02  0.22372638546E+02 -0.70196223636E+03  0.70714269661E+03  0.81108610195E+02 0.  0.
         25    2    1    2    0    0 -0.10001889691E+03  0.66093246079E+02 -0.86628820790E+02  0.19371218627E+03  0.12509101327E+03 0.  0.
         24    2    1    2    0    0  0.85163914822E+02 -0.88465884625E+02  0.47433158329E+03  0.49641470549E+03  0.79737091731E+02 0.  0.
        -13    1    5    5    0    0  0.13713955078E+02  0.65742375092E+01  0.13001850560E+02  0.20008530198E+02  0.00000000000E+00 0.  1.
         14    1    5    5    0    0  0.71449959744E+02 -0.95040122134E+02  0.46132973273E+03  0.47640617530E+03  0.00000000000E+00 0. -1.
         13    1    3    3    0    0  0.31735641989E+02  0.23409433847E+02 -0.15562471482E+03  0.16054346586E+03  0.00000000000E+00 0. -1.
        -14    1    3    3    0    0 -0.16880659904E+02 -0.10367953010E+01 -0.54633752153E+03  0.54659923075E+03  0.00000000000E+00 0.  1.
          5    1    4    4  501    0 -0.99138343773E+02  0.97051013766E+02 -0.55143576379E+02  0.14935058384E+03  0.41800000000E+01 0. -1.
         -5    1    4    4    0  501 -0.88055313428E+00 -0.30957767687E+02 -0.31485244411E+02  0.44361602424E+02  0.41800000000E+01 0. -1.
</event>
<event>
11    1  0.1349362E-008  0.2047903E+03  0.7561462E-02  0.1051187E+00
         22   -1    0    0    0    0  0.00000000000E+00  0.00000000000E+00  0.26536640979E+03  0.26536640979E+03  0.00000000000E+00 0. -1.
         22   -1    0    0    0    0 -0.00000000000E+00 -0.00000000000E+00 -0.24631557566E+04  0.24631557566E+04  0.00000000000E+00 0. -1.
         24    2    1    2    0    0 -0.40038776072E+02 -0.23043524095E+02 -0.18276772313E+04  0.18298840232E+04  0.77054326014E+02 0.  0.
         25    2    1    2    0    0 -0.58015844238E+02 -0.10888835008E+03 -0.58798086263E+03  0.61367188316E+03  0.12509666024E+03 0.  0.
        -24    2    1    2    0    0  0.98054620311E+02  0.13193187417E+03  0.21786874709E+03  0.28496626001E+03  0.81964933981E+02 0.  0.
        -11    1    3    3    0    0 -0.58981706951E+02 -0.25980810311E+02 -0.10535669900E+04  0.10555364734E+04  0.00000000000E+00 0.  1.
         12    1    3    3    0    0  0.18942930879E+02  0.29372862167E+01 -0.77411024129E+03  0.77434754984E+03  0.00000000000E+00 0. -1.
         13    1    5    5    0    0  0.71382828751E+02  0.12303554127E+03  0.21345160929E+03  0.25650505290E+03  0.00000000000E+00 0. -1.
        -14    1    5    5    0    0  0.26671791560E+02  0.88963329072E+01  0.44171378000E+01  0.28461207117E+02  0.00000000000E+00 0.  1.
          5    1    4    4  501    0  0.25175878872E+02 -0.67334771617E+02 -0.15660830261E+03  0.17237003566E+03  0.41800000000E+01 0. -1.
         -5    1    4    4    0  501 -0.83191723110E+02 -0.41553578461E+02 -0.43137256001E+03  0.44130184750E+03  0.41800000000E+01 0. -1.
</event>
<event>
11    1  0.8039394E-009  0.1423317E+03  0.7561462E-02  0.1104982E+00
         22   -1    0    0    0    0  0.00000000000E+00  0.00000000000E+00  0.15114263515E+04  0.15114263515E+04  0.00000000000E+00 0. -1.
         22   -1    0    0    0    0 -0.00000000000E+00 -0.00000000000E+00 -0.62986212543E+03  0.62986212543E+03  0.00000000000E+00 0.  1.
        -24    2    1    2    0    0  0.42458599075E+02 -0.22668898911E+02 -0.35454281296E+03  0.36673670789E+03  0.80489720331E+02 0.  0.
         25    2    1    2    0    0 -0.92334491519E+02  0.68266299241E+02 -0.24039766731E+03  0.29432098681E+03  0.12509140215E+03 0.  0.
         24    2    1    2    0    0  0.49875892445E+02 -0.45597400330E+02  0.14765047063E+04  0.14802307822E+04  0.80313717969E+02 0.  0.
        -11    1    5    5    0    0 -0.94325792313E+01 -0.14098980785E+02  0.66555327047E+02  0.68683086480E+02  0.00000000000E+00 0.  1.
         12    1    5    5    0    0  0.59308471676E+02 -0.31498419545E+02  0.14099493793E+04  0.14115476958E+04  0.00000000000E+00 0. -1.
         11    1    3    3    0    0  0.47804272190E+02 -0.33555479546E+02 -0.13795015886E+03  0.14980475619E+03  0.00000000000E+00 0. -1.
        -12    1    3    3    0    0 -0.53456731152E+01  0.10886580635E+02 -0.21659265410E+03  0.21693195170E+03  0.00000000000E+00 0.  1.
          5    1    4    4  501    0 -0.68376167791E+02  0.93964174993E+02 -0.11316416573E+03  0.16225956770E+03  0.41800000000E+01 0.  1.
         -5    1    4    4    0  501 -0.23958323728E+02 -0.25697875752E+02 -0.12723350157E+03  0.13206141911E+03  0.41800000000E+01 0.  1.
</event>
<event>
11    1  0.8039394E-009  0.1606344E+03  0.7561462E-02  0.1086482E+00
         22   -1    0    0    0    0  0.00000000000E+00  0.00000000000E+00  0.10020658601E+04  0.10020658601E+04  0.00000000000E+00 0. -1.
         22   -1    0    0    0    0 -0.00000000000E+00 -0.00000000000E+00 -0.28810686581E+03  0.28810686581E+03  0.00000000000E+00 0. -1.
         24    2    1    2    0    0 -0.96994040952E+02 -0.13238772842E+02 -0.10819233077E+03  0.16602366749E+03  0.79215962044E+02 0.  0.
         25    2    1    2    0    0  0.94788740251E+02  0.57713653465E+02 -0.10176114973E+03  0.19575001128E+03  0.12508782614E+03 0.  0.
        -24    2    1    2    0    0  0.22053007005E+01 -0.44474880624E+02  0.92391247477E+03  0.92839904711E+03  0.79546535308E+02 0.  0.
        -11    1    3    3    0    0 -0.16657990252E+02  0.22440805482E+02 -0.59018659114E+02  0.65301458740E+02  0.00000000000E+00 0.  1.
         12    1    3    3    0    0 -0.80336050700E+02 -0.35679578324E+02 -0.49173671661E+02  0.10072220875E+03  0.00000000000E+00 0. -1.
         11    1    5    5    0    0 -0.16070737090E+02 -0.30347286587E+02  0.85555782277E+03  0.85624670189E+03  0.00000000000E+00 0. -1.
        -12    1    5    5    0    0  0.18276037790E+02 -0.14127594037E+02  0.68354651993E+02  0.72152345213E+02  0.00000000000E+00 0.  1.
          5    1    4    4  501    0  0.62953806633E+01 -0.20665044518E+02  0.17246341324E+02  0.27956834079E+02  0.41800000000E+01 0.  1.
         -5    1    4    4    0  501  0.88493359588E+02  0.78378697983E+02 -0.11900749106E+03  0.16779317720E+03  0.41800000000E+01 0.  1.
</event>
<event>
11    1  0.8039394E-009  0.1533008E+03  0.7561462E-02  0.1093553E+00
         22   -1    0    0    0    0  0.00000000000E+00  0.00000000000E+00  0.63730674601E+03  0.63730674601E+03  0.00000000000E+00 0.  1.
         22   -1    0    0    0    0 -0.00000000000E+00 -0.00000000000E+00 -0.36634406075E+03  0.36634406075E+03  0.00000000000E+00 0. -1.
        -24    2    1    2    0    0 -0.12599794214E+02 -0.28880130702E+02 -0.83440883772E+02  0.11954380745E+03  0.79596005244E+02 0.  0.
         25    2    1    2    0    0  0.91651321803E+02  0.67719381940E+02 -0.23122722805E+03  0.28652991314E+03  0.12508989029E+03 0.  0.
         24    2    1    2    0    0 -0.79051527589E+02 -0.38839251238E+02  0.58563079709E+03  0.59757708617E+03  0.79858073871E+02 0.  0.
        -11    1    5    5    0    0 -0.73405759209E+01 -0.44508424372E+02  0.27887069175E+03  0.28249556919E+03  0.00000000000E+00 0.  1.
         12    1    5    5    0    0 -0.71710951668E+02  0.56691731337E+01  0.30676010534E+03  0.31508151698E+03  0.00000000000E+00 0. -1.
         11    1    3    3    0    0 -0.40546632498E+02 -0.33690945497E+02 -0.34569704612E+02  0.63041047678E+02  0.00000000000E+00 0. -1.
        -12    1    3    3    0    0  0.27946838284E+02  0.48108147954E+01 -0.48871179160E+02  0.56502759770E+02  0.00000000000E+00 0.  1.
          5    1    4    4  501    0  0.10805348705E+03  0.88304971023E+02 -0.17160090965E+03  0.22121859904E+03  0.41800000000E+01 0.  1.
         -5    1    4    4    0  501 -0.16402165245E+02 -0.20585589083E+02 -0.59626318408E+02  0.65311314101E+02  0.41800000000E+01 0.  1.
</event>
<event>
11    1  0.8039394E-009  0.1934103E+03  0.7561462E-02  0.1059284E+00
         22   -1    0    0    0    0  0.00000000000E+00  0.00000000000E+00  0.40193949227E+03  0.40193949227E+03  0.00000000000E+00 0.  1.
         22   -1    0    0    0    0 -0.00000000000E+00 -0.00000000000E+00 -0.20500023686E+04  0.20500023686E+04  0.00000000000E+00 0. -1.
        -24    2    1    2    0    0  0.20744123179E+02 -0.70475398262E+01 -0.16991660095E+04  0.17016918223E+04  0.90055226078E+02 0.  0.
         25    2    1    2    0    0 -0.16586168706E+03  0.25907635145E+02 -0.29729325684E+03  0.36360970176E+03  0.12508968725E+03 0.  0.
         24    2    1    2    0    0  0.14511756388E+03 -0.18860095319E+02  0.34839639002E+03  0.38664033681E+03  0.81828448123E+02 0.  0.
        -13    1    5    5    0    0  0.80284289161E+02  0.26710093005E+02  0.13871329882E+03  0.16248192337E+03  0.00000000000E+00 0.  1.
         14    1    5    5    0    0  0.64833274720E+02 -0.45570188324E+02  0.20968309121E+03  0.22415841343E+03  0.00000000000E+00 0. -1.
         13    1    3    3    0    0 -0.24093936950E+02 -0.11862323837E+02 -0.12456041988E+04  0.12458936763E+04  0.00000000000E+00 0. -1.
        -14    1    3    3    0    0  0.44838060129E+02  0.48147840109E+01 -0.45356181071E+03  0.45579814602E+03  0.00000000000E+00 0.  1.
          5    1    4    4  501    0 -0.16180506547E+03  0.17074182451E+02 -0.16809260844E+03  0.23397650380E+03  0.41800000000E+01 0. -1.
         -5    1    4    4    0  501 -0.40566215889E+01  0.88334526943E+01 -0.12920064840E+03  0.12963319796E+03  0.41800000000E+01 0. -1.
</event>
<event>
11    1  0.8039394E-009  0.2271690E+03  0.7561462E-02  0.1036817E+00
         22   -1    0    0    0    0  0.00000000000E+00  0.00000000000E+00  0.12388002429E+04  0.12388002429E+04  0.00000000000E+00 0.  1.
         22   -1    0    0    0    0 -0.00000000000E+00 -0.00000000000E+00 -0.73589559720E+03  0.73589559720E+03  0.00000000000E+00 0.  1.
         24    2    1    2    0    0  0.10969788733E+02 -0.27417776057E+02 -0.71812976598E+02  0.11157213391E+03  0.80119702625E+02 0.  0.
         25    2    1    2    0    0  0.12818802098E+03  0.15602309358E+03 -0.61321746612E+03  0.65761529125E+03  0.12508731383E+03 0.  0.
        -24    2    1    2    0    0 -0.13915780971E+03 -0.12860531753E+03  0.11879350884E+04  0.12055084149E+04  0.78463625462E+02 0.  0.
        -13    1    3    3    0    0  0.41681854019E+02  0.33187800878E+01 -0.38226752984E+02  0.56654001619E+02  0.00000000000E+00 0.  1.
         14    1    3    3    0    0 -0.30712065286E+02 -0.30736556145E+02 -0.33586223614E+02  0.54918132292E+02  0.00000000000E+00 0. -1.
         13    1    5    5    0    0 -0.89204223322E+02 -0.39364228902E+02  0.44424823100E+03  0.45482241229E+03  0.00000000000E+00 0. -1.
        -14    1    5    5    0    0 -0.49953586389E+02 -0.89241088626E+02  0.74368685739E+03  0.75068600263E+03  0.00000000000E+00 0.  1.
          5    1    4    4  501    0  0.13169378976E+03  0.83684147231E+02 -0.49387442991E+03  0.51795339142E+03  0.41800000000E+01 0.  1.
         -5    1    4    4    0  501 -0.35057687841E+01  0.72338946354E+02 -0.11934303620E+03  0.13966189983E+03  0.41800000000E+01 0.  1.
</event>
<event>
11    1  0.8039394E-009  0.1386655E+03  0.7561462E-02  0.1109058E+00
         22   -1    0    0    0    0  0.00000000000E+00  0.00000000000E+00  0.50520407763E+04  0.50520407763E+04  0.00000000000E+00 0.  1.
         22   -1    0    0    0    0 -0.00000000000E+00 -0.00000000000E+00 -0.98386620435E+02  0.98386620435E+02  0.00000000000E+00 0.  1.
         24    2    1    2    0    0 -0.42350227937E+02 -0.36228713559E+02 -0.67180377449E+02  0.11863871676E+03  0.80348494122E+02 0.  0.
         25    2    1    2    0    0  0.23064955058E+02  0.89997396577E+02  0.12551378472E+04  0.12647727602E+04  0.12509035125E+03 0.  0.
        -24    2    1    2    0    0  0.19285272879E+02 -0.53768683019E+02  0.37656966862E+04  0.37670159198E+04  0.81697092167E+02 0.  0.
        -13    1    3    3    0    0 -0.48822634325E+02 -0.47585344730E+02 -0.76585958964E+02  0.10253498801E+03  0.00000000000E+00 0.  1.
         14    1    3    3    0    0  0.64724063879E+01  0.11356631172E+02  0.94055815153E+01  0.16103728750E+02  0.00000000000E+00 0. -1.
         11    1    5    5    0    0 -0.17400468040E+02 -0.28005615090E+02  0.53879749054E+03  0.53980535990E+03  0.00000000000E+00 0. -1.
        -12    1    5    5    0    0  0.36685740919E+02 -0.25763067929E+02  0.32268991956E+04  0.32272105599E+04  0.00000000000E+00 0.  1.
          5    1    4    4  501    0 -0.43095140342E+02  0.19731456935E+02  0.21728030653E+03  0.22242914719E+03  0.41800000000E+01 0.  1.
         -5    1    4    4    0  501  0.66160095400E+02  0.70265939642E+02  0.10378575407E+04  0.10423436130E+04  0.41800000000E+01 0.  1.
</event>
<event>
11    1  0.8039394E-009  0.3250965E+03  0.7561462E-02  0.9900958E-01
         22   -1    0    0    0    0  0.00000000000E+00  0.00000000000E+00  0.61601541405E+03  0.61601541405E+03  0.00000000000E+00 0.  1.
         22   -1    0    0    0    0 -0.00000000000E+00 -0.00000000000E+00 -0.26060407750E+04  0.26060407750E+04  0.00000000000E+00 0. -1.
         24    2    1    2    0    0 -0.24325539485E+03 -0.16689755634E+03 -0.21298116745E+04  0.21515710926E+04  0.78309745262E+02 0.  0.
         25    2    1    2    0    0  0.20296684621E+03  0.29354806430E+03 -0.37518402393E+03  0.53270690041E+03  0.12509030024E+03 0.  0.
        -24    2    1    2    0    0  0.40288548633E+02 -0.12665050796E+03  0.51497033751E+03  0.53777819603E+03  0.79670705350E+02 0.  0.
        -11    1    3    3    0    0  0.12916598355E+01  0.44908724741E+01 -0.78243026272E+02  0.78382443703E+02  0.00000000000E+00 0.  1.
         12    1    3    3    0    0 -0.24454705468E+03 -0.17138842881E+03 -0.20515686483E+04  0.20731886489E+04  0.00000000000E+00 0. -1.
         11    1    5    5    0    0  0.43693860809E+02 -0.36582118965E+02  0.12272075972E+03  0.13530628133E+03  0.00000000000E+00 0. -1.
        -12    1    5    5    0    0 -0.34053121751E+01 -0.90068388998E+02  0.39224957778E+03  0.40247191470E+03  0.00000000000E+00 0.  1.
          5    1    4    4  501    0  0.27388364971E+02  0.12848215664E+03 -0.17819646456E+03  0.22142547164E+03  0.41800000000E+01 0.  1.
         -5    1    4    4    0  501  0.17557848124E+03  0.16506590766E+03 -0.19698755937E+03  0.31128142877E+03  0.41800000000E+01 0.  1.
</event>
<event>
11    1  0.9049702E-009  0.1695915E+03  0.7561462E-02  0.1078388E+00
         22   -1    0    0    0    0  0.00000000000E+00  0.00000000000E+00  0.11034742882E+03  0.11034742882E+03  0.00000000000E+00 0.  1.
         22   -1    0    0    0    0 -0.00000000000E+00 -0.00000000000E+00 -0.30873390978E+04  0.30873390978E+04  0.00000000000E+00 0.  1.
        -24    2    1    2    0    0  0.22443965771E+02 -0.74420601334E+01 -0.21681388660E+04  0.21696868601E+04  0.78458986656E+02 0.  0.
         25    2    1    2    0    0  0.82615298537E+02  0.55303858759E+02 -0.86304534103E+03  0.87770841039E+03  0.12506393829E+03 0.  0.
         24    2    1    2    0    0 -0.10505926431E+03 -0.47861798626E+02  0.54192538019E+02  0.15029125620E+03  0.79513707800E+02 0.  0.
        -13    1    5    5    0    0 -0.83346837562E+02 -0.17966591013E+02  0.68193889244E+00  0.85264053181E+02  0.00000000000E+00 0.  1.
         14    1    5    5    0    0 -0.21712426746E+02 -0.29895207612E+02  0.53510599126E+02  0.65027203017E+02  0.00000000000E+00 0. -1.
         13    1    3    3    0    0  0.40896728454E+01 -0.52753663746E+01 -0.14433837816E+02  0.15902534027E+02  0.00000000000E+00 0. -1.
        -14    1    3    3    0    0  0.18354292925E+02 -0.21666937587E+01 -0.21537050282E+04  0.21537843260E+04  0.00000000000E+00 0.  1.
          5    1    4    4  501    0 -0.24060876746E+02 -0.13105757260E+02 -0.85150897436E+02  0.89547944685E+02  0.41800000000E+01 0.  1.
         -5    1    4    4    0  501  0.10667617528E+03  0.68409616019E+02 -0.77789444359E+03  0.78816046571E+03  0.41800000000E+01 0.  1.
</event>
<event>
11    1  0.8039394E-009  0.4281211E+03  0.7561462E-02  0.9570245E-01
         22   -1    0    0    0    0  0.00000000000E+00  0.00000000000E+00  0.12564311826E+04  0.12564311826E+04  0.00000000000E+00 0. -1.
         22   -1    0    0    0    0 -0.00000000000E+00 -0.00000000000E+00 -0.32374043676E+03  0.32374043676E+03  0.00000000000E+00 0.  1.
         24    2    1    2    0    0 -0.84296584600E+01  0.45287352250E+02 -0.15843903928E+03  0.18299634259E+03  0.79137404655E+02 0.  0.
         25    2    1    2    0    0 -0.87584323395E+02  0.37030186570E+03  0.32089327201E+03  0.51323917130E+03  0.12508984568E+03 0.  0.
        -24    2    1    2    0    0  0.96013981855E+02 -0.41558921795E+03  0.77023651312E+03  0.88393610547E+03  0.78394321418E+02 0.  0.
        -11    1    3    3    0    0  0.30139890976E+02  0.13818359320E+02 -0.10433437734E+03  0.10947612698E+03  0.00000000000E+00 0.  1.
         12    1    3    3    0    0 -0.38569549436E+02  0.31468992930E+02 -0.54104661944E+02  0.73520215613E+02  0.00000000000E+00 0. -1.
         11    1    5    5    0    0  0.58183012050E+02 -0.36617396076E+03  0.67604819572E+03  0.77104461308E+03  0.00000000000E+00 0. -1.
        -12    1    5    5    0    0  0.37830969804E+02 -0.49415257188E+02  0.94188317401E+02  0.11289149239E+03  0.00000000000E+00 0.  1.
          5    1    4    4  501    0 -0.64599514329E+02  0.19542587800E+03  0.95322575929E+02  0.22686612115E+03  0.41800000000E+01 0. -1.
         -5    1    4    4    0  501 -0.22984809066E+02  0.17487598769E+03  0.22557069608E+03  0.28637305015E+03  0.41800000000E+01 0. -1.
</event>
<event>
11    1  0.8039394E-009  0.1592799E+03  0.7561462E-02  0.1087757E+00
         22   -1    0    0    0    0  0.00000000000E+00  0.00000000000E+00  0.15705181875E+03  0.15705181875E+03  0.00000000000E+00 0. -1.
         22   -1    0    0    0    0 -0.00000000000E+00 -0.00000000000E+00 -0.43549606056E+03  0.43549606056E+03  0.00000000000E+00 0.  1.
         24    2    1    2    0    0 -0.15809357161E+02 -0.50019649652E+01 -0.12777711128E+03  0.15223887515E+03  0.81084705786E+02 0.  0.
         25    2    1    2    0    0  0.76152049069E+02 -0.72133764928E+02 -0.23692523582E+03  0.28772194041E+03  0.12509169838E+03 0.  0.
        -24    2    1    2    0    0 -0.60342691909E+02  0.77135729893E+02  0.86258105291E+02  0.15258706375E+03  0.79064467386E+02 0.  0.
        -13    1    3    3    0    0 -0.43085054923E+02 -0.15480456802E+02 -0.10700837224E+03  0.11639054184E+03  0.00000000000E+00 0.  1.
         14    1    3    3    0    0  0.27275697762E+02  0.10478491837E+02 -0.20768739035E+02  0.35848333304E+02  0.00000000000E+00 0. -1.
         11    1    5    5    0    0 -0.28911083171E+02  0.20599588804E+01  0.60722505305E+02  0.67285338754E+02  0.00000000000E+00 0. -1.
        -12    1    5    5    0    0 -0.31431608738E+02  0.75075771013E+02  0.25535599986E+02  0.85301724998E+02  0.00000000000E+00 0.  1.
          5    1    4    4  501    0  0.10907478836E+03 -0.55637359247E+02 -0.15322755919E+03  0.19618609150E+03  0.41800000000E+01 0. -1.
         -5    1    4    4    0  501 -0.32922739293E+02 -0.16496405681E+02 -0.83697676628E+02  0.91535848911E+02  0.41800000000E+01 0. -1.
</event>
<event>
11    1  0.8039394E-009  0.1412344E+03  0.7561462E-02  0.1106188E+00
         22   -1    0    0    0    0  0.00000000000E+00  0.00000000000E+00  0.16628427583E+04  0.16628427583E+04  0.00000000000E+00 0.  1.
         22   -1    0    0    0    0 -0.00000000000E+00 -0.00000000000E+00 -0.86146841912E+02  0.86146841912E+02  0.00000000000E+00 0. -1.
        -24    2    1    2    0    0 -0.28596058158E+01  0.18383543869E+02 -0.46201184523E+02  0.95082793293E+02  0.80994173238E+02 0.  0.
         25    2    1    2    0    0  0.63870725556E+02  0.71193196628E+01  0.35634616481E+03  0.38309463397E+03  0.12509498433E+03 0.  0.
         24    2    1    2    0    0 -0.61011119741E+02 -0.25502863532E+02  0.12665509361E+04  0.12708121730E+04  0.80246821756E+02 0.  0.
        -11    1    5    5    0    0 -0.75707335682E+02 -0.31578065054E+02  0.84773323548E+03  0.85169267545E+03  0.00000000000E+00 0.  1.
         12    1    5    5    0    0  0.14696215941E+02  0.60752015222E+01  0.41881770066E+03  0.41911949755E+03  0.00000000000E+00 0. -1.
         13    1    3    3    0    0 -0.91335369378E+01  0.43625235932E+02 -0.51945344804E+02  0.68446340691E+02  0.00000000000E+00 0. -1.
        -14    1    3    3    0    0  0.62739311219E+01 -0.25241692063E+02  0.57441602810E+01  0.26636452603E+02  0.00000000000E+00 0.  1.
          5    1    4    4  501    0  0.10131964564E+03  0.13801752814E+02  0.26269009519E+03  0.28192147397E+03  0.41800000000E+01 0. -1.
         -5    1    4    4    0  501 -0.37448920080E+02 -0.66824331510E+01  0.93656069621E+02  0.10117316000E+03  0.41800000000E+01 0. -1.
</event>
<event>
11    1  0.8039394E-009  0.1578960E+03  0.7561462E-02  0.1089073E+00
         22   -1    0    0    0    0  0.00000000000E+00  0.00000000000E+00  0.14006735470E+04  0.14006735470E+04  0.00000000000E+00 0.  1.
         22   -1    0    0    0    0 -0.00000000000E+00 -0.00000000000E+00 -0.32341094552E+03  0.32341094552E+03  0.00000000000E+00 0.  1.
        -24    2    1    2    0    0 -0.43590964166E+00 -0.66492549614E+02 -0.23401535961E+03  0.25612485625E+03  0.80095594666E+02 0.  0.
         25    2    1    2    0    0 -0.56136513354E+02  0.14191188402E+03  0.53970895628E+02  0.20457810782E+03  0.12509617766E+03 0.  0.
         24    2    1    2    0    0  0.56572422996E+02 -0.75419334406E+02  0.12573070654E+04  0.12633815284E+04  0.80145583260E+02 0.  0.
        -11    1    5    5    0    0  0.24276754854E+02 -0.77389132022E+02  0.10874317621E+04  0.10904523262E+04  0.00000000000E+00 0.  1.
         12    1    5    5    0    0  0.32295668142E+02  0.19697976165E+01  0.16987530336E+03  0.17292920221E+03  0.00000000000E+00 0. -1.
         13    1    3    3    0    0  0.34806062791E+02 -0.55017679934E+02 -0.12427896880E+03  0.14029850034E+03  0.00000000000E+00 0. -1.
        -14    1    3    3    0    0 -0.35241972433E+02 -0.11474869681E+02 -0.10973639081E+03  0.11582635591E+03  0.00000000000E+00 0.  1.
          5    1    4    4  501    0 -0.78747475947E+02  0.65578087054E+02 -0.90414491737E+01  0.10296052968E+03  0.41800000000E+01 0.  1.
         -5    1    4    4    0  501  0.22610962592E+02  0.76333796967E+02  0.63012344801E+02  0.10161757814E+03  0.41800000000E+01 0.  1.
</event>
<event>
11    1  0.8039394E-009  0.1391208E+03  0.7561462E-02  0.1108544E+00
         22   -1    0    0    0    0  0.00000000000E+00  0.00000000000E+00  0.46676910073E+03  0.46676910073E+03  0.00000000000E+00 0.  1.
         22   -1    0    0    0    0 -0.00000000000E+00 -0.00000000000E+00 -0.13557824558E+03  0.13557824558E+03  0.00000000000E+00 0. -1.
         24    2    1    2    0    0  0.21545306604E+02  0.10939182750E+02 -0.85632518276E+02  0.11933192946E+03  0.79519275938E+02 0.  0.
         25    2    1    2    0    0 -0.63084983801E+02 -0.43349505969E+02  0.22619067450E+03  0.26957223526E+03  0.12509226172E+03 0.  0.
        -24    2    1    2    0    0  0.41539677197E+02  0.32410323219E+02  0.19063269893E+03  0.21344318159E+03  0.80257037298E+02 0.  0.
        -11    1    3    3    0    0 -0.15992279903E+02  0.29904750849E+02 -0.14901367537E+02  0.37041839781E+02  0.00000000000E+00 0.  1.
         12    1    3    3    0    0  0.37537586507E+02 -0.18965568100E+02 -0.70731150739E+02  0.82290089676E+02  0.00000000000E+00 0. -1.
         13    1    5    5    0    0  0.10901630624E+02 -0.10368006966E+02  0.13869790227E+03  0.13951146624E+03  0.00000000000E+00 0. -1.
        -14    1    5    5    0    0  0.30638046573E+02  0.42778330186E+02  0.51934796660E+02  0.73931715356E+02  0.00000000000E+00 0.  1.
          5    1    4    4  501    0 -0.27521317027E+02 -0.75264970562E+02  0.71035581943E+02  0.10717166130E+03  0.41800000000E+01 0.  1.
         -5    1    4    4    0  501 -0.35563666774E+02  0.31915464593E+02  0.15515509256E+03  0.16240057395E+03  0.41800000000E+01 0.  1.
</event>
<event>
11    1  0.8039394E-009  0.1318538E+03  0.7561462E-02  0.1117012E+00
         22   -1    0    0    0    0  0.00000000000E+00  0.00000000000E+00  0.41389272806E+03  0.41389272806E+03  0.00000000000E+00 0.  1.
         22   -1    0    0    0    0 -0.00000000000E+00 -0.00000000000E+00 -0.21061246158E+03  0.21061246158E+03  0.00000000000E+00 0. -1.
        -24    2    1    2    0    0 -0.93662489545E+01  0.97985976893E+00 -0.16648658813E+03  0.18580179632E+03  0.81950208934E+02 0.  0.
         25    2    1    2    0    0  0.20339970399E+02  0.38483380885E+02  0.18201837371E+03  0.22510545967E+03  0.12508834720E+03 0.  0.
         24    2    1    2    0    0 -0.10973721444E+02 -0.39463240654E+02  0.18774848090E+03  0.21359793365E+03  0.93256716929E+02 0.  0.
        -13    1    5    5    0    0  0.91386945378E+01 -0.51891940999E+02  0.46163584396E+02  0.70052593120E+02  0.00000000000E+00 0.  1.
         14    1    5    5    0    0 -0.20112415982E+02  0.12428700345E+02  0.14158489650E+03  0.14354534053E+03  0.00000000000E+00 0. -1.
         11    1    3    3    0    0  0.15305119672E+02  0.15995363570E+02 -0.15179030410E+03  0.15339620192E+03  0.00000000000E+00 0. -1.
        -12    1    3    3    0    0 -0.24671368627E+02 -0.15015503802E+02 -0.14696284029E+02  0.32405594403E+02  0.00000000000E+00 0.  1.
          5    1    4    4  501    0  0.57433321972E+02  0.13680567824E+02  0.29487277423E+02  0.66126517665E+02  0.41800000000E+01 0. -1.
         -5    1    4    4    0  501 -0.37093351573E+02  0.24802813061E+02  0.15253109629E+03  0.15897894201E+03  0.41800000000E+01 0. -1.
</event>
<event>
11    1  0.8039394E-009  0.1289220E+03  0.7561462E-02  0.1120601E+00
         22   -1    0    0    0    0  0.00000000000E+00  0.00000000000E+00  0.29250617058E+03  0.29250617058E+03  0.00000000000E+00 0.  1.
         22   -1    0    0    0    0 -0.00000000000E+00 -0.00000000000E+00 -0.14766765739E+04  0.14766765739E+04  0.00000000000E+00 0.  1.
        -24    2    1    2    0    0 -0.32040712175E+02  0.23784718961E+00 -0.13575005867E+04  0.13603489143E+04  0.81943039777E+02 0.  0.
         25    2    1    2    0    0  0.99793823490E+01  0.17144017608E+02 -0.74941952360E+02  0.14716260035E+03  0.12508808619E+03 0.  0.
         24    2    1    2    0    0  0.22061329826E+02 -0.17381864798E+02  0.24827213576E+03  0.26167122988E+03  0.77742830261E+02 0.  0.
        -13    1    5    5    0    0  0.61619637885E+01  0.31061577943E+02  0.93368472428E+02  0.98592408762E+02  0.00000000000E+00 0.  1.
         14    1    5    5    0    0  0.15899366038E+02 -0.48443442741E+02  0.15490366333E+03  0.16307882112E+03  0.00000000000E+00 0. -1.
         13    1    3    3    0    0 -0.12405142107E+02  0.16110186762E+02 -0.78230070294E+02  0.80829261820E+02  0.00000000000E+00 0. -1.
        -14    1    3    3    0    0 -0.19635570068E+02 -0.15872339573E+02 -0.12792705164E+04  0.12795196525E+04  0.00000000000E+00 0.  1.
          5    1    4    4  501    0  0.35068605324E+02 -0.31326794277E+02 -0.79259523769E+02  0.92253561596E+02  0.41800000000E+01 0. -1.
         -5    1    4    4    0  501 -0.25089222975E+02  0.48470811885E+02  0.43175714083E+01  0.54909038757E+02  0.41800000000E+01 0. -1.
</event>
<event>
11    1  0.8039394E-009  0.1265034E+03  0.7561462E-02  0.1123641E+00
         22   -1    0    0    0    0  0.00000000000E+00  0.00000000000E+00  0.12057149951E+03  0.12057149951E+03  0.00000000000E+00 0. -1.
         22   -1    0    0    0    0 -0.00000000000E+00 -0.00000000000E+00 -0.10517763954E+04  0.10517763954E+04  0.00000000000E+00 0.  1.
         24    2    1    2    0    0  0.12315712090E+02  0.82449174369E+01 -0.81551699089E+03  0.81845954850E+03  0.67737837744E+02 0.  0.
         25    2    1    2    0    0 -0.18072837802E+02  0.99788099313E+01 -0.20029573024E+03  0.23704918086E+03  0.12509088888E+03 0.  0.
        -24    2    1    2    0    0  0.57571257121E+01 -0.18223727368E+02  0.84607825223E+02  0.11683916557E+03  0.78279357345E+02 0.  0.
        -13    1    3    3    0    0 -0.23955012274E+01 -0.15545030984E+02 -0.67512844987E+03  0.67531163935E+03  0.00000000000E+00 0.  1.
         14    1    3    3    0    0  0.14711213317E+02  0.23789948421E+02 -0.14038854102E+03  0.14314790915E+03  0.00000000000E+00 0. -1.
         11    1    5    5    0    0  0.20044609636E+02 -0.14768373994E+02  0.95405143074E+02  0.98600368005E+02  0.00000000000E+00 0. -1.
        -12    1    5    5    0    0 -0.14287483924E+02 -0.34553533745E+01 -0.10797317851E+02  0.18238797564E+02  0.00000000000E+00 0.  1.
          5    1    4    4  501    0 -0.40535625871E+02  0.40087041765E+02 -0.33995026866E+02  0.66507459235E+02  0.41800000000E+01 0. -1.
         -5    1    4    4    0  501  0.22462788069E+02 -0.30108231834E+02 -0.16630070337E+03  0.17054172162E+03  0.41800000000E+01 0. -1.
</event>
<event>
11    1  0.8039394E-009  0.1390933E+03  0.7561462E-02  0.1108575E+00
         22   -1    0    0    0    0  0.00000000000E+00  0.00000000000E+00  0.21143441232E+03  0.21143441232E+03  0.00000000000E+00 0. -1.
         22   -1    0    0    0    0 -0.00000000000E+00 -0.00000000000E+00 -0.41413507922E+03  0.41413507922E+03  0.00000000000E+00 0. -1.
         24    2    1    2    0    0  0.67861803990E+01  0.66324106667E+02 -0.30747388699E+03  0.32463043083E+03  0.79998662957E+02 0.  0.
         25    2    1    2    0    0 -0.44792002804E+02 -0.16554360680E+02 -0.25672676518E+02  0.13633674816E+03  0.12509297425E+03 0.  0.
        -24    2    1    2    0    0  0.38005822405E+02 -0.49769745987E+02  0.13044589660E+03  0.16460231255E+03  0.78462215143E+02 0.  0.
        -13    1    3    3    0    0  0.57554073870E+01  0.20588293504E+02 -0.98966702700E+01  0.23557305152E+02  0.00000000000E+00 0.  1.
         14    1    3    3    0    0  0.10307730120E+01  0.45735813163E+02 -0.29757721672E+03  0.30107312568E+03  0.00000000000E+00 0. -1.
         11    1    5    5    0    0  0.53779727281E+02 -0.12410351917E+02  0.98768233118E+02  0.11314344778E+03  0.00000000000E+00 0. -1.
        -12    1    5    5    0    0 -0.15773904876E+02 -0.37359394070E+02  0.31677663479E+02  0.51458864774E+02  0.00000000000E+00 0.  1.
          5    1    4    4  501    0  0.12268568578E+01  0.45310847743E+02 -0.36523092629E+02  0.58360832723E+02  0.41800000000E+01 0.  1.
         -5    1    4    4    0  501 -0.46018859662E+02 -0.61865208423E+02  0.10850416111E+02  0.77975915433E+02  0.41800000000E+01 0.  1.
</event>
<event>
11    1  0.8039394E-009  0.1332474E+03  0.7561462E-02  0.1115342E+00
         22   -1    0    0    0    0  0.00000000000E+00  0.00000000000E+00  0.23827039530E+03  0.23827039530E+03  0.00000000000E+00 0.  1.
         22   -1    0    0    0    0 -0.00000000000E+00 -0.00000000000E+00 -0.47159060035E+03  0.47159060035E+03  0.00000000000E+00 0. -1.
         24    2    1    2    0    0  0.26625289508E+02 -0.35456788805E+02 -0.34658298844E+03  0.35846563954E+03  0.80073447136E+02 0.  0.
         25    2    1    2    0    0 -0.40801193987E+02  0.40763471169E+02 -0.68286296789E+02  0.15374232252E+03  0.12508910981E+03 0.  0.
        -24    2    1    2    0    0  0.14175904479E+02 -0.53066823638E+01  0.18154908019E+03  0.19765303359E+03  0.76665090007E+02 0.  0.
        -13    1    3    3    0    0  0.43345937158E+02 -0.28371565468E+02 -0.11451384573E+03  0.12568705923E+03  0.00000000000E+00 0.  1.
         14    1    3    3    0    0 -0.16720647650E+02 -0.70852233370E+01 -0.23206914272E+03  0.23277858030E+03  0.00000000000E+00 0. -1.
         11    1    5    5    0    0 -0.18607350911E+02 -0.31158467969E+02  0.79370224581E+02  0.87273800102E+02  0.00000000000E+00 0. -1.
        -12    1    5    5    0    0  0.32783255390E+02  0.25851785606E+02  0.10217885561E+03  0.11037923349E+03  0.00000000000E+00 0.  1.
          5    1    4    4  501    0 -0.41146283248E+02  0.36371424900E+02  0.24839798810E+02  0.60418417551E+02  0.41800000000E+01 0. -1.
         -5    1    4    4    0  501  0.34508926154E+00  0.43920462686E+01 -0.93126095599E+02  0.93323904968E+02  0.41800000000E+01 0. -1.
</event>
<event>
11    1  0.8039394E-009  0.1383112E+03  0.7561462E-02  0.1109459E+00
         22   -1    0    0    0    0  0.00000000000E+00  0.00000000000E+00  0.96675558467E+03  0.96675558467E+03  0.00000000000E+00 0. -1.
         22   -1    0    0    0    0 -0.00000000000E+00 -0.00000000000E+00 -0.12644427513E+03  0.12644427513E+03  0.00000000000E+00 0.  1.
        -24    2    1    2    0    0 -0.26464721622E+02  0.51647814841E+02 -0.82506424629E+02  0.13000559486E+03  0.82013817872E+02 0.  0.
         25    2    1    2    0    0 -0.73975376870E+01 -0.84895115796E+02  0.33015837416E+03  0.36319973073E+03  0.12509031985E+03 0.  0.
         24    2    1    2    0    0  0.33862259309E+02  0.33247300955E+02  0.59265936001E+03  0.59999453421E+03  0.80599556162E+02 0.  0.
        -11    1    5    5    0    0  0.58629215691E+01 -0.98949589824E+01  0.10518087528E+02  0.15585705882E+02  0.00000000000E+00 0.  1.
         12    1    5    5    0    0  0.27999337740E+02  0.43142259938E+02  0.58214127248E+03  0.58440882833E+03  0.00000000000E+00 0. -1.
         11    1    3    3    0    0 -0.14195747745E+02  0.35002159189E+02  0.67633997866E+01  0.38372046839E+02  0.00000000000E+00 0. -1.
        -12    1    3    3    0    0 -0.12268973877E+02  0.16645655652E+02 -0.89269824416E+02  0.91633548023E+02  0.00000000000E+00 0.  1.
          5    1    4    4  501    0 -0.58051754230E+02 -0.11805030048E+02  0.98416440331E+02  0.11494621799E+03  0.41800000000E+01 0.  1.
         -5    1    4    4    0  501  0.50654216543E+02 -0.73090085749E+02  0.23174193383E+03  0.24825351273E+03  0.41800000000E+01 0.  1.
</event>
<event>
11    1  0.8039394E-009  0.1417824E+03  0.7561462E-02  0.1105584E+00
         22   -1    0    0    0    0  0.00000000000E+00  0.00000000000E+00  0.24653995905E+04  0.24653995905E+04  0.00000000000E+00 0. -1.
         22   -1    0    0    0    0 -0.00000000000E+00 -0.00000000000E+00 -0.53547344586E+03  0.53547344586E+03  0.00000000000E+00 0.  1.
         24    2    1    2    0    0 -0.33244667778E+02  0.57854094353E+02 -0.52469098812E+03  0.53491688053E+03  0.79894504767E+02 0.  0.
         25    2    1    2    0    0  0.43022096915E+02 -0.62873702453E+02  0.12533064091E+04  0.12618343444E+04  0.12507979206E+03 0.  0.
        -24    2    1    2    0    0 -0.97774291369E+01  0.50196081000E+01  0.12013107237E+04  0.12041218114E+04  0.81492866923E+02 0.  0.
        -13    1    3    3    0    0 -0.15219377021E+02  0.74085402009E+02 -0.45204211108E+03  0.45832558996E+03  0.00000000000E+00 0.  1.
         14    1    3    3    0    0 -0.18025290756E+02 -0.16231307656E+02 -0.72648877041E+02  0.76591290565E+02  0.00000000000E+00 0. -1.
         13    1    5    5    0    0 -0.34375638680E+02  0.17557379219E+02  0.10191462817E+04  0.10198769972E+04  0.00000000000E+00 0. -1.
        -14    1    5    5    0    0  0.24598209543E+02 -0.12537771119E+02  0.18216444201E+03  0.18424481417E+03  0.00000000000E+00 0.  1.
          5    1    4    4  501    0  0.37338963815E+02 -0.73879586113E+02  0.40337707087E+03  0.41180447444E+03  0.41800000000E+01 0.  1.
         -5    1    4    4    0  501  0.56831330991E+01  0.11005883660E+02  0.84992933820E+03  0.85002986995E+03  0.41800000000E+01 0.  1.
</event>
<event>
11    1  0.1308267E-008  0.1703240E+03  0.7561462E-02  0.1077750E+00
         22   -1    0    0    0    0  0.00000000000E+00  0.00000000000E+00  0.71089253162E+03  0.71089253162E+03  0.00000000000E+00 0.  1.
         22   -1    0    0    0    0 -0.00000000000E+00 -0.00000000000E+00 -0.51496882844E+03  0.51496882844E+03  0.00000000000E+00 0. -1.
         24    2    1    2    0    0  0.38017155960E+02  0.11943016689E+03 -0.35325220400E+03  0.38346183451E+03  0.80913472227E+02 0.  0.
         25    2    1    2    0    0  0.56340823093E+02 -0.97722187789E+02 -0.89591891931E+02  0.19078273148E+03  0.12508968462E+03 0.  0.
        -24    2    1    2    0    0 -0.94357979053E+02 -0.21707979098E+02  0.63876779911E+03  0.65161679407E+03  0.84885102162E+02 0.  0.
        -13    1    3    3    0    0  0.23856383358E+02  0.79411493075E+01 -0.21139168661E+02  0.32848947181E+02  0.00000000000E+00 0.  1.
         14    1    3    3    0    0  0.14160772602E+02  0.11148901758E+03 -0.33211303534E+03  0.35061288733E+03  0.00000000000E+00 0. -1.
         11    1    5    5    0    0  0.62721851868E+01  0.14093205020E+02  0.32048908981E+02  0.35568121986E+02  0.00000000000E+00 0. -1.
        -12    1    5    5    0    0 -0.10063016424E+03 -0.35801184117E+02  0.60671889013E+03  0.61604867209E+03  0.00000000000E+00 0.  1.
          5    1    4    4  501    0 -0.34409288444E+02 -0.20071124970E+02  0.21623126978E+01  0.40112307151E+02  0.41800000000E+01 0.  1.
         -5    1    4    4    0  501  0.90750111536E+02 -0.77651062819E+02 -0.91754204629E+02  0.15067042433E+03  0.41800000000E+01 0.  1.
</event>
<event>
11    1  0.8039394E-009  0.1347472E+03  0.7561462E-02  0.1113570E+00
         22   -1    0    0    0    0  0.00000000000E+00  0.00000000000E+00  0.51019976118E+03  0.51019976118E+03  0.00000000000E+00 0.  1.
         22   -1    0    0    0    0 -0.00000000000E+00 -0.00000000000E+00 -0.65002087170E+03  0.65002087170E+03  0.00000000000E+00 0. -1.
        -24    2    1    2    0    0  0.27167103448E+02 -0.35315675439E+02 -0.61276706699E+03  0.61950074237E+03  0.79450883993E+02 0.  0.
         25    2    1    2    0    0  0.25365645827E+02  0.45373657473E+02  0.14256743550E+03  0.19666086004E+03  0.12509130835E+03 0.  0.
         24    2    1    2    0    0 -0.52532749275E+02 -0.10057982034E+02  0.33037852097E+03  0.34405903048E+03  0.79785942276E+02 0.  0.
        -11    1    5    5    0    0 -0.56168577395E+02 -0.21264715983E+02  0.32600592408E+03  0.33149202067E+03  0.00000000000E+00 0.  1.
         12    1    5    5    0    0  0.36358281204E+01  0.11206733949E+02  0.43725968904E+01  0.12567009807E+02  0.00000000000E+00 0. -1.
         13    1    3    3    0    0  0.49813247940E+02 -0.27810443201E+02 -0.53807563575E+03  0.54109164677E+03  0.00000000000E+00 0. -1.
        -14    1    3    3    0    0 -0.22646144493E+02 -0.75052322383E+01 -0.74691431241E+02  0.78409095596E+02  0.00000000000E+00 0.  1.
          5    1    4    4  501    0  0.56629432659E+02  0.59895786841E+02  0.46995282902E+02  0.94975928211E+02  0.41800000000E+01 0. -1.
         -5    1    4    4    0  501 -0.31263786831E+02 -0.14522129368E+02  0.95572152596E+02  0.10168493182E+03  0.41800000000E+01 0. -1.
</event>
<event>
11    1  0.8039394E-009  0.1657470E+03  0.7561462E-02  0.1081793E+00
         22   -1    0    0    0    0  0.00000000000E+00  0.00000000000E+00  0.21890331464E+03  0.21890331464E+03  0.00000000000E+00 0. -1.
         22   -1    0    0    0    0 -0.00000000000E+00 -0.00000000000E+00 -0.53477744671E+03  0.53477744671E+03  0.00000000000E+00 0. -1.
        -24    2    1    2    0    0 -0.43583323948E+02 -0.33215595611E+02 -0.36082742428E+03  0.37412892087E+03  0.82299680428E+02 0.  0.
         25    2    1    2    0    0 -0.43807377906E+02  0.10128136212E+03 -0.88174959783E+02  0.18867611299E+03  0.12508737509E+03 0.  0.
         24    2    1    2    0    0  0.87390701855E+02 -0.68065766507E+02  0.13312825200E+03  0.19087572750E+03  0.80251657480E+02 0.  0.
        -11    1    5    5    0    0  0.42737977704E+02 -0.15097537977E+02  0.10809458383E+03  0.11721309417E+03  0.00000000000E+00 0.  1.
         12    1    5    5    0    0  0.44652724151E+02 -0.52968228529E+02  0.25033668168E+02  0.73662633333E+02  0.00000000000E+00 0. -1.
         11    1    3    3    0    0 -0.59769555237E+02 -0.32913305582E+02 -0.34429123187E+03  0.35098737550E+03  0.00000000000E+00 0. -1.
        -12    1    3    3    0    0  0.16186231289E+02 -0.30229002872E+00 -0.16536192411E+02  0.23141545368E+02  0.00000000000E+00 0.  1.
          5    1    4    4  501    0  0.35222097059E+02  0.24027728971E+02  0.61993577529E+01  0.43287784850E+02  0.41800000000E+01 0. -1.
         -5    1    4    4    0  501 -0.79029474965E+02  0.77253633147E+02 -0.94374317536E+02  0.14538832814E+03  0.41800000000E+01 0. -1.
</event>
<event>
11    1  0.8039394E-009  0.1547903E+03  0.7561462E-02  0.1092082E+00
         22   -1    0    0    0    0  0.00000000000E+00  0.00000000000E+00  0.17556713141E+04  0.17556713141E+04  0.00000000000E+00 0.  1.
         22   -1    0    0    0    0 -0.00000000000E+00 -0.00000000000E+00 -0.13215010010E+04  0.13215010010E+04  0.00000000000E+00 0.  1.
         24    2    1    2    0    0  0.38184593634E+02 -0.88341009151E+01 -0.12852502371E+04  0.12884696093E+04  0.82156298987E+02 0.  0.
         25    2    1    2    0    0  0.51849967725E+02  0.34218325893E+02  0.11901903164E+03  0.18350016956E+03  0.12508984513E+03 0.  0.
        -24    2    1    2    0    0 -0.90034561359E+02 -0.25384224978E+02  0.16004015186E+04  0.16052025363E+04  0.81483621636E+02 0.  0.
        -11    1    3    3    0    0  0.92135834773E+01 -0.11043477164E+02 -0.11519411449E+04  0.11520309240E+04  0.00000000000E+00 0.  1.
         12    1    3    3    0    0  0.28971010156E+02  0.22093762492E+01 -0.13330909219E+03  0.13643868525E+03  0.00000000000E+00 0. -1.
         11    1    5    5    0    0 -0.88179431355E+00  0.23301137441E+01  0.45279414131E+00  0.25321954518E+01  0.00000000000E+00 0. -1.
        -12    1    5    5    0    0 -0.89152767046E+02 -0.27714338722E+02  0.15999487245E+04  0.16026703408E+04  0.00000000000E+00 0.  1.
          5    1    4    4  501    0 -0.56260376137E+01 -0.32856793283E+02 -0.19529254141E+01  0.33652748502E+02  0.41800000000E+01 0.  1.
         -5    1    4    4    0  501  0.57476005339E+02  0.67075119176E+02  0.12097195706E+03  0.14984742105E+03  0.41800000000E+01 0.  1.
</event>
<event>
11    1  0.8039394E-009  0.1301456E+03  0.7561462E-02  0.1119090E+00
         22   -1    0    0    0    0  0.00000000000E+00  0.00000000000E+00  0.20033259150E+03  0.20033259150E+03  0.00000000000E+00 0. -1.
         22   -1    0    0    0    0 -0.00000000000E+00 -0.00000000000E+00 -0.87148061289E+03  0.87148061289E+03  0.00000000000E+00 0. -1.
         24    2    1    2    0    0 -0.16914018283E+02  0.32005962669E+02 -0.80014595364E+03  0.80498867758E+03  0.80391282164E+02 0.  0.
         25    2    1    2    0    0  0.29553204816E+02 -0.14196098165E+02  0.21218940060E+02  0.13104995133E+03  0.12509566423E+03 0.  0.
        -24    2    1    2    0    0 -0.12639186532E+02 -0.17809864505E+02  0.10777899219E+03  0.13577457548E+03  0.79633434429E+02 0.  0.
        -11    1    3    3    0    0  0.21393468603E+02  0.41077468903E+02 -0.33613087765E+03  0.33930665461E+03  0.00000000000E+00 0.  1.
         12    1    3    3    0    0 -0.38307486886E+02 -0.90715062338E+01 -0.46401507598E+03  0.46568202297E+03  0.00000000000E+00 0. -1.
         11    1    5    5    0    0  0.70170366105E+01  0.44242391789E+01  0.10569985454E+03  0.10602486475E+03  0.00000000000E+00 0. -1.
        -12    1    5    5    0    0 -0.19656223143E+02 -0.22234103683E+02  0.20791376436E+01  0.29749710724E+02  0.00000000000E+00 0.  1.
          5    1    4    4  501    0  0.63275290934E+02  0.55827468057E+00 -0.28104310801E+02  0.69364247268E+02  0.41800000000E+01 0. -1.
         -5    1    4    4    0  501 -0.33722086119E+02 -0.14754372846E+02  0.49323250861E+02  0.61685704063E+02  0.41800000000E+01 0. -1.
</event>
<event>
11    1  0.8039394E-009  0.1370994E+03  0.7561462E-02  0.1110841E+00
         22   -1    0    0    0    0  0.00000000000E+00  0.00000000000E+00  0.41427838866E+03  0.41427838866E+03  0.00000000000E+00 0. -1.
         22   -1    0    0    0    0 -0.00000000000E+00 -0.00000000000E+00 -0.56284845954E+03  0.56284845954E+03  0.00000000000E+00 0.  1.
        -24    2    1    2    0    0  0.14087281944E+01 -0.13787765800E+02 -0.48845568303E+03  0.49518995093E+03  0.80200038791E+02 0.  0.
         25    2    1    2    0    0 -0.55118256996E+02 -0.40030790191E+01  0.19018588370E+02  0.13806048712E+03  0.12507975258E+03 0.  0.
         24    2    1    2    0    0  0.53709528801E+02  0.17790844819E+02  0.32086702379E+03  0.34387641015E+03  0.10997322792E+03 0.  0.
        -13    1    5    5    0    0  0.30454228368E+02 -0.41710250444E+02  0.84537648964E+02  0.99064721824E+02  0.00000000000E+00 0.  1.
         14    1    5    5    0    0  0.23255300433E+02  0.59501095263E+02  0.23632937482E+03  0.24481168832E+03  0.00000000000E+00 0. -1.
         13    1    3    3    0    0  0.12940078549E+02 -0.43933375422E+02 -0.21420042059E+03  0.21904202174E+03  0.00000000000E+00 0. -1.
        -14    1    3    3    0    0 -0.11531350354E+02  0.30145609622E+02 -0.27425526244E+03  0.27614792919E+03  0.00000000000E+00 0.  1.
          5    1    4    4  501    0  0.37653891254E+02  0.59490690290E+01  0.22746833912E+02  0.44588090359E+02  0.41800000000E+01 0. -1.
         -5    1    4    4    0  501 -0.92772148250E+02 -0.99521480481E+01 -0.37282455421E+01  0.93472396762E+02  0.41800000000E+01 0. -1.
</event>
<event>
11    1  0.8039394E-009  0.1545685E+03  0.7561462E-02  0.1092300E+00
         22   -1    0    0    0    0  0.00000000000E+00  0.00000000000E+00  0.31352926346E+04  0.31352926346E+04  0.00000000000E+00 0. -1.
         22   -1    0    0    0    0 -0.00000000000E+00 -0.00000000000E+00 -0.20406370574E+03  0.20406370574E+03  0.00000000000E+00 0.  1.
         24    2    1    2    0    0 -0.70454668984E+02 -0.55717194884E+02 -0.17041395402E+03  0.20857204093E+03  0.79956953082E+02 0.  0.
         25    2    1    2    0    0  0.14241826788E+03  0.21588151503E+02  0.67436389060E+03  0.70083030449E+03  0.12508975750E+03 0.  0.
        -24    2    1    2    0    0 -0.71963598896E+02  0.34129043381E+02  0.24272789923E+04  0.24299539950E+04  0.81544834184E+02 0.  0.
        -13    1    3    3    0    0 -0.26332734351E+02 -0.32167494232E+02 -0.14806908381E+03  0.15379406414E+03  0.00000000000E+00 0.  1.
         14    1    3    3    0    0 -0.44121934633E+02 -0.23549700652E+02 -0.22344870203E+02  0.54777976787E+02  0.00000000000E+00 0. -1.
         11    1    5    5    0    0 -0.62119993614E+02  0.46461889586E+02  0.23383174519E+04  0.23396038354E+04  0.00000000000E+00 0. -1.
        -12    1    5    5    0    0 -0.98436052822E+01 -0.12332846204E+02  0.88961540372E+02  0.90350159523E+02  0.00000000000E+00 0.  1.
          5    1    4    4  501    0  0.13083813179E+03 -0.11862996446E+02  0.63172713240E+03  0.64525653009E+03  0.41800000000E+01 0.  1.
         -5    1    4    4    0  501  0.11580136088E+02  0.33451147949E+02  0.42636758202E+02  0.55573774399E+02  0.41800000000E+01 0.  1.
</event>
<event>
11    1  0.8039394E-009  0.1411347E+03  0.7561462E-02  0.1106298E+00
         22   -1    0    0    0    0  0.00000000000E+00  0.00000000000E+00  0.37608644688E+03  0.37608644688E+03  0.00000000000E+00 0. -1.
         22   -1    0    0    0    0 -0.00000000000E+00 -0.00000000000E+00 -0.51723630578E+03  0.51723630578E+03  0.00000000000E+00 0. -1.
         24    2    1    2    0    0 -0.50006868004E+02  0.44228373639E+02 -0.38415010922E+03  0.39613865331E+03  0.69983500559E+02 0.  0.
         25    2    1    2    0    0  0.17502779093E+02 -0.62502447542E+02 -0.80180371552E+02  0.16214150931E+03  0.12509226129E+03 0.  0.
        -24    2    1    2    0    0  0.32504088911E+02  0.18274073903E+02  0.32318062187E+03  0.33504259004E+03  0.80108459071E+02 0.  0.
        -13    1    3    3    0    0 -0.77603456466E+01 -0.36947731112E+01 -0.21858603817E+01  0.88686131106E+01  0.00000000000E+00 0.  1.
         14    1    3    3    0    0 -0.42246522358E+02  0.47923146750E+02 -0.38196424884E+03  0.38727004020E+03  0.00000000000E+00 0. -1.
         11    1    5    5    0    0  0.58871345245E+02  0.63206311994E+01  0.20616494204E+03  0.21449887877E+03  0.00000000000E+00 0. -1.
        -12    1    5    5    0    0 -0.26367256334E+02  0.11953442703E+02  0.11701567984E+03  0.12054371127E+03  0.00000000000E+00 0.  1.
          5    1    4    4  501    0 -0.39201600674E+02 -0.38277831311E+02  0.68758480075E+01  0.55377861562E+02  0.41800000000E+01 0.  1.
         -5    1    4    4    0  501  0.56704379768E+02 -0.24224616231E+02 -0.87056219559E+02  0.10676364775E+03  0.41800000000E+01 0.  1.
</event>
<event>
11    1  0.8039394E-009  0.1693833E+03  0.7561462E-02  0.1078570E+00
         22   -1    0    0    0    0  0.00000000000E+00  0.00000000000E+00  0.29770224750E+03  0.29770224750E+03  0.00000000000E+00 0.  1.
         22   -1    0    0    0    0 -0.00000000000E+00 -0.00000000000E+00 -0.10543745238E+04  0.10543745238E+04  0.00000000000E+00 0. -1.
         24    2    1    2    0    0 -0.34677062789E+02 -0.10933726046E+03 -0.99346324762E+03  0.10033011466E+04  0.80540866475E+02 0.  0.
         25    2    1    2    0    0  0.63536110443E+02  0.82538210612E+02  0.12136648946E+03  0.20303947324E+03  0.12508320987E+03 0.  0.
        -24    2    1    2    0    0 -0.28859047654E+02  0.26799049843E+02  0.11542448183E+03  0.14573615149E+03  0.79782085339E+02 0.  0.
        -11    1    3    3    0    0  0.53365117919E+01 -0.14694095514E+02 -0.25580345064E+02  0.29979140326E+02  0.00000000000E+00 0.  1.
         12    1    3    3    0    0 -0.40013574581E+02 -0.94643164941E+02 -0.96788290256E+03  0.97332200627E+03  0.00000000000E+00 0. -1.
         13    1    5    5    0    0 -0.40026769935E+02  0.42538580003E+02  0.47993936541E+02  0.75598221175E+02  0.00000000000E+00 0. -1.
        -14    1    5    5    0    0  0.11167722281E+02 -0.15739530161E+02  0.67430545292E+02  0.70137930316E+02  0.00000000000E+00 0.  1.
          5    1    4    4  501    0 -0.19088400776E+02  0.53496997485E+02  0.96241764986E+02  0.11183132616E+03  0.41800000000E+01 0.  1.
         -5    1    4    4    0  501  0.82624511218E+02  0.29041213128E+02  0.25124724470E+02  0.91208147080E+02  0.41800000000E+01 0.  1.
</event>
<event>
11    1  0.8039394E-009  0.2677722E+03  0.7561462E-02  0.1014836E+00
         22   -1    0    0    0    0  0.00000000000E+00  0.00000000000E+00  0.33166769567E+03  0.33166769567E+03  0.00000000000E+00 0.  1.
         22   -1    0    0    0    0 -0.00000000000E+00 -0.00000000000E+00 -0.14878482150E+04  0.14878482150E+04  0.00000000000E+00 0. -1.
         24    2    1    2    0    0  0.49415197838E+02 -0.27300774147E+02 -0.85364046958E+03  0.85920785942E+03  0.79679987048E+02 0.  0.
         25    2    1    2    0    0 -0.27665041357E+03  0.75331535749E+02 -0.53654988944E+03  0.62108254026E+03  0.12508975319E+03 0.  0.
        -24    2    1    2    0    0  0.22723521573E+03 -0.48030761602E+02  0.23400983965E+03  0.33922551104E+03  0.79815693665E+02 0.  0.
        -11    1    3    3    0    0 -0.52816737459E+01 -0.23766391662E+02 -0.55790764918E+03  0.55843861119E+03  0.00000000000E+00 0.  1.
         12    1    3    3    0    0  0.54696871584E+02 -0.35343824851E+01 -0.29573282040E+03  0.30076924823E+03  0.00000000000E+00 0. -1.
         11    1    5    5    0    0  0.11870886415E+03 -0.16498086150E+01  0.72214476052E+02  0.13895843568E+03  0.00000000000E+00 0. -1.
        -12    1    5    5    0    0  0.10852635158E+03 -0.46380952987E+02  0.16179536360E+03  0.20026707535E+03  0.00000000000E+00 0.  1.
          5    1    4    4  501    0 -0.20687357505E+03  0.97692798882E+02 -0.32744755143E+03  0.39947456783E+03  0.41800000000E+01 0.  1.
         -5    1    4    4    0  501 -0.69776838521E+02 -0.22361263134E+02 -0.20910233801E+03  0.22160797243E+03  0.41800000000E+01 0.  1.
</event>
<event>
11    1  0.8039394E-009  0.5271711E+03  0.7561462E-02  0.9334775E-01
         22   -1    0    0    0    0  0.00000000000E+00  0.00000000000E+00  0.17205069102E+04  0.17205069102E+04  0.00000000000E+00 0. -1.
         22   -1    0    0    0    0 -0.00000000000E+00 -0.00000000000E+00 -0.58540355496E+03  0.58540355496E+03  0.00000000000E+00 0. -1.
         24    2    1    2    0    0 -0.11125987037E+03  0.27870700870E+02 -0.22982012773E+03  0.26709279593E+03  0.73251182975E+02 0.  0.
         25    2    1    2    0    0 -0.82049033021E+02  0.45611956484E+03 -0.92584833168E+02  0.48887296157E+03  0.12509084688E+03 0.  0.
        -24    2    1    2    0    0  0.19330890339E+03 -0.48399026571E+03  0.14575083161E+04  0.15499447077E+04  0.79894904657E+02 0.  0.
        -11    1    3    3    0    0  0.48523450435E+01 -0.75613378334E+01 -0.45552714902E+02  0.46430258638E+02  0.00000000000E+00 0.  1.
         12    1    3    3    0    0 -0.11611221541E+03  0.35432038704E+02 -0.18426741282E+03  0.22066253729E+03  0.00000000000E+00 0. -1.
         11    1    5    5    0    0  0.15860936545E+03 -0.39554975371E+03  0.12725523036E+04  0.13420156123E+04  0.00000000000E+00 0. -1.
        -12    1    5    5    0    0  0.34699537933E+02 -0.88440511996E+02  0.18495601257E+03  0.20792909532E+03  0.00000000000E+00 0.  1.
          5    1    4    4  501    0 -0.77190454845E+02  0.16912997528E+03 -0.77359774029E+02  0.20140834614E+03  0.41800000000E+01 0. -1.
         -5    1    4    4    0  501 -0.48585781759E+01  0.28698958956E+03 -0.15225059139E+02  0.28746461543E+03  0.41800000000E+01 0. -1.
</event>
<event>
11    1  0.8039394E-009  0.1633116E+03  0.7561462E-02  0.1084003E+00
         22   -1    0    0    0    0  0.00000000000E+00  0.00000000000E+00  0.60293324371E+03  0.60293324371E+03  0.00000000000E+00 0. -1.
         22   -1    0    0    0    0 -0.00000000000E+00 -0.00000000000E+00 -0.83594886464E+03  0.83594886464E+03  0.00000000000E+00 0.  1.
         24    2    1    2    0    0 -0.66016507084E+01 -0.97356040183E+01 -0.64714873439E+03  0.65242204997E+03  0.81943169788E+02 0.  0.
         25    2    1    2    0    0  0.48652822047E+02  0.10540235259E+03 -0.13749203292E+03  0.21915518296E+03  0.12509269395E+03 0.  0.
        -24    2    1    2    0    0 -0.42051171338E+02 -0.95666748570E+02  0.55162514638E+03  0.56730487542E+03  0.81388523559E+02 0.  0.
        -11    1    3    3    0    0 -0.12304497408E+02  0.11192036617E+02 -0.60303196509E+03  0.60326131424E+03  0.00000000000E+00 0.  1.
         12    1    3    3    0    0  0.57028466999E+01 -0.20927640635E+02 -0.44116769303E+02  0.49160735723E+02  0.00000000000E+00 0. -1.
         11    1    5    5    0    0 -0.54529564830E+02 -0.96864541337E+02  0.39986863371E+03  0.41503148921E+03  0.00000000000E+00 0. -1.
        -12    1    5    5    0    0  0.12478393492E+02  0.11977927669E+01  0.15175651267E+03  0.15227338622E+03  0.00000000000E+00 0.  1.
          5    1    4    4  501    0 -0.19660034219E+02  0.84983819034E+02 -0.34663468887E+02  0.93956345813E+02  0.41800000000E+01 0.  1.
         -5    1    4    4    0  501  0.68312856265E+02  0.20418533554E+02 -0.10282856403E+03  0.12519883715E+03  0.41800000000E+01 0.  1.
</event>
<event>
11    1  0.8039394E-009  0.1335179E+03  0.7561462E-02  0.1115021E+00
         22   -1    0    0    0    0  0.00000000000E+00  0.00000000000E+00  0.11776824782E+04  0.11776824782E+04  0.00000000000E+00 0. -1.
         22   -1    0    0    0    0 -0.00000000000E+00 -0.00000000000E+00 -0.23170296656E+03  0.23170296656E+03  0.00000000000E+00 0. -1.
         24    2    1    2    0    0  0.18376877278E+02 -0.41129074756E+02 -0.18561562469E+03  0.20730368001E+03  0.80575090492E+02 0.  0.
         25    2    1    2    0    0 -0.15356226421E+02  0.71539636457E+02  0.12361491079E+03  0.19045681252E+03  0.12505765866E+03 0.  0.
        -24    2    1    2    0    0 -0.30206508571E+01 -0.30410561701E+02  0.10079802256E+04  0.10116249522E+04  0.80168461860E+02 0.  0.
        -11    1    3    3    0    0 -0.12218885445E+02 -0.19314207865E+01  0.25910865181E+01  0.12639037824E+02  0.00000000000E+00 0.  1.
         12    1    3    3    0    0  0.30595762723E+02 -0.39197653969E+02 -0.18820671121E+03  0.19466464219E+03  0.00000000000E+00 0. -1.
         13    1    5    5    0    0  0.19233732417E+02 -0.24149059752E+02  0.92414529516E+03  0.92466082437E+03  0.00000000000E+00 0. -1.
        -14    1    5    5    0    0 -0.22254383274E+02 -0.62615019492E+01  0.83834930396E+02  0.86964127869E+02  0.00000000000E+00 0.  1.
          5    1    4    4  501    0 -0.52076682932E+02  0.89123460617E+02  0.80132782630E+02  0.13074290570E+03  0.41800000000E+01 0. -1.
         -5    1    4    4    0  501  0.36720456512E+02 -0.17583824160E+02  0.43482128165E+02  0.59713906825E+02  0.41800000000E+01 0. -1.
</event>
<event>
11    1  0.8039394E-009  0.1610018E+03  0.7561462E-02  0.1086139E+00
         22   -1    0    0    0    0  0.00000000000E+00  0.00000000000E+00  0.17480515007E+04  0.17480515007E+04  0.00000000000E+00 0.  1.
         22   -1    0    0    0    0 -0.00000000000E+00 -0.00000000000E+00 -0.78427709164E+03  0.78427709164E+03  0.00000000000E+00 0.  1.
        -24    2    1    2    0    0  0.46182721672E+02  0.94426148746E+02 -0.67960451121E+03  0.69229911855E+03  0.79791205943E+02 0.  0.
         25    2    1    2    0    0 -0.84835801320E+02 -0.28912271999E+02 -0.35162795903E+02  0.15784925071E+03  0.12508769354E+03 0.  0.
         24    2    1    2    0    0  0.38653079648E+02 -0.65513876747E+02  0.16785417162E+04  0.16821802231E+04  0.80261331837E+02 0.  0.
        -13    1    5    5    0    0  0.13051128383E+01 -0.65805658897E+02  0.13334174928E+04  0.13350409350E+04  0.00000000000E+00 0.  1.
         14    1    5    5    0    0  0.37347966810E+02  0.29178215027E+00  0.34512422339E+03  0.34713928809E+03  0.00000000000E+00 0. -1.
         13    1    3    3    0    0  0.42988137290E+01  0.46291390600E+02 -0.11412255431E+03  0.12322877117E+03  0.00000000000E+00 0. -1.
        -14    1    3    3    0    0  0.41883907943E+02  0.48134758147E+02 -0.56548195690E+03  0.56907034738E+03  0.00000000000E+00 0.  1.
          5    1    4    4  501    0 -0.78853112286E+02 -0.94365088547E+01  0.33360187351E+02  0.86239408142E+02  0.41800000000E+01 0. -1.
         -5    1    4    4    0  501 -0.59826890335E+01 -0.19475763145E+02 -0.68522983255E+02  0.71609842565E+02  0.41800000000E+01 0. -1.
</event>
<event>
11    1  0.8039394E-009  0.1358750E+03  0.7561462E-02  0.1112254E+00
         22   -1    0    0    0    0  0.00000000000E+00  0.00000000000E+00  0.12494194723E+04  0.12494194723E+04  0.00000000000E+00 0.  1.
         22   -1    0    0    0    0 -0.00000000000E+00 -0.00000000000E+00 -0.21078385478E+03  0.21078385478E+03  0.00000000000E+00 0. -1.
        -24    2    1    2    0    0 -0.44763226870E+02 -0.21714113107E+02 -0.14082444675E+03  0.17532176475E+03  0.91820189534E+02 0.  0.
         25    2    1    2    0    0  0.50221976070E+02  0.61603601168E+02  0.57429148526E+02  0.15895303005E+03  0.12510279016E+03 0.  0.
         24    2    1    2    0    0 -0.54587491994E+01 -0.39889488061E+02  0.11220309157E+04  0.11259285322E+04  0.84502749765E+02 0.  0.
        -13    1    5    5    0    0 -0.33757762137E+02 -0.20370695262E+02  0.93062992437E+03  0.93146476469E+03  0.00000000000E+00 0.  1.
         14    1    5    5    0    0  0.28299012937E+02 -0.19518792799E+02  0.19140099132E+03  0.19446376754E+03  0.00000000000E+00 0. -1.
         11    1    3    3    0    0 -0.17152797088E+02 -0.39559004360E+02 -0.13527630481E+03  0.14198173092E+03  0.00000000000E+00 0. -1.
        -12    1    3    3    0    0 -0.27610429782E+02  0.17844891254E+02 -0.55481419404E+01  0.33340033827E+02  0.00000000000E+00 0.  1.
          5    1    4    4  501    0 -0.36972057123E+01  0.53616406328E+02 -0.25494625283E+02  0.59630836620E+02  0.41800000000E+01 0. -1.
         -5    1    4    4    0  501  0.53919181782E+02  0.79871948403E+01  0.82923773809E+02  0.99322193432E+02  0.41800000000E+01 0. -1.
</event>
<event>
11    1  0.8039394E-009  0.1936073E+03  0.7561462E-02  0.1059139E+00
         22   -1    0    0    0    0  0.00000000000E+00  0.00000000000E+00  0.15157802723E+04  0.15157802723E+04  0.00000000000E+00 0.  1.
         22   -1    0    0    0    0 -0.00000000000E+00 -0.00000000000E+00 -0.35735294305E+03  0.35735294305E+03  0.00000000000E+00 0. -1.
        -24    2    1    2    0    0  0.92164699670E+02 -0.11257553209E+03 -0.28830191680E+03  0.33240879974E+03  0.78803760206E+02 0.  0.
         25    2    1    2    0    0 -0.80180276489E+02  0.15990577068E+03  0.21722835540E+03  0.30795176854E+03  0.12508957239E+03 0.  0.
         24    2    1    2    0    0 -0.11984423182E+02 -0.47330238587E+02  0.12295008906E+04  0.12327726471E+04  0.75313885849E+02 0.  0.
        -13    1    5    5    0    0  0.42493871800E+01 -0.33995839462E+02  0.11509854855E+04  0.11514952723E+04  0.00000000000E+00 0.  1.
         14    1    5    5    0    0 -0.16233810362E+02 -0.13334399125E+02  0.78515405134E+02  0.81277374725E+02  0.00000000000E+00 0. -1.
         13    1    3    3    0    0  0.43104177830E+02 -0.10408808343E+03 -0.22712976497E+03  0.25353545983E+03  0.00000000000E+00 0. -1.
        -14    1    3    3    0    0  0.49060521840E+02 -0.84874486568E+01 -0.61172151835E+02  0.78873339907E+02  0.00000000000E+00 0.  1.
          5    1    4    4  501    0 -0.53542070669E+02  0.95578193825E+02  0.38669191821E+02  0.11625284195E+03  0.41800000000E+01 0. -1.
         -5    1    4    4    0  501 -0.26638205819E+02  0.64327576850E+02  0.17855916358E+03  0.19169892658E+03  0.41800000000E+01 0. -1.
</event>
<event>
11    1  0.1066630E-008  0.2004693E+03  0.7561462E-02  0.1054192E+00
         22   -1    0    0    0    0  0.00000000000E+00  0.00000000000E+00  0.78271905038E+03  0.78271905038E+03  0.00000000000E+00 0.  1.
         22   -1    0    0    0    0 -0.00000000000E+00 -0.00000000000E+00 -0.54537645612E+03  0.54537645612E+03  0.00000000000E+00 0.  1.
        -24    2    1    2    0    0  0.63986501329E+02 -0.47049403529E+02 -0.30547516289E+03  0.32579096010E+03  0.80726425763E+02 0.  0.
         25    2    1    2    0    0 -0.18439765082E+03  0.14134234253E+03 -0.13949205427E+03  0.29847077963E+03  0.12508645677E+03 0.  0.
         24    2    1    2    0    0  0.12041114949E+03 -0.94292938997E+02  0.68230981142E+03  0.70383376678E+03  0.80282558705E+02 0.  0.
        -11    1    5    5    0    0  0.23987466634E+02 -0.55753724562E+02  0.36368947292E+03  0.36871928221E+03  0.00000000000E+00 0.  1.
         12    1    5    5    0    0  0.96423682853E+02 -0.38539214435E+02  0.31862033850E+03  0.33511448457E+03  0.00000000000E+00 0. -1.
         11    1    3    3    0    0  0.38193209510E+02  0.18303395412E+02 -0.13200437848E+03  0.13863221658E+03  0.00000000000E+00 0. -1.
        -12    1    3    3    0    0  0.25793291820E+02 -0.65352798941E+02 -0.17347078440E+03  0.18715874351E+03  0.00000000000E+00 0.  1.
          5    1    4    4  501    0 -0.10095139321E+03  0.27438026045E+02 -0.72155393600E+01  0.10494553575E+03  0.41800000000E+01 0.  1.
         -5    1    4    4    0  501 -0.83446257602E+02  0.11390431648E+03 -0.13227651491E+03  0.19352524388E+03  0.41800000000E+01 0.  1.
</event>
<event>
11    1  0.8039394E-009  0.1526977E+03  0.7561462E-02  0.1094154E+00
         22   -1    0    0    0    0  0.00000000000E+00  0.00000000000E+00  0.14597097133E+03  0.14597097133E+03  0.00000000000E+00 0. -1.
         22   -1    0    0    0    0 -0.00000000000E+00 -0.00000000000E+00 -0.29710862752E+04  0.29710862752E+04  0.00000000000E+00 0. -1.
         24    2    1    2    0    0  0.52971062942E+02  0.71322288788E+02 -0.27709743686E+04  0.27735596325E+04  0.80257593273E+02 0.  0.
         25    2    1    2    0    0 -0.83875912464E+01 -0.68582226635E+02 -0.15280755905E+03  0.20920834757E+03  0.12507641302E+03 0.  0.
        -24    2    1    2    0    0 -0.44583471696E+02 -0.27400621530E+01  0.98666623819E+02  0.13428926641E+03  0.79393390963E+02 0.  0.
        -13    1    3    3    0    0  0.20435134409E+01 -0.17274173336E+02 -0.45262430668E+03  0.45295842636E+03  0.00000000000E+00 0.  1.
         14    1    3    3    0    0  0.50927549501E+02  0.88596462124E+02 -0.23183500620E+04  0.23206012062E+04  0.00000000000E+00 0. -1.
         11    1    5    5    0    0 -0.29256637149E+02 -0.71176521757E+01  0.11044124484E+03  0.11447218156E+03  0.00000000000E+00 0. -1.
        -12    1    5    5    0    0 -0.15326834546E+02  0.43775900228E+01 -0.11774621023E+02  0.19817084848E+02  0.00000000000E+00 0.  1.
          5    1    4    4  501    0  0.11866173570E+02  0.21968076975E+02 -0.98313675599E+02  0.10152070572E+03  0.41800000000E+01 0.  1.
         -5    1    4    4    0  501 -0.20253764816E+02 -0.90550303610E+02 -0.54493883447E+02  0.10768764185E+03  0.41800000000E+01 0.  1.
</event>
<event>
11    1  0.8718233E-009  0.1668919E+03  0.7561462E-02  0.1080769E+00
         22   -1    0    0    0    0  0.00000000000E+00  0.00000000000E+00  0.82450728577E+03  0.82450728577E+03  0.00000000000E+00 0.  1.
         22   -1    0    0    0    0 -0.00000000000E+00 -0.00000000000E+00 -0.13562474123E+04  0.13562474123E+04  0.00000000000E+00 0.  1.
         24    2    1    2    0    0 -0.93924645251E+01 -0.28276663607E+01 -0.80828324335E+03  0.81275758338E+03  0.84598308313E+02 0.  0.
         25    2    1    2    0    0 -0.75415532336E+02 -0.68123221572E+02 -0.52793402943E+03  0.55198747152E+03  0.12509018129E+03 0.  0.
        -24    2    1    2    0    0  0.84807996862E+02  0.70950887932E+02  0.80447714628E+03  0.81600964315E+03  0.80385533478E+02 0.  0.
        -11    1    3    3    0    0 -0.36877828538E+02 -0.16488969306E+02 -0.66489754749E+03  0.66612356887E+03  0.00000000000E+00 0.  1.
         12    1    3    3    0    0  0.27485364013E+02  0.13661302945E+02 -0.14338569587E+03  0.14663401451E+03  0.00000000000E+00 0. -1.
         13    1    5    5    0    0  0.11436208815E+02 -0.66037613345E+01  0.18030093549E+02  0.22349067300E+02  0.00000000000E+00 0. -1.
        -14    1    5    5    0    0  0.73371788047E+02  0.77554649267E+02  0.78644705273E+03  0.79366057585E+03  0.00000000000E+00 0.  1.
          5    1    4    4  501    0 -0.35836569856E+02 -0.54321641983E+02 -0.85389954528E+02  0.10744308848E+03  0.41800000000E+01 0.  1.
         -5    1    4    4    0  501 -0.39578962480E+02 -0.13801579588E+02 -0.44254407490E+03  0.44454438305E+03  0.41800000000E+01 0.  1.
</event>
<event>
11    1  0.8039394E-009  0.2330181E+03  0.7561462E-02  0.1033356E+00
         22   -1    0    0    0    0  0.00000000000E+00  0.00000000000E+00  0.20803436110E+04  0.20803436110E+04  0.00000000000E+00 0. -1.
         22   -1    0    0    0    0 -0.00000000000E+00 -0.00000000000E+00 -0.51808172301E+03  0.51808172301E+03  0.00000000000E+00 0. -1.
        -24    2    1    2    0    0  0.19684969138E+03 -0.19618515966E+02 -0.48055528758E+03  0.52743574593E+03  0.90113231537E+02 0.  0.
         25    2    1    2    0    0 -0.15343417726E+03  0.20941306214E+02  0.78454234145E+03  0.80940430707E+03  0.12509221283E+03 0.  0.
         24    2    1    2    0    0 -0.43415514122E+02 -0.13227902477E+01  0.12582748341E+04  0.12615852811E+04  0.80344299668E+02 0.  0.
        -11    1    5    5    0    0 -0.56277733752E+02 -0.19840271303E+02  0.60837914894E+03  0.61129862469E+03  0.00000000000E+00 0.  1.
         12    1    5    5    0    0  0.12862219630E+02  0.18517481055E+02  0.64989568521E+03  0.65028665637E+03  0.00000000000E+00 0. -1.
         13    1    3    3    0    0  0.18384449611E+03 -0.36262894969E+02 -0.46459444683E+03  0.50096087305E+03  0.00000000000E+00 0. -1.
        -14    1    3    3    0    0  0.13005195270E+02  0.16644379003E+02 -0.15960840742E+02  0.26474872872E+02  0.00000000000E+00 0.  1.
          5    1    4    4  501    0 -0.31074972987E+01 -0.31383338489E+02  0.63904112068E+02  0.71384721148E+02  0.41800000000E+01 0.  1.
         -5    1    4    4    0  501 -0.15032667996E+03  0.52324644703E+02  0.72063822939E+03  0.73801958592E+03  0.41800000000E+01 0.  1.
</event>
<event>
11    1  0.8039394E-009  0.4357876E+03  0.7561462E-02  0.9549693E-01
         22   -1    0    0    0    0  0.00000000000E+00  0.00000000000E+00  0.28132778027E+03  0.28132778027E+03  0.00000000000E+00 0. -1.
         22   -1    0    0    0    0 -0.00000000000E+00 -0.00000000000E+00 -0.15033379484E+04  0.15033379484E+04  0.00000000000E+00 0. -1.
         24    2    1    2    0    0  0.20889592483E+03  0.34602511676E+03 -0.80252969034E+03  0.90216841663E+03  0.80517446768E+02 0.  0.
         25    2    1    2    0    0 -0.21755336440E+02 -0.50076141764E+03 -0.29601276752E+03  0.59540406493E+03  0.12508856839E+03 0.  0.
        -24    2    1    2    0    0 -0.18714058839E+03  0.15473630088E+03 -0.12346771028E+03  0.28709324712E+03  0.90627448522E+02 0.  0.
        -13    1    3    3    0    0  0.50038764443E+02  0.15926218101E+03 -0.32204237964E+03  0.36273904468E+03  0.00000000000E+00 0.  1.
         14    1    3    3    0    0  0.15885716039E+03  0.18676293575E+03 -0.48048731070E+03  0.53942937195E+03  0.00000000000E+00 0. -1.
         13    1    5    5    0    0 -0.13671436251E+03  0.85407750930E+02 -0.12059596823E+03  0.20131738223E+03  0.00000000000E+00 0. -1.
        -14    1    5    5    0    0 -0.50426225876E+02  0.69328549949E+02 -0.28717420541E+01  0.85775864884E+02  0.00000000000E+00 0.  1.
          5    1    4    4  501    0  0.32148040434E+02 -0.38123972200E+03 -0.19256217904E+03  0.42833968685E+03  0.41800000000E+01 0. -1.
         -5    1    4    4    0  501 -0.53903376874E+02 -0.11952169564E+03 -0.10345058848E+03  0.16706437808E+03  0.41800000000E+01 0. -1.
</event>
<event>
11    1  0.8039394E-009  0.1559032E+03  0.7561462E-02  0.1090995E+00
         22   -1    0    0    0    0  0.00000000000E+00  0.00000000000E+00  0.30178898354E+03  0.30178898354E+03  0.00000000000E+00 0. -1.
         22   -1    0    0    0    0 -0.00000000000E+00 -0.00000000000E+00 -0.11656526637E+04  0.11656526637E+04  0.00000000000E+00 0. -1.
        -24    2    1    2    0    0 -0.27620550372E+02  0.98650213187E+02 -0.76980486509E+03  0.78079179712E+03  0.80879792031E+02 0.  0.
         25    2    1    2    0    0  0.56618388185E+02 -0.53049818942E+02 -0.36772054091E+03  0.39608874983E+03  0.12509187168E+03 0.  0.
         24    2    1    2    0    0 -0.28997837813E+02 -0.45600394245E+02  0.27366172588E+03  0.29056110027E+03  0.81331065543E+02 0.  0.
        -11    1    5    5    0    0 -0.32659649489E+02 -0.46843839700E+01  0.33899277545E+02  0.47304938178E+02  0.00000000000E+00 0.  1.
         12    1    5    5    0    0  0.36618116760E+01 -0.40916010275E+02  0.23976244834E+03  0.24325616209E+03  0.00000000000E+00 0. -1.
         11    1    3    3    0    0 -0.30977115535E+01  0.10474866249E+03 -0.64452760908E+03  0.65299136057E+03  0.00000000000E+00 0. -1.
        -12    1    3    3    0    0 -0.24522838818E+02 -0.60984493071E+01 -0.12527725602E+03  0.12780043655E+03  0.00000000000E+00 0.  1.
          5    1    4    4  501    0  0.61791394687E+02 -0.32354776968E+01 -0.67394329576E+02  0.91586641123E+02  0.41800000000E+01 0.  1.
         -5    1    4    4    0  501 -0.51730065015E+01 -0.49814341246E+02 -0.30032621134E+03  0.30450210871E+03  0.41800000000E+01 0.  1.
</event>
<event>
11    1  0.8039394E-009  0.1347383E+03  0.7561462E-02  0.1113580E+00
         22   -1    0    0    0    0  0.00000000000E+00  0.00000000000E+00  0.46231925506E+03  0.46231925506E+03  0.00000000000E+00 0. -1.
         22   -1    0    0    0    0 -0.00000000000E+00 -0.00000000000E+00 -0.20332438317E+03  0.20332438317E+03  0.00000000000E+00 0. -1.
         24    2    1    2    0    0 -0.37212940086E+02 -0.60641292371E+00 -0.10289040891E+03  0.15179211914E+03  0.10521045832E+03 0.  0.
         25    2    1    2    0    0  0.99066556285E+02 -0.70368854986E+01  0.24858697704E+02  0.16164435372E+03  0.12508893598E+03 0.  0.
        -24    2    1    2    0    0 -0.61853616199E+02  0.76432984223E+01  0.33702658310E+03  0.35220716537E+03  0.81109060993E+02 0.  0.
        -13    1    3    3    0    0  0.84874473521E+01  0.44325842451E+02 -0.58252882962E+02  0.73689995555E+02  0.00000000000E+00 0.  1.
         14    1    3    3    0    0 -0.45700387438E+02 -0.44932255374E+02 -0.44637525950E+02  0.78102123582E+02  0.00000000000E+00 0. -1.
         13    1    5    5    0    0 -0.77914683030E+02  0.43856344950E+01  0.31629890110E+03  0.32578355769E+03  0.00000000000E+00 0. -1.
        -14    1    5    5    0    0  0.16061066831E+02  0.32576639273E+01  0.20727681999E+02  0.26423607684E+02  0.00000000000E+00 0.  1.
          5    1    4    4  501    0 -0.62802432848E+00  0.36276914965E+02 -0.22616479315E+02  0.42957962132E+02  0.41800000000E+01 0. -1.
         -5    1    4    4    0  501  0.99694580614E+02 -0.43313800464E+02  0.47475177019E+02  0.11868639158E+03  0.41800000000E+01 0. -1.
</event>
<event>
11    1  0.8039394E-009  0.3213920E+03  0.7561462E-02  0.9915232E-01
         22   -1    0    0    0    0  0.00000000000E+00  0.00000000000E+00  0.25101184673E+03  0.25101184673E+03  0.00000000000E+00 0.  1.
         22   -1    0    0    0    0 -0.00000000000E+00 -0.00000000000E+00 -0.41639702293E+04  0.41639702293E+04  0.00000000000E+00 0. -1.
         24    2    1    2    0    0 -0.29467017222E+03 -0.52692996200E+02 -0.34950336385E+04  0.35087223194E+04  0.79152498333E+02 0.  0.
         25    2    1    2    0    0  0.27158375130E+03  0.64763858536E+02 -0.61793567506E+03  0.68952495785E+03  0.12509227651E+03 0.  0.
        -24    2    1    2    0    0  0.23086420924E+02 -0.12070862336E+02  0.20001093107E+03  0.21673479873E+03  0.79315268915E+02 0.  0.
        -13    1    3    3    0    0 -0.11885134117E+03  0.15768132769E+02 -0.15021948394E+04  0.15069716689E+04  0.00000000000E+00 0.  1.
         14    1    3    3    0    0 -0.17581883105E+03 -0.68461128969E+02 -0.19928387991E+04  0.20017506505E+04  0.00000000000E+00 0. -1.
         11    1    5    5    0    0  0.28615248348E+02 -0.20800580945E+02  0.29926381762E+02  0.46336647818E+02  0.00000000000E+00 0. -1.
        -12    1    5    5    0    0 -0.55288274243E+01  0.87297186088E+01  0.17008454931E+03  0.17039815091E+03  0.00000000000E+00 0.  1.
          5    1    4    4  501    0  0.55810813410E+02  0.61955882856E+02 -0.24251362900E+03  0.25648335417E+03  0.41800000000E+01 0.  1.
         -5    1    4    4    0  501  0.21577293789E+03  0.28079756806E+01 -0.37542204606E+03  0.43304160369E+03  0.41800000000E+01 0.  1.
</event>
<event>
11    1  0.8039394E-009  0.2883751E+03  0.7561462E-02  0.1005235E+00
         22   -1    0    0    0    0  0.00000000000E+00  0.00000000000E+00  0.40313550377E+03  0.40313550377E+03  0.00000000000E+00 0.  1.
         22   -1    0    0    0    0 -0.00000000000E+00 -0.00000000000E+00 -0.44874623170E+03  0.44874623170E+03  0.00000000000E+00 0.  1.
         24    2    1    2    0    0  0.29332759663E+02 -0.93286446137E+02 -0.21329206336E+03  0.24802192647E+03  0.80365414770E+02 0.  0.
         25    2    1    2    0    0 -0.42210273507E+02  0.31573326500E+03  0.86215933480E+02  0.35291814330E+03  0.12509527118E+03 0.  0.
        -24    2    1    2    0    0  0.12877513844E+02 -0.22244681886E+03  0.81465401955E+02  0.25094166571E+03  0.81772185298E+02 0.  0.
        -13    1    3    3    0    0 -0.30674582571E+01 -0.93972091290E+02 -0.15329905895E+03  0.17983538228E+03  0.00000000000E+00 0.  1.
         14    1    3    3    0    0  0.32400217920E+02  0.68564515349E+00 -0.59993004409E+02  0.68186544190E+02  0.00000000000E+00 0. -1.
         13    1    5    5    0    0 -0.30448241915E+02 -0.13448500992E+03  0.34073956115E+02  0.14203643129E+03  0.00000000000E+00 0. -1.
        -14    1    5    5    0    0  0.43325755759E+02 -0.87961808939E+02  0.47391445840E+02  0.10890523441E+03  0.00000000000E+00 0.  1.
          5    1    4    4  501    0  0.36738196357E+02  0.36303109298E+02  0.12170595280E+02  0.53227874330E+02  0.41800000000E+01 0.  1.
         -5    1    4    4    0  501 -0.78948469864E+02  0.27943015570E+03  0.74045338200E+02  0.29969026897E+03  0.41800000000E+01 0.  1.
</event>
<event>
11    1  0.8039394E-009  0.1553679E+03  0.7561462E-02  0.1091517E+00
         22   -1    0    0    0    0  0.00000000000E+00  0.00000000000E+00  0.13931353376E+04  0.13931353376E+04  0.00000000000E+00 0.  1.
         22   -1    0    0    0    0 -0.00000000000E+00 -0.00000000000E+00 -0.13248135272E+04  0.13248135272E+04  0.00000000000E+00 0. -1.
         24    2    1    2    0    0 -0.43822105903E+02 -0.88192393616E+02 -0.13032382297E+04  0.13094326217E+04  0.80533422287E+02 0.  0.
         25    2    1    2    0    0 -0.39824227213E+02  0.95496474045E+01  0.29856161848E+03  0.32628849661E+03  0.12509187885E+03 0.  0.
        -24    2    1    2    0    0  0.83646333115E+02  0.78642746211E+02  0.10729984216E+04  0.10822277465E+04  0.81913929930E+02 0.  0.
        -11    1    3    3    0    0  0.18705475675E+02 -0.11079470335E+02 -0.11377549512E+03  0.11583398799E+03  0.00000000000E+00 0.  1.
         12    1    3    3    0    0 -0.62527581577E+02 -0.77112923281E+02 -0.11894627346E+04  0.11935986337E+04  0.00000000000E+00 0. -1.
         11    1    5    5    0    0  0.73042031332E+01 -0.16325354753E+02  0.95087735513E+02  0.96755082741E+02  0.00000000000E+00 0. -1.
        -12    1    5    5    0    0  0.76342129982E+02  0.94968100964E+02  0.97791068608E+03  0.98547266373E+03  0.00000000000E+00 0.  1.
          5    1    4    4  501    0  0.35607980261E+02 -0.11561395250E+02  0.35432221114E+02  0.51715653447E+02  0.41800000000E+01 0.  1.
         -5    1    4    4    0  501 -0.75432207474E+02  0.21111042654E+02  0.26312939737E+03  0.27457284317E+03  0.41800000000E+01 0.  1.
</event>
<event>
11    1  0.8039394E-009  0.1331378E+03  0.7561462E-02  0.1115473E+00
         22   -1    0    0    0    0  0.00000000000E+00  0.00000000000E+00  0.11106058000E+04  0.11106058000E+04  0.00000000000E+00 0.  1.
         22   -1    0    0    0    0 -0.00000000000E+00 -0.00000000000E+00 -0.17208239972E+03  0.17208239972E+03  0.00000000000E+00 0.  1.
         24    2    1    2    0    0  0.62868857826E+01  0.44952812103E+02 -0.14705333074E+03  0.17357340568E+03  0.80266835169E+02 0.  0.
         25    2    1    2    0    0  0.11078863058E+02 -0.55548138458E+02  0.52073494598E+03  0.53853545915E+03  0.12508884805E+03 0.  0.
        -24    2    1    2    0    0 -0.17365748841E+02  0.10595326355E+02  0.56484178501E+03  0.57057933486E+03  0.78107010554E+02 0.  0.
        -13    1    3    3    0    0 -0.32115211390E+01  0.64133668660E+02 -0.13376612879E+03  0.14838065419E+03  0.00000000000E+00 0.  1.
         14    1    3    3    0    0  0.94984069216E+01 -0.19180856556E+02 -0.13287201950E+02  0.25192751496E+02  0.00000000000E+00 0. -1.
         13    1    5    5    0    0  0.20615834408E+02 -0.15790535556E+02  0.34226119655E+03  0.34324492758E+03  0.00000000000E+00 0. -1.
        -14    1    5    5    0    0 -0.37981583249E+02  0.26385861911E+02  0.22258058846E+03  0.22733440728E+03  0.00000000000E+00 0.  1.
          5    1    4    4  501    0 -0.50529542917E+02 -0.54482060101E+02  0.24983049722E+03  0.26068041607E+03  0.41800000000E+01 0. -1.
         -5    1    4    4    0  501  0.61608405975E+02 -0.10660783571E+01  0.27090444876E+03  0.27785504308E+03  0.41800000000E+01 0. -1.
</event>
<event>
11    1  0.8039394E-009  0.1297893E+03  0.7561462E-02  0.1119528E+00
         22   -1    0    0    0    0  0.00000000000E+00  0.00000000000E+00  0.75902014354E+03  0.75902014354E+03  0.00000000000E+00 0.  1.
         22   -1    0    0    0    0 -0.00000000000E+00 -0.00000000000E+00 -0.12742134621E+03  0.12742134621E+03  0.00000000000E+00 0. -1.
        -24    2    1    2    0    0  0.58477196086E+01  0.34585390251E+02 -0.91957890338E+02  0.12689584661E+03  0.80099670713E+02 0.  0.
         25    2    1    2    0    0 -0.16388858352E+02 -0.24462830385E+02  0.27387197792E+03  0.30252283750E+03  0.12508869721E+03 0.  0.
         24    2    1    2    0    0  0.10541138744E+02 -0.10122559866E+02  0.44968470975E+03  0.45702280564E+03  0.80249142442E+02 0.  0.
        -11    1    5    5    0    0  0.17003833944E+02 -0.38308595044E-01  0.44296091924E+03  0.44328716179E+03  0.00000000000E+00 0.  1.
         12    1    5    5    0    0 -0.64626952008E+01 -0.10084251271E+02  0.67237905128E+01  0.13735643844E+02  0.00000000000E+00 0. -1.
         13    1    3    3    0    0 -0.16214641307E+02  0.54455635546E+02 -0.51300868577E+02  0.76551354999E+02  0.00000000000E+00 0. -1.
        -14    1    3    3    0    0  0.22062360916E+02 -0.19870245295E+02 -0.40657021760E+02  0.50344491612E+02  0.00000000000E+00 0.  1.
          5    1    4    4  501    0 -0.11440496272E+02 -0.70903499539E+02  0.10514488132E+03  0.12740137232E+03  0.41800000000E+01 0.  1.
         -5    1    4    4    0  501 -0.49483620805E+01  0.46440669153E+02  0.16872709660E+03  0.17512146517E+03  0.41800000000E+01 0.  1.
</event>
<event>
11    1  0.8039394E-009  0.2384810E+03  0.7561462E-02  0.1030221E+00
         22   -1    0    0    0    0  0.00000000000E+00  0.00000000000E+00  0.11147406026E+04  0.11147406026E+04  0.00000000000E+00 0.  1.
         22   -1    0    0    0    0 -0.00000000000E+00 -0.00000000000E+00 -0.93398695341E+03  0.93398695341E+03  0.00000000000E+00 0.  1.
        -24    2    1    2    0    0  0.46706659015E+02 -0.12591473297E+02 -0.78362036377E+03  0.79025733397E+03  0.90031784288E+02 0.  0.
         25    2    1    2    0    0  0.13819029946E+03  0.10334653379E+03 -0.51110804173E+02  0.21917401370E+03  0.12509144282E+03 0.  0.
         24    2    1    2    0    0 -0.18489695847E+03 -0.90755060497E+02  0.10154848172E+04  0.10392962084E+04  0.80646317868E+02 0.  0.
        -13    1    5    5    0    0 -0.31952248604E+02 -0.82131069004E+01  0.34785362258E+03  0.34941457334E+03  0.00000000000E+00 0.  1.
         14    1    5    5    0    0 -0.15294470987E+03 -0.82541953596E+02  0.66763119457E+03  0.68988163503E+03  0.00000000000E+00 0. -1.
         11    1    3    3    0    0  0.45722696536E+02  0.24076960301E+02 -0.24504548750E+03  0.25043473389E+03  0.00000000000E+00 0. -1.
        -12    1    3    3    0    0  0.98396247866E+00 -0.36668433598E+02 -0.53857487627E+03  0.53982260008E+03  0.00000000000E+00 0.  1.
          5    1    4    4  501    0  0.12006325770E+03  0.22405927598E+02 -0.10693700807E+01  0.12221222277E+03  0.41800000000E+01 0. -1.
         -5    1    4    4    0  501  0.18127041756E+02  0.80940606196E+02 -0.50041434092E+02  0.96961790929E+02  0.41800000000E+01 0. -1.
</event>
<event>
11    1  0.8039394E-009  0.1466337E+03  0.7561462E-02  0.1100369E+00
         22   -1    0    0    0    0  0.00000000000E+00  0.00000000000E+00  0.93719299720E+03  0.93719299720E+03  0.00000000000E+00 0. -1.
         22   -1    0    0    0    0 -0.00000000000E+00 -0.00000000000E+00 -0.16417648550E+03  0.16417648550E+03  0.00000000000E+00 0.  1.
        -24    2    1    2    0    0 -0.76719945051E+02  0.16475326695E+02 -0.10347956065E+03  0.15317565969E+03  0.81224238327E+02 0.  0.
         25    2    1    2    0    0  0.66169532173E+02 -0.26168239648E+01  0.11440464081E+03  0.18196026357E+03  0.12504343615E+03 0.  0.
         24    2    1    2    0    0  0.10550412877E+02 -0.13858502730E+02  0.76209143154E+03  0.76623355943E+03  0.77634710492E+02 0.  0.
        -11    1    5    5    0    0  0.36438184773E+02 -0.29493551735E+01  0.19193544154E+03  0.19538590974E+03  0.00000000000E+00 0.  1.
         12    1    5    5    0    0 -0.25887771896E+02 -0.10909147557E+02  0.57015598999E+03  0.57084764969E+03  0.00000000000E+00 0. -1.
         13    1    3    3    0    0 -0.34049159310E+02  0.48404213577E+02 -0.47509571875E+02  0.75891188958E+02  0.00000000000E+00 0. -1.
        -14    1    3    3    0    0 -0.42670785740E+02 -0.31928886882E+02 -0.55969988777E+02  0.77284470736E+02  0.00000000000E+00 0.  1.
          5    1    4    4  501    0 -0.69582376610E+01  0.47036017071E+02  0.64904459806E+02  0.80565906412E+02  0.41800000000E+01 0. -1.
         -5    1    4    4    0  501  0.73127769834E+02 -0.49652841036E+02  0.49500181006E+02  0.10139435716E+03  0.41800000000E+01 0. -1.
</event>
<event>
11    1  0.8039394E-009  0.3710398E+03  0.7561462E-02  0.9739296E-01
         22   -1    0    0    0    0  0.00000000000E+00  0.00000000000E+00  0.41935681271E+03  0.41935681271E+03  0.00000000000E+00 0.  1.
         22   -1    0    0    0    0 -0.00000000000E+00 -0.00000000000E+00 -0.62033061663E+03  0.62033061663E+03  0.00000000000E+00 0. -1.
         24    2    1    2    0    0  0.17354067419E+03  0.30783453736E+03 -0.28942963103E+03  0.46400917154E+03  0.81587572360E+02 0.  0.
         25    2    1    2    0    0 -0.29451576601E+02 -0.36215775654E+03  0.52178216377E+01  0.38431813758E+03  0.12509024433E+03 0.  0.
        -24    2    1    2    0    0 -0.14408909759E+03  0.54323219171E+02  0.83238005463E+02  0.19136012022E+03  0.77313969455E+02 0.  0.
        -13    1    3    3    0    0  0.11366728955E+03  0.18835972835E+03 -0.12831778670E+03  0.25468626654E+03  0.00000000000E+00 0.  1.
         14    1    3    3    0    0  0.59873384636E+02  0.11947480901E+03 -0.16111184432E+03  0.20932290500E+03  0.00000000000E+00 0. -1.
         11    1    5    5    0    0 -0.14912028394E+03  0.43793960582E+02  0.62399788836E+02  0.16747687516E+03  0.00000000000E+00 0. -1.
        -12    1    5    5    0    0  0.50311863534E+01  0.10529258589E+02  0.20838216626E+02  0.23883245063E+02  0.00000000000E+00 0.  1.
          5    1    4    4  501    0 -0.15758832513E+02 -0.33665096383E+02  0.38689006044E+02  0.53814413546E+02  0.41800000000E+01 0. -1.
         -5    1    4    4    0  501 -0.13692744088E+02 -0.32849266015E+03 -0.33471184406E+02  0.33050372403E+03  0.41800000000E+01 0. -1.
</event>
<event>
11    1  0.8039394E-009  0.2251929E+03  0.7561462E-02  0.1038012E+00
         22   -1    0    0    0    0  0.00000000000E+00  0.00000000000E+00  0.17329136824E+04  0.17329136824E+04  0.00000000000E+00 0. -1.
         22   -1    0    0    0    0 -0.00000000000E+00 -0.00000000000E+00 -0.50917482274E+02  0.50917482274E+02  0.00000000000E+00 0. -1.
         24    2    1    2    0    0 -0.44452986022E+02  0.27941497635E+01  0.10900792942E+03  0.14170472518E+03  0.78826551501E+02 0.  0.
         25    2    1    2    0    0  0.10539563193E+03  0.17033933586E+03  0.53142431252E+03  0.58153507259E+03  0.12509001618E+03 0.  0.
        -24    2    1    2    0    0 -0.60942645910E+02 -0.17313348563E+03  0.10415639582E+04  0.10605913669E+04  0.79431471226E+02 0.  0.
        -11    1    3    3    0    0 -0.17618527516E+02  0.28741959162E+02  0.96687274339E+02  0.10239600455E+03  0.00000000000E+00 0.  1.
         12    1    3    3    0    0 -0.26834458506E+02 -0.25947809398E+02  0.12320655084E+02  0.39308720630E+02  0.00000000000E+00 0. -1.
         13    1    5    5    0    0 -0.64417883338E+02 -0.70078287934E+02  0.43147034999E+03  0.44184532707E+03  0.00000000000E+00 0. -1.
        -14    1    5    5    0    0  0.34752374278E+01 -0.10305519769E+03  0.61009360822E+03  0.61874603986E+03  0.00000000000E+00 0.  1.
          5    1    4    4  501    0  0.72035680502E+02  0.10595764970E+03  0.17017596763E+03  0.21305749260E+03  0.41800000000E+01 0.  1.
         -5    1    4    4    0  501  0.33359951430E+02  0.64381686169E+02  0.36124834488E+03  0.36847757999E+03  0.41800000000E+01 0.  1.
</event>
<event>
11    1  0.8039394E-009  0.1390015E+03  0.7561462E-02  0.1108678E+00
         22   -1    0    0    0    0  0.00000000000E+00  0.00000000000E+00  0.35382577315E+03  0.35382577315E+03  0.00000000000E+00 0.  1.
         22   -1    0    0    0    0 -0.00000000000E+00 -0.00000000000E+00 -0.19550494537E+04  0.19550494537E+04  0.00000000000E+00 0.  1.
         24    2    1    2    0    0  0.26562068220E+02 -0.17411584912E+02 -0.17780555576E+04  0.17803035164E+04  0.83608241598E+02 0.  0.
         25    2    1    2    0    0  0.28652034960E+02  0.44118415662E+02 -0.14061431901E+03  0.19541442265E+03  0.12508811359E+03 0.  0.
        -24    2    1    2    0    0 -0.55214103180E+02 -0.26706830750E+02  0.31744619601E+03  0.33315728777E+03  0.80373123827E+02 0.  0.
        -11    1    3    3    0    0  0.36520467564E+02 -0.39663409075E+02 -0.15521936531E+04  0.15531297651E+04  0.00000000000E+00 0.  1.
         12    1    3    3    0    0 -0.99583993443E+01  0.22251824163E+02 -0.22586190445E+03  0.22717375130E+03  0.00000000000E+00 0. -1.
         13    1    5    5    0    0  0.82488189892E+01 -0.33853110848E+02  0.79717899041E+02  0.87000112393E+02  0.00000000000E+00 0. -1.
        -14    1    5    5    0    0 -0.63462922169E+02  0.71462800980E+01  0.23772829697E+03  0.24615717538E+03  0.00000000000E+00 0.  1.
          5    1    4    4  501    0 -0.15191845452E+01 -0.41954960725E+02 -0.28918662562E+02  0.51149663689E+02  0.41800000000E+01 0. -1.
         -5    1    4    4    0  501  0.30171219505E+02  0.86073376388E+02 -0.11169565645E+03  0.14426475896E+03  0.41800000000E+01 0. -1.
</event>
<event>
11    1  0.8039394E-009  0.1852393E+03  0.7561462E-02  0.1065482E+00
         22   -1    0    0    0    0  0.00000000000E+00  0.00000000000E+00  0.27930802038E+03  0.27930802038E+03  0.00000000000E+00 0.  1.
         22   -1    0    0    0    0 -0.00000000000E+00 -0.00000000000E+00 -0.95567323709E+03  0.95567323709E+03  0.00000000000E+00 0.  1.
        -24    2    1    2    0    0  0.24007953167E+02  0.34177259831E+01 -0.82911140972E+03  0.83332377655E+03  0.80091973276E+02 0.  0.
         25    2    1    2    0    0  0.29618940234E+02 -0.13079519319E+03  0.48229395347E+01  0.18345293490E+03  0.12508818647E+03 0.  0.
         24    2    1    2    0    0 -0.53626893401E+02  0.12737746721E+03  0.14792325346E+03  0.21820454602E+03  0.81431395279E+02 0.  0.
        -13    1    5    5    0    0 -0.27002676137E+02  0.11647718755E+03  0.14691134249E+03  0.18941758707E+03  0.00000000000E+00 0.  1.
         14    1    5    5    0    0 -0.26624217264E+02  0.10900279663E+02  0.10119109732E+01  0.28786958948E+02  0.00000000000E+00 0. -1.
         13    1    3    3    0    0 -0.18671032094E+02  0.37381573019E+01 -0.58282763815E+02  0.61314450315E+02  0.00000000000E+00 0. -1.
        -14    1    3    3    0    0  0.42678985261E+02 -0.32043131885E+00 -0.77082864590E+03  0.77200932624E+03  0.00000000000E+00 0.  1.
          5    1    4    4  501    0  0.37882257089E+01  0.20702262458E+02 -0.18025629560E+02  0.28023740756E+02  0.41800000000E+01 0. -1.
         -5    1    4    4    0  501  0.25830714525E+02 -0.15149745565E+03  0.22848569095E+02  0.15542919414E+03  0.41800000000E+01 0. -1.
</event>
<event>
11    1  0.8039394E-009  0.2558725E+03  0.7561462E-02  0.1020817E+00
         22   -1    0    0    0    0  0.00000000000E+00  0.00000000000E+00  0.21641364177E+03  0.21641364177E+03  0.00000000000E+00 0. -1.
         22   -1    0    0    0    0 -0.00000000000E+00 -0.00000000000E+00 -0.93551804170E+03  0.93551804170E+03  0.00000000000E+00 0. -1.
        -24    2    1    2    0    0  0.15139461486E+03  0.14916262495E+03 -0.58668706856E+03  0.62882447316E+03  0.77773282925E+02 0.  0.
         25    2    1    2    0    0 -0.18454663370E+03 -0.17779560141E+03 -0.24686988177E+03  0.37717320773E+03  0.12508458823E+03 0.  0.
         24    2    1    2    0    0  0.33152018841E+02  0.28632976456E+02  0.11445255041E+03  0.14593400258E+03  0.79236627398E+02 0.  0.
        -13    1    5    5    0    0 -0.71279348037E+01  0.57863607843E+01 -0.97423065100E+01  0.13386633700E+02  0.00000000000E+00 0.  1.
         14    1    5    5    0    0  0.40279953645E+02  0.22846615672E+02  0.12419485692E+03  0.13254736888E+03  0.00000000000E+00 0. -1.
         11    1    3    3    0    0  0.79438246599E+02  0.10499551889E+03 -0.44317526545E+03  0.46231894826E+03  0.00000000000E+00 0. -1.
        -12    1    3    3    0    0  0.71956368261E+02  0.44167106067E+02 -0.14351180311E+03  0.16650552490E+03  0.00000000000E+00 0.  1.
          5    1    4    4  501    0 -0.83102090426E+02 -0.84252162225E+02 -0.19803354439E+03  0.23073608599E+03  0.41800000000E+01 0. -1.
         -5    1    4    4    0  501 -0.10144454328E+03 -0.93543439185E+02 -0.48836337378E+02  0.14643712174E+03  0.41800000000E+01 0. -1.
</event>
<event>
11    1  0.8039394E-009  0.1724118E+03  0.7561462E-02  0.1075952E+00
         22   -1    0    0    0    0  0.00000000000E+00  0.00000000000E+00  0.76953584568E+03  0.76953584568E+03  0.00000000000E+00 0. -1.
         22   -1    0    0    0    0 -0.00000000000E+00 -0.00000000000E+00 -0.14633321137E+04  0.14633321137E+04  0.00000000000E+00 0. -1.
         24    2    1    2    0    0 -0.10269952667E+03 -0.61674061549E+02 -0.12652442711E+04  0.12733870563E+04  0.79502497159E+02 0.  0.
         25    2    1    2    0    0  0.10609087671E+03  0.33371978059E+02 -0.15462094444E+03  0.22786618494E+03  0.12508556566E+03 0.  0.
        -24    2    1    2    0    0 -0.33913500366E+01  0.28302083489E+02  0.72606894747E+03  0.73161471816E+03  0.85272915725E+02 0.  0.
        -11    1    3    3    0    0 -0.31910532685E+01  0.73756176200E+01 -0.35840880793E+03  0.35849889283E+03  0.00000000000E+00 0.  1.
         12    1    3    3    0    0 -0.99508473402E+02 -0.69049679169E+02 -0.90683546315E+03  0.91488816349E+03  0.00000000000E+00 0. -1.
         11    1    5    5    0    0 -0.32105392966E+02  0.36983742859E+02  0.25941075591E+03  0.26399335933E+03  0.00000000000E+00 0. -1.
        -12    1    5    5    0    0  0.28714042930E+02 -0.86816593695E+01  0.46665819157E+03  0.46762135882E+03  0.00000000000E+00 0.  1.
          5    1    4    4  501    0  0.10551897617E+03 -0.11969801661E+02 -0.14746207446E+03  0.18176926662E+03  0.41800000000E+01 0. -1.
         -5    1    4    4    0  501  0.57190053675E+00  0.45341779721E+02 -0.71588699811E+01  0.46096918312E+02  0.41800000000E+01 0. -1.
</event>
<event>
11    1  0.8039394E-009  0.1825943E+03  0.7561462E-02  0.1067563E+00
         22   -1    0    0    0    0  0.00000000000E+00  0.00000000000E+00  0.17968473896E+04  0.17968473896E+04  0.00000000000E+00 0. -1.
         22   -1    0    0    0    0 -0.00000000000E+00 -0.00000000000E+00 -0.75164577869E+03  0.75164577869E+03  0.00000000000E+00 0. -1.
         24    2    1    2    0    0 -0.12850070314E+03  0.30739306988E+02 -0.66290997643E+03  0.68062753592E+03  0.79667246163E+02 0.  0.
         25    2    1    2    0    0  0.12204294321E+03 -0.11559106381E+03  0.63260439252E+02  0.21887333118E+03  0.12509147816E+03 0.  0.
        -24    2    1    2    0    0  0.64577599299E+01  0.84851756826E+02  0.16448511481E+04  0.16489923012E+04  0.79992416494E+02 0.  0.
        -13    1    3    3    0    0 -0.18261541757E+02  0.82874485281E+01 -0.30023690889E+03  0.30090591083E+03  0.00000000000E+00 0.  1.
         14    1    3    3    0    0 -0.11023916138E+03  0.22451858460E+02 -0.36267306753E+03  0.37972162509E+03  0.00000000000E+00 0. -1.
         13    1    5    5    0    0 -0.23961223238E+02  0.68124495471E+02  0.13782326999E+04  0.13801233503E+04  0.00000000000E+00 0. -1.
        -14    1    5    5    0    0  0.30418983168E+02  0.16727261355E+02  0.26661844825E+03  0.26886895090E+03  0.00000000000E+00 0.  1.
          5    1    4    4  501    0  0.79920936902E+02  0.49089008261E+01  0.11229056774E+02  0.80963063051E+02  0.41800000000E+01 0.  1.
         -5    1    4    4    0  501  0.42122006307E+02 -0.12049996464E+03  0.52031382477E+02  0.13791026813E+03  0.41800000000E+01 0.  1.
</event>
<event>
11    1  0.8039394E-009  0.1269268E+03  0.7561462E-02  0.1123104E+00
         22   -1    0    0    0    0  0.00000000000E+00  0.00000000000E+00  0.12565200449E+03  0.12565200449E+03  0.00000000000E+00 0. -1.
         22   -1    0    0    0    0 -0.00000000000E+00 -0.00000000000E+00 -0.18066184608E+04  0.18066184608E+04  0.00000000000E+00 0. -1.
         24    2    1    2    0    0 -0.24784815303E+02 -0.93189311836E+01 -0.16490968200E+04  0.16512276282E+04  0.79569020364E+02 0.  0.
         25    2    1    2    0    0  0.75189273779E+01 -0.79443467931E+01 -0.10865722865E+03  0.16605309307E+03  0.12509032523E+03 0.  0.
        -24    2    1    2    0    0  0.17265887925E+02  0.17263277977E+02  0.76787592325E+02  0.11498974398E+03  0.82037645217E+02 0.  0.
        -13    1    3    3    0    0 -0.52861425369E+02 -0.62765600240E+01 -0.12499263268E+04  0.12510593702E+04  0.00000000000E+00 0.  1.
         14    1    3    3    0    0  0.28076610066E+02 -0.30423711596E+01 -0.39917049324E+03  0.40016825802E+03  0.00000000000E+00 0. -1.
         11    1    5    5    0    0 -0.27871143257E+02  0.46828837413E+01  0.57975206834E+02  0.64496935075E+02  0.00000000000E+00 0. -1.
        -12    1    5    5    0    0  0.45137031183E+02  0.12580394235E+02  0.18812385491E+02  0.50492808903E+02  0.00000000000E+00 0.  1.
          5    1    4    4  501    0  0.26863691113E+02 -0.61273591373E+02 -0.72035325371E+02  0.98400566062E+02  0.41800000000E+01 0.  1.
         -5    1    4    4    0  501 -0.19344763735E+02  0.53329244580E+02 -0.36621903278E+02  0.67652527012E+02  0.41800000000E+01 0.  1.
</event>
<event>
11    1  0.8039394E-009  0.1461812E+03  0.7561462E-02  0.1100846E+00
         22   -1    0    0    0    0  0.00000000000E+00  0.00000000000E+00  0.39017705645E+03  0.39017705645E+03  0.00000000000E+00 0. -1.
         22   -1    0    0    0    0 -0.00000000000E+00 -0.00000000000E+00 -0.48061851229E+03  0.48061851229E+03  0.00000000000E+00 0.  1.
        -24    2    1    2    0    0 -0.61351536356E+02 -0.34749363889E+02 -0.35335952592E+03  0.36925622876E+03  0.80719753601E+02 0.  0.
         25    2    1    2    0    0  0.51157039784E+02  0.10738022180E+03 -0.41643906188E+02  0.17756627522E+03  0.12509201581E+03 0.  0.
         24    2    1    2    0    0  0.10194496572E+02 -0.72630857913E+02  0.30456197626E+03  0.32397306475E+03  0.82591646205E+02 0.  0.
        -13    1    5    5    0    0  0.23974397013E+01 -0.25806325053E+02  0.13801477769E+02  0.29363155799E+02  0.00000000000E+00 0.  1.
         14    1    5    5    0    0  0.77970568703E+01 -0.46824532860E+02  0.29076049849E+03  0.29460990896E+03  0.00000000000E+00 0. -1.
         13    1    3    3    0    0  0.93841051113E+01 -0.12939413628E+02 -0.12063622564E+02  0.20025504816E+02  0.00000000000E+00 0. -1.
        -14    1    3    3    0    0 -0.70735641467E+02 -0.21809950261E+02 -0.34129590335E+03  0.34923072395E+03  0.00000000000E+00 0.  1.
          5    1    4    4  501    0  0.30478151491E+02 -0.34125613349E+01  0.30683581642E+02  0.43583458738E+02  0.41800000000E+01 0. -1.
         -5    1    4    4    0  501  0.20678888293E+02  0.11079278314E+03 -0.72327487830E+02  0.13398281648E+03  0.41800000000E+01 0. -1.
</event>
<event>
11    1  0.8039394E-009  0.1455461E+03  0.7561462E-02  0.1101519E+00
         22   -1    0    0    0    0  0.00000000000E+00  0.00000000000E+00  0.92659602114E+03  0.92659602114E+03  0.00000000000E+00 0. -1.
         22   -1    0    0    0    0 -0.00000000000E+00 -0.00000000000E+00 -0.30622083805E+03  0.30622083805E+03  0.00000000000E+00 0.  1.
         24    2    1    2    0    0  0.90650914973E+01 -0.71374645570E+02 -0.23818795010E+03  0.26089269105E+03  0.78453685420E+02 0.  0.
         25    2    1    2    0    0 -0.39300628759E+02  0.96364706300E+02  0.68486434564E+02  0.17654506965E+03  0.12508826427E+03 0.  0.
        -24    2    1    2    0    0  0.30235537262E+02 -0.24990060731E+02  0.79007669863E+03  0.79537909848E+03  0.82873576837E+02 0.  0.
        -13    1    3    3    0    0 -0.28351452820E+00 -0.66805692712E+01 -0.15477287898E+03  0.15491725035E+03  0.00000000000E+00 0.  1.
         14    1    3    3    0    0  0.93486060255E+01 -0.64694076298E+02 -0.83415071121E+02  0.10597544071E+03  0.00000000000E+00 0. -1.
         13    1    5    5    0    0  0.43471385468E+02  0.42152317009E+01  0.65868865565E+03  0.66013504271E+03  0.00000000000E+00 0. -1.
        -14    1    5    5    0    0 -0.13235848206E+02 -0.29205292432E+02  0.13138804298E+03  0.13524405577E+03  0.00000000000E+00 0.  1.
          5    1    4    4  501    0 -0.54440105364E+02  0.45812249186E+02  0.93849946149E+02  0.11784639171E+03  0.41800000000E+01 0.  1.
         -5    1    4    4    0  501  0.15139476605E+02  0.50552457114E+02 -0.25363511584E+02  0.58698677941E+02  0.41800000000E+01 0.  1.
</event>
<event>
11    1  0.8039394E-009  0.1847549E+03  0.7561462E-02  0.1065860E+00
         22   -1    0    0    0    0  0.00000000000E+00  0.00000000000E+00  0.32415680433E+04  0.32415680433E+04  0.00000000000E+00 0. -1.
         22   -1    0    0    0    0 -0.00000000000E+00 -0.00000000000E+00 -0.20514959092E+03  0.20514959092E+03  0.00000000000E+00 0. -1.
        -24    2    1    2    0    0  0.14178109781E+01 -0.12763385774E+03 -0.11474923048E+03  0.19061252396E+03  0.82905588271E+02 0.  0.
         25    2    1    2    0    0  0.34381292007E+02  0.19370087512E+03  0.21266777152E+03  0.31555890067E+03  0.12509091288E+03 0.  0.
         24    2    1    2    0    0 -0.35799102985E+02 -0.66067017387E+02  0.29384999113E+04  0.29405462096E+04  0.79899031558E+02 0.  0.
        -13    1    5    5    0    0  0.11230884934E+02 -0.53746580390E+02  0.10638600717E+04  0.10652760581E+04  0.00000000000E+00 0.  1.
         14    1    5    5    0    0 -0.47029987920E+02 -0.12320436996E+02  0.18746398396E+04  0.18752701515E+04  0.00000000000E+00 0. -1.
         13    1    3    3    0    0 -0.15933537025E+02 -0.24586547740E+02 -0.71955789960E+02  0.77691773315E+02  0.00000000000E+00 0. -1.
        -14    1    3    3    0    0  0.17351348003E+02 -0.10304731000E+03 -0.42793440516E+02  0.11292075064E+03  0.00000000000E+00 0.  1.
          5    1    4    4  501    0  0.16865504470E+02  0.17076152059E+03  0.98867516206E+02  0.19808129724E+03  0.41800000000E+01 0.  1.
         -5    1    4    4    0  501  0.17515787537E+02  0.22939354537E+02  0.11380025531E+03  0.11747760343E+03  0.41800000000E+01 0.  1.
</event>
<event>
11    1  0.8039394E-009  0.1515031E+03  0.7561462E-02  0.1095353E+00
         22   -1    0    0    0    0  0.00000000000E+00  0.00000000000E+00  0.58920922075E+03  0.58920922075E+03  0.00000000000E+00 0. -1.
         22   -1    0    0    0    0 -0.00000000000E+00 -0.00000000000E+00 -0.26892874193E+04  0.26892874193E+04  0.00000000000E+00 0. -1.
         24    2    1    2    0    0 -0.15852128990E+01  0.13913944910E+02 -0.25094534341E+04  0.25107848089E+04  0.80546307834E+02 0.  0.
         25    2    1    2    0    0  0.26574525532E+02  0.68292954252E+02 -0.14253089370E+03  0.20330457741E+03  0.12509021756E+03 0.  0.
        -24    2    1    2    0    0 -0.24989312633E+02 -0.82206899162E+02  0.55190612927E+03  0.56440725377E+03  0.81072390927E+02 0.  0.
        -11    1    3    3    0    0 -0.40889460614E+02  0.10903496057E+02 -0.12736203772E+04  0.12743232319E+04  0.00000000000E+00 0.  1.
         12    1    3    3    0    0  0.39304247715E+02  0.30104488528E+01 -0.12358330569E+04  0.12364615769E+04  0.00000000000E+00 0. -1.
         11    1    5    5    0    0 -0.21593287799E+02 -0.35862767449E+01  0.29273657606E+03  0.29355380158E+03  0.00000000000E+00 0. -1.
        -12    1    5    5    0    0 -0.33960248347E+01 -0.78620622417E+02  0.25916955321E+03  0.27085345219E+03  0.00000000000E+00 0.  1.
          5    1    4    4  501    0 -0.40933394806E+01  0.53605133045E+01 -0.13217411908E+03  0.13241208663E+03  0.41800000000E+01 0.  1.
         -5    1    4    4    0  501  0.30667865013E+02  0.62932440948E+02 -0.10356774620E+02  0.70892490777E+02  0.41800000000E+01 0.  1.
</event>
<event>
11    1  0.8039394E-009  0.1376014E+03  0.7561462E-02  0.1110267E+00
         22   -1    0    0    0    0  0.00000000000E+00  0.00000000000E+00  0.14281421616E+03  0.14281421616E+03  0.00000000000E+00 0.  1.
         22   -1    0    0    0    0 -0.00000000000E+00 -0.00000000000E+00 -0.12691226748E+04  0.12691226748E+04  0.00000000000E+00 0.  1.
        -24    2    1    2    0    0 -0.35616369421E+02 -0.19033483971E+02 -0.10447744066E+04  0.10480181680E+04  0.71817271562E+02 0.  0.
         25    2    1    2    0    0  0.65932271777E+02  0.63533879975E+02 -0.17138606755E+03  0.23109453603E+03  0.12509149478E+03 0.  0.
         24    2    1    2    0    0 -0.30315902356E+02 -0.44500396004E+02  0.89852015466E+02  0.13282418697E+03  0.81667256471E+02 0.  0.
        -11    1    5    5    0    0 -0.23238855758E+02  0.13471329031E+01  0.82665396110E+02  0.85880305647E+02  0.00000000000E+00 0.  1.
         12    1    5    5    0    0 -0.70770465979E+01 -0.45847528907E+02  0.71866193557E+01  0.46943881318E+02  0.00000000000E+00 0. -1.
         11    1    3    3    0    0 -0.13567392105E+02  0.19831469636E+02 -0.13324527151E+03  0.13539447439E+03  0.00000000000E+00 0. -1.
        -12    1    3    3    0    0 -0.22048977316E+02 -0.38864953607E+02 -0.91152913505E+03  0.91262369357E+03  0.00000000000E+00 0.  1.
          5    1    4    4  501    0  0.29557312570E+02 -0.28947397977E+01  0.12260113845E+02  0.32400571543E+02  0.41800000000E+01 0.  1.
         -5    1    4    4    0  501  0.36374959207E+02  0.66428619773E+02 -0.18364618140E+03  0.19869396449E+03  0.41800000000E+01 0.  1.
</event>
<event>
11    1  0.8039394E-009  0.1334998E+03  0.7561462E-02  0.1115042E+00
         22   -1    0    0    0    0  0.00000000000E+00  0.00000000000E+00  0.63984712465E+02  0.63984712465E+02  0.00000000000E+00 0.  1.
         22   -1    0    0    0    0 -0.00000000000E+00 -0.00000000000E+00 -0.13208894094E+04  0.13208894094E+04  0.00000000000E+00 0.  1.
        -24    2    1    2    0    0 -0.13399620228E+02 -0.18033078935E+02 -0.91547329736E+03  0.91906983470E+03  0.78059343493E+02 0.  0.
         25    2    1    2    0    0  0.95952426033E+00 -0.29301009408E+02 -0.34727548278E+03  0.37027980275E+03  0.12508957410E+03 0.  0.
         24    2    1    2    0    0  0.12440095967E+02  0.47334088343E+02  0.58440832217E+01  0.95524484400E+02  0.81826046612E+02 0.  0.
        -13    1    5    5    0    0  0.28315902583E+02  0.51814852771E+02  0.30032994209E+02  0.66246132324E+02  0.00000000000E+00 0.  1.
         14    1    5    5    0    0 -0.15875806616E+02 -0.44807644273E+01 -0.24188910987E+02  0.29278352076E+02  0.00000000000E+00 0. -1.
         13    1    3    3    0    0  0.46027461002E+00 -0.22925328876E+02 -0.74067015067E+02  0.77535187352E+02  0.00000000000E+00 0. -1.
        -14    1    3    3    0    0 -0.13859894838E+02  0.48922499408E+01 -0.84140628230E+03  0.84153464734E+03  0.00000000000E+00 0.  1.
          5    1    4    4  501    0 -0.57341483274E+02 -0.38181467438E+02 -0.17354247660E+03  0.18676277397E+03  0.41800000000E+01 0. -1.
         -5    1    4    4    0  501  0.58301007535E+02  0.88804580300E+01 -0.17373300618E+03  0.18351702878E+03  0.41800000000E+01 0. -1.
</event>
<event>
11    1  0.8039394E-009  0.1477174E+03  0.7561462E-02  0.1099234E+00
         22   -1    0    0    0    0  0.00000000000E+00  0.00000000000E+00  0.77761894659E+02  0.77761894659E+02  0.00000000000E+00 0.  1.
         22   -1    0    0    0    0 -0.00000000000E+00 -0.00000000000E+00 -0.23936896345E+04  0.23936896345E+04  0.00000000000E+00 0.  1.
         24    2    1    2    0    0  0.10126698608E+02  0.74027835699E+02 -0.19186410677E+04  0.19217617177E+04  0.80011765388E+02 0.  0.
         25    2    1    2    0    0 -0.35069115660E+02 -0.11846106240E+03 -0.41799024451E+03  0.45346076304E+03  0.12509177806E+03 0.  0.
        -24    2    1    2    0    0  0.24942417052E+02  0.44433226697E+02  0.20703572299E+02  0.96229048450E+02  0.78961737927E+02 0.  0.
        -13    1    3    3    0    0  0.41538370124E+02  0.59897779672E+02 -0.14666337770E+04  0.14684440119E+04  0.00000000000E+00 0.  1.
         14    1    3    3    0    0 -0.31411671516E+02  0.14130056027E+02 -0.45200729066E+03  0.45331770581E+03  0.00000000000E+00 0. -1.
         13    1    5    5    0    0 -0.14059495902E+02  0.12859875980E+02 -0.22872658205E+02  0.29769184211E+02  0.00000000000E+00 0. -1.
        -14    1    5    5    0    0  0.39001912955E+02  0.31573350718E+02  0.43576230504E+02  0.66459864239E+02  0.00000000000E+00 0.  1.
          5    1    4    4  501    0 -0.23648881622E+02 -0.14477273646E+03 -0.34392694489E+03  0.37392730664E+03  0.41800000000E+01 0. -1.
         -5    1    4    4    0  501 -0.11420234038E+02  0.26311674068E+02 -0.74063299612E+02  0.79533456402E+02  0.41800000000E+01 0. -1.
</event>
<event>
11    1  0.8039394E-009  0.1429582E+03  0.7561462E-02  0.1104299E+00
         22   -1    0    0    0    0  0.00000000000E+00  0.00000000000E+00  0.88166568718E+03  0.88166568718E+03  0.00000000000E+00 0.  1.
         22   -1    0    0    0    0 -0.00000000000E+00 -0.00000000000E+00 -0.45284866538E+03  0.45284866538E+03  0.00000000000E+00 0. -1.
        -24    2    1    2    0    0  0.71377702688E+02 -0.57689050046E+01 -0.41413605044E+03  0.42684329682E+03  0.74555181311E+02 0.  0.
         25    2    1    2    0    0 -0.17878140470E+02 -0.79907001547E+01  0.10861464009E+03  0.16681577935E+03  0.12508750938E+03 0.  0.
         24    2    1    2    0    0 -0.53499562218E+02  0.13759605159E+02  0.73433843215E+03  0.74085527639E+03  0.81006652325E+02 0.  0.
        -11    1    5    5    0    0 -0.39500297285E+02  0.44923583980E+02  0.56114200301E+03  0.56432149474E+03  0.00000000000E+00 0.  1.
         12    1    5    5    0    0 -0.13999264933E+02 -0.31163978820E+02  0.17319642914E+03  0.17653378165E+03  0.00000000000E+00 0. -1.
         11    1    3    3    0    0 -0.24188798292E+01  0.13055490364E+02 -0.18304377021E+03  0.18352470848E+03  0.00000000000E+00 0. -1.
        -12    1    3    3    0    0  0.73796582517E+02 -0.18824395368E+02 -0.23109228023E+03  0.24331858834E+03  0.00000000000E+00 0.  1.
          5    1    4    4  501    0  0.49119453329E+01 -0.24960736393E+02 -0.21500003679E+02  0.33569154390E+02  0.41800000000E+01 0.  1.
         -5    1    4    4    0  501 -0.22790085803E+02  0.16970036239E+02  0.13011464377E+03  0.13324662496E+03  0.41800000000E+01 0.  1.
</event>
<event>
11    1  0.8039394E-009  0.1806510E+03  0.7561462E-02  0.1069117E+00
         22   -1    0    0    0    0  0.00000000000E+00  0.00000000000E+00  0.17692325817E+03  0.17692325817E+03  0.00000000000E+00 0. -1.
         22   -1    0    0    0    0 -0.00000000000E+00 -0.00000000000E+00 -0.97563546942E+03  0.97563546942E+03  0.00000000000E+00 0.  1.
         24    2    1    2    0    0 -0.56792064508E+02  0.11911980104E+03 -0.86991891793E+03  0.88368732682E+03  0.82033543182E+02 0.  0.
         25    2    1    2    0    0  0.25625682541E+02 -0.10737666076E+03  0.20156134130E+02  0.16804615957E+03  0.12508724604E+03 0.  0.
        -24    2    1    2    0    0  0.31166381967E+02 -0.11743140277E+02  0.51050572547E+02  0.10082524120E+03  0.80313906620E+02 0.  0.
        -13    1    3    3    0    0 -0.23100602435E+02  0.11384183398E+03 -0.56157016455E+03  0.57345849956E+03  0.00000000000E+00 0.  1.
         14    1    3    3    0    0 -0.33691462073E+02  0.52779670656E+01 -0.30834875338E+03  0.31022882726E+03  0.00000000000E+00 0. -1.
         13    1    5    5    0    0  0.47467543755E+02 -0.30106218455E+02  0.51545053957E+02  0.76265619301E+02  0.00000000000E+00 0. -1.
        -14    1    5    5    0    0 -0.16301161788E+02  0.18363078179E+02 -0.49448140994E+00  0.24559621896E+02  0.00000000000E+00 0.  1.
          5    1    4    4  501    0 -0.10581481633E+02  0.25669815823E+02 -0.27360318189E+01  0.28211087680E+02  0.41800000000E+01 0.  1.
         -5    1    4    4    0  501  0.36207164174E+02 -0.13304647659E+03  0.22892165949E+02  0.13983507189E+03  0.41800000000E+01 0.  1.
</event>
<event>
11    1  0.8039394E-009  0.1770733E+03  0.7561462E-02  0.1072035E+00
         22   -1    0    0    0    0  0.00000000000E+00  0.00000000000E+00  0.30636908499E+04  0.30636908499E+04  0.00000000000E+00 0.  1.
         22   -1    0    0    0    0 -0.00000000000E+00 -0.00000000000E+00 -0.78139641374E+02  0.78139641374E+02  0.00000000000E+00 0.  1.
         24    2    1    2    0    0  0.67895037389E+02  0.10089911505E+03  0.31847780188E+02  0.16709415492E+03  0.11007183102E+03 0.  0.
         25    2    1    2    0    0 -0.99782161803E+02 -0.13843723046E+03  0.12025747810E+04  0.12210466688E+04  0.12509003442E+03 0.  0.
        -24    2    1    2    0    0  0.31887124414E+02  0.37538115406E+02  0.17511286473E+04  0.17536896676E+04  0.80932144561E+02 0.  0.
        -11    1    3    3    0    0  0.82319580793E+02  0.10948252366E+03  0.70622387688E+01  0.13715980309E+03  0.00000000000E+00 0.  1.
         12    1    3    3    0    0 -0.14424543404E+02 -0.85834086037E+01  0.24785541419E+02  0.29934351824E+02  0.00000000000E+00 0. -1.
         13    1    5    5    0    0 -0.12596340514E+01  0.36949870340E+02  0.31254749214E+03  0.31472657091E+03  0.00000000000E+00 0. -1.
        -14    1    5    5    0    0  0.33146758466E+02  0.58824506588E+00  0.14385811552E+04  0.14389630967E+04  0.00000000000E+00 0.  1.
          5    1    4    4  501    0  0.59629976130E+01 -0.26987866256E+02  0.42713311862E+02  0.51047053547E+02  0.41800000000E+01 0. -1.
         -5    1    4    4    0  501 -0.10574515942E+03 -0.11144936420E+03  0.11598614692E+04  0.11699996152E+04  0.41800000000E+01 0. -1.
</event>
<event>
11    1  0.8039394E-009  0.1317517E+03  0.7561462E-02  0.1117135E+00
         22   -1    0    0    0    0  0.00000000000E+00  0.00000000000E+00  0.35245888043E+03  0.35245888043E+03  0.00000000000E+00 0.  1.
         22   -1    0    0    0    0 -0.00000000000E+00 -0.00000000000E+00 -0.10369467944E+04  0.10369467944E+04  0.00000000000E+00 0.  1.
        -24    2    1    2    0    0 -0.11792436012E+02  0.17309939826E+02 -0.71297312627E+03  0.71775759604E+03  0.80041191412E+02 0.  0.
         25    2    1    2    0    0 -0.29617330079E+02 -0.13143316059E+02 -0.30202731218E+03  0.32850972301E+03  0.12509279680E+03 0.  0.
         24    2    1    2    0    0  0.41409766090E+02 -0.41666237665E+01  0.33051252449E+03  0.34313835577E+03  0.82299895976E+02 0.  0.
        -13    1    5    5    0    0  0.35429210242E+02  0.14431396860E+02  0.31719817358E+03  0.31949675347E+03  0.00000000000E+00 0.  1.
         14    1    5    5    0    0  0.59805558481E+01 -0.18598020626E+02  0.13314350909E+02  0.23641602306E+02  0.00000000000E+00 0. -1.
         11    1    3    3    0    0  0.15089502773E+02 -0.20466143614E+02 -0.10563290466E+03  0.10865020329E+03  0.00000000000E+00 0. -1.
        -12    1    3    3    0    0 -0.26881938785E+02  0.37776083439E+02 -0.60734022161E+03  0.60910739275E+03  0.00000000000E+00 0.  1.
          5    1    4    4  501    0 -0.21973152007E+02 -0.59309653993E+02 -0.82650921349E+02  0.10415902105E+03  0.41800000000E+01 0. -1.
         -5    1    4    4    0  501 -0.76441780713E+01  0.46166337933E+02 -0.21937639084E+03  0.22435070197E+03  0.41800000000E+01 0. -1.
</event>
<event>
11    1  0.8039394E-009  0.1312323E+03  0.7561462E-02  0.1117764E+00
         22   -1    0    0    0    0  0.00000000000E+00  0.00000000000E+00  0.82612086505E+03  0.82612086505E+03  0.00000000000E+00 0.  1.
         22   -1    0    0    0    0 -0.00000000000E+00 -0.00000000000E+00 -0.54073540803E+02  0.54073540803E+02  0.00000000000E+00 0.  1.
         24    2    1    2    0    0  0.20991609896E+02 -0.29125903510E+02  0.14548744189E+02  0.88463134771E+02  0.79530461553E+02 0.  0.
         25    2    1    2    0    0  0.10128238714E+02  0.51549962229E+02  0.36231608268E+03  0.38688619688E+03  0.12509198912E+03 0.  0.
        -24    2    1    2    0    0 -0.31119848610E+02 -0.22424058719E+02  0.39518249738E+03  0.40484507421E+03  0.79114123168E+02 0.  0.
        -11    1    3    3    0    0 -0.90830550024E+01 -0.49020516847E+02  0.76998747132E+00  0.49860864822E+02  0.00000000000E+00 0.  1.
         12    1    3    3    0    0  0.30074664898E+02  0.19894613337E+02  0.13778756717E+02  0.38602269949E+02  0.00000000000E+00 0. -1.
         11    1    5    5    0    0  0.41240957886E+01 -0.43243524607E+02  0.14609027252E+03  0.15241187064E+03  0.00000000000E+00 0. -1.
        -12    1    5    5    0    0 -0.35243944398E+02  0.20819465888E+02  0.24909222486E+03  0.25243320356E+03  0.00000000000E+00 0.  1.
          5    1    4    4  501    0  0.62806110856E+02  0.33775168978E+01  0.19486495485E+03  0.20480683145E+03  0.41800000000E+01 0. -1.
         -5    1    4    4    0  501 -0.52677872142E+02  0.48172445331E+02  0.16745112783E+03  0.18207936543E+03  0.41800000000E+01 0. -1.
</event>
<event>
11    1  0.9744640E-009  0.1603638E+03  0.7561462E-02  0.1086736E+00
         22   -1    0    0    0    0  0.00000000000E+00  0.00000000000E+00  0.54942784821E+03  0.54942784821E+03  0.00000000000E+00 0.  1.
         22   -1    0    0    0    0 -0.00000000000E+00 -0.00000000000E+00 -0.39694563070E+03  0.39694563070E+03  0.00000000000E+00 0. -1.
         24    2    1    2    0    0 -0.84114234942E+02  0.15756862023E+02 -0.29311661233E+03  0.31598855168E+03  0.81289194536E+02 0.  0.
         25    2    1    2    0    0  0.19293532000E+02 -0.97141939726E+02 -0.65973098618E+01  0.15970185482E+03  0.12510939655E+03 0.  0.
        -24    2    1    2    0    0  0.64820702942E+02  0.81385077703E+02  0.45219613970E+03  0.47068307241E+03  0.78968040930E+02 0.  0.
        -13    1    3    3    0    0 -0.46743223190E+02 -0.16267680167E+01 -0.46506129908E+02  0.65957527299E+02  0.00000000000E+00 0.  1.
         14    1    3    3    0    0 -0.37371011752E+02  0.17383630040E+02 -0.24661048242E+03  0.25003102438E+03  0.00000000000E+00 0. -1.
         11    1    5    5    0    0 -0.17665154738E+02  0.61059286613E+01  0.55141083127E+02  0.58222668310E+02  0.00000000000E+00 0. -1.
        -12    1    5    5    0    0  0.82485857680E+02  0.75279149042E+02  0.39705505658E+03  0.41246040410E+03  0.00000000000E+00 0.  1.
          5    1    4    4  501    0 -0.14266753761E+02 -0.71014151090E+02 -0.57976060265E+02  0.92872201879E+02  0.41800000000E+01 0.  1.
         -5    1    4    4    0  501  0.33560285761E+02 -0.26127788636E+02  0.51378750403E+02  0.66829652943E+02  0.41800000000E+01 0.  1.
</event>
<event>
11    1  0.8039394E-009  0.2173170E+03  0.7561462E-02  0.1042911E+00
         22   -1    0    0    0    0  0.00000000000E+00  0.00000000000E+00  0.33296694994E+03  0.33296694994E+03  0.00000000000E+00 0. -1.
         22   -1    0    0    0    0 -0.00000000000E+00 -0.00000000000E+00 -0.10810639435E+04  0.10810639435E+04  0.00000000000E+00 0.  1.
         24    2    1    2    0    0  0.44930342849E+02  0.16524872438E+03 -0.87742362241E+03  0.89772281340E+03  0.81903357127E+02 0.  0.
         25    2    1    2    0    0 -0.11501833374E+02 -0.30295091393E+03  0.41070426482E+02  0.33052008315E+03  0.12508076196E+03 0.  0.
        -24    2    1    2    0    0 -0.33428509475E+02  0.13770218955E+03  0.88256202408E+02  0.18578799686E+03  0.81539341801E+02 0.  0.
        -13    1    3    3    0    0  0.43301426405E+01  0.14180275336E+03 -0.69826792801E+03  0.71253411868E+03  0.00000000000E+00 0.  1.
         14    1    3    3    0    0  0.40600200209E+02  0.23445971014E+02 -0.17915569440E+03  0.18518869472E+03  0.00000000000E+00 0. -1.
         11    1    5    5    0    0 -0.34532508197E+02  0.13189355300E+03  0.10236494458E+03  0.17049042590E+03  0.00000000000E+00 0. -1.
        -12    1    5    5    0    0  0.11039987219E+01  0.58086365529E+01 -0.14108742169E+02  0.15297570963E+02  0.00000000000E+00 0.  1.
          5    1    4    4  501    0 -0.39892185421E+02 -0.29531751212E+03  0.40922099868E+02  0.30082538138E+03  0.41800000000E+01 0. -1.
         -5    1    4    4    0  501  0.28390352047E+02 -0.76334018062E+01  0.14832661432E+00  0.29694701771E+02  0.41800000000E+01 0. -1.
</event>
<event>
11    1  0.8039394E-009  0.1393769E+03  0.7561462E-02  0.1108256E+00
         22   -1    0    0    0    0  0.00000000000E+00  0.00000000000E+00  0.98599805709E+03  0.98599805709E+03  0.00000000000E+00 0. -1.
         22   -1    0    0    0    0 -0.00000000000E+00 -0.00000000000E+00 -0.70423080712E+03  0.70423080712E+03  0.00000000000E+00 0.  1.
        -24    2    1    2    0    0 -0.51481836152E+02  0.37458496092E+02 -0.58738526297E+03  0.59611790759E+03  0.79256508968E+02 0.  0.
         25    2    1    2    0    0  0.44359133752E+02 -0.87787035990E+01 -0.70609800641E+02  0.15059273306E+03  0.12509048293E+03 0.  0.
         24    2    1    2    0    0  0.71227023998E+01 -0.28679792493E+02  0.93976231358E+03  0.94351822356E+03  0.78741150383E+02 0.  0.
        -13    1    5    5    0    0 -0.19834211031E+02 -0.22635775981E+02  0.13639068269E+03  0.13967173159E+03  0.00000000000E+00 0.  1.
         14    1    5    5    0    0  0.26956913431E+02 -0.60440165128E+01  0.80337163090E+03  0.80384649197E+03  0.00000000000E+00 0. -1.
         11    1    3    3    0    0  0.76423401149E+00 -0.19110097875E+02 -0.21531444945E+03  0.21616218919E+03  0.00000000000E+00 0. -1.
        -12    1    3    3    0    0 -0.52246070163E+02  0.56568593967E+02 -0.37207081352E+03  0.37995571840E+03  0.00000000000E+00 0.  1.
          5    1    4    4  501    0  0.40206897301E+02 -0.27119898170E+02  0.23837136357E+02  0.54201152543E+02  0.41800000000E+01 0.  1.
         -5    1    4    4    0  501  0.41522364514E+01  0.18341194571E+02 -0.94446936997E+02  0.96391580514E+02  0.41800000000E+01 0.  1.
</event>
<event>
11    1  0.8039394E-009  0.1474789E+03  0.7561462E-02  0.1099483E+00
         22   -1    0    0    0    0  0.00000000000E+00  0.00000000000E+00  0.12409873422E+04  0.12409873422E+04  0.00000000000E+00 0.  1.
         22   -1    0    0    0    0 -0.00000000000E+00 -0.00000000000E+00 -0.14520544852E+03  0.14520544852E+03  0.00000000000E+00 0. -1.
        -24    2    1    2    0    0 -0.70877590609E+02 -0.33836005094E+02 -0.83550261600E+02  0.12542132813E+03  0.50807039315E+02 0.  0.
         25    2    1    2    0    0  0.69711647297E+02  0.28855030580E+02  0.97462631527E+02  0.17561070280E+03  0.12509127802E+03 0.  0.
         24    2    1    2    0    0  0.11659433122E+01  0.49809745149E+01  0.10818695237E+04  0.10851607598E+04  0.84297322857E+02 0.  0.
        -13    1    5    5    0    0  0.29590762305E+01  0.11244188047E+02  0.10769104984E+04  0.10769732631E+04  0.00000000000E+00 0.  1.
         14    1    5    5    0    0 -0.17931329183E+01 -0.62632135316E+01  0.49590253460E+01  0.81874966741E+01  0.00000000000E+00 0. -1.
         11    1    3    3    0    0 -0.67803089325E+02 -0.41046972552E+02 -0.86243402894E+02  0.11713256345E+03  0.00000000000E+00 0. -1.
        -12    1    3    3    0    0 -0.30745012846E+01  0.72109674573E+01  0.26931412937E+01  0.82887646756E+01  0.00000000000E+00 0.  1.
          5    1    4    4  501    0  0.32688567309E+02  0.54818026580E+02 -0.43709221508E+01  0.64110341064E+02  0.41800000000E+01 0. -1.
         -5    1    4    4    0  501  0.37023079988E+02 -0.25962996000E+02  0.10183355368E+03  0.11150036174E+03  0.41800000000E+01 0. -1.
</event>
<event>
11    1  0.8039394E-009  0.1337089E+03  0.7561462E-02  0.1114794E+00
         22   -1    0    0    0    0  0.00000000000E+00  0.00000000000E+00  0.49930500047E+03  0.49930500047E+03  0.00000000000E+00 0.  1.
         22   -1    0    0    0    0 -0.00000000000E+00 -0.00000000000E+00 -0.11816951895E+03  0.11816951895E+03  0.00000000000E+00 0. -1.
         24    2    1    2    0    0  0.57011696993E+02 -0.34790675663E+01 -0.52052577393E+02  0.11242733241E+03  0.81657802783E+02 0.  0.
         25    2    1    2    0    0 -0.19681360036E+02 -0.37546107665E+02  0.12791697517E+03  0.18386666485E+03  0.12508849577E+03 0.  0.
        -24    2    1    2    0    0 -0.37330336957E+02  0.41025175231E+02  0.30527108374E+03  0.32118052215E+03  0.83005265986E+02 0.  0.
        -11    1    3    3    0    0  0.27112971083E+02 -0.36784062737E+02 -0.49837017747E+02  0.67615891699E+02  0.00000000000E+00 0.  1.
         12    1    3    3    0    0  0.29898725910E+02  0.33304995171E+02 -0.22155596464E+01  0.44811440715E+02  0.00000000000E+00 0. -1.
         13    1    5    5    0    0 -0.46425733046E+02  0.60718034059E+01  0.77361345887E+02  0.90426729029E+02  0.00000000000E+00 0. -1.
        -14    1    5    5    0    0  0.90953960886E+01  0.34953371826E+02  0.22790973785E+03  0.23075379312E+03  0.00000000000E+00 0.  1.
          5    1    4    4  501    0 -0.32520400921E+02  0.26862954570E+02  0.27774070240E+01  0.42478008358E+02  0.41800000000E+01 0.  1.
         -5    1    4    4    0  501  0.12839040886E+02 -0.64409062235E+02  0.12513956815E+03  0.14138865649E+03  0.41800000000E+01 0.  1.
</event>
<event>
11    1  0.8039394E-009  0.1616486E+03  0.7561462E-02  0.1085537E+00
         22   -1    0    0    0    0  0.00000000000E+00  0.00000000000E+00  0.96922372415E+03  0.96922372415E+03  0.00000000000E+00 0.  1.
         22   -1    0    0    0    0 -0.00000000000E+00 -0.00000000000E+00 -0.83505421283E+03  0.83505421283E+03  0.00000000000E+00 0.  1.
         24    2    1    2    0    0 -0.53484704807E+02  0.86173793893E+02 -0.79024575007E+03  0.80077039939E+03  0.80363863926E+02 0.  0.
         25    2    1    2    0    0  0.11978401518E+03 -0.11030292722E+03  0.26377472458E+03  0.33427491533E+03  0.12509063775E+03 0.  0.
        -24    2    1    2    0    0 -0.66299310371E+02  0.24129133324E+02  0.66064053682E+03  0.66923262226E+03  0.80302989903E+02 0.  0.
        -13    1    3    3    0    0 -0.53022316875E+02  0.97264708348E+02 -0.59599900647E+03  0.60620673478E+03  0.00000000000E+00 0.  1.
         14    1    3    3    0    0 -0.46238793187E+00 -0.11090914455E+02 -0.19424674361E+03  0.19456366461E+03  0.00000000000E+00 0. -1.
         11    1    5    5    0    0 -0.44582830537E+02 -0.18991106312E+02  0.18847101676E+03  0.19460116921E+03  0.00000000000E+00 0. -1.
        -12    1    5    5    0    0 -0.21716479835E+02  0.43120239636E+02  0.47216952005E+03  0.47463145305E+03  0.00000000000E+00 0.  1.
          5    1    4    4  501    0  0.86623174969E+02 -0.17990989974E+02  0.56862265197E+02  0.10525226727E+03  0.41800000000E+01 0.  1.
         -5    1    4    4    0  501  0.33160840209E+02 -0.92311937242E+02  0.20691245938E+03  0.22902264807E+03  0.41800000000E+01 0.  1.
</event>
<event>
11    1  0.8039394E-009  0.1310312E+03  0.7561462E-02  0.1118008E+00
         22   -1    0    0    0    0  0.00000000000E+00  0.00000000000E+00  0.70756442510E+02  0.70756442510E+02  0.00000000000E+00 0.  1.
         22   -1    0    0    0    0 -0.00000000000E+00 -0.00000000000E+00 -0.84078816475E+03  0.84078816475E+03  0.00000000000E+00 0. -1.
         24    2    1    2    0    0 -0.25686519955E+02  0.17490011649E+02 -0.54938694736E+03  0.55646423800E+03  0.82829538350E+02 0.  0.
         25    2    1    2    0    0 -0.14473061732E+02 -0.28819147282E+02 -0.22959963099E+03  0.26344540827E+03  0.12508988697E+03 0.  0.
        -24    2    1    2    0    0  0.40159581687E+02  0.11329135633E+02  0.89548561172E+01  0.91634960988E+02  0.81090291107E+02 0.  0.
        -13    1    3    3    0    0 -0.37133953850E+02  0.27899473781E+02 -0.15586614115E+03  0.16263937138E+03  0.00000000000E+00 0.  1.
         14    1    3    3    0    0  0.11447433895E+02 -0.10409462132E+02 -0.39352080621E+03  0.39382486662E+03  0.00000000000E+00 0. -1.
         11    1    5    5    0    0 -0.17754431231E+02  0.16101426742E+02 -0.15548470208E+02  0.28569751438E+02  0.00000000000E+00 0. -1.
        -12    1    5    5    0    0  0.57914012917E+02 -0.47722911083E+01  0.24503326325E+02  0.63065209550E+02  0.00000000000E+00 0.  1.
          5    1    4    4  501    0  0.53942625856E+02 -0.18354237592E+02 -0.77463132355E+02  0.96253281482E+02  0.41800000000E+01 0. -1.
         -5    1    4    4    0  501 -0.68415687588E+02 -0.10464909690E+02 -0.15213649863E+03  0.16719212679E+03  0.41800000000E+01 0. -1.
</event>
<event>
11    1  0.8039394E-009  0.3435488E+03  0.7561462E-02  0.9832780E-01
         22   -1    0    0    0    0  0.00000000000E+00  0.00000000000E+00  0.76202109719E+03  0.76202109719E+03  0.00000000000E+00 0. -1.
         22   -1    0    0    0    0 -0.00000000000E+00 -0.00000000000E+00 -0.33631560757E+03  0.33631560757E+03  0.00000000000E+00 0.  1.
        -24    2    1    2    0    0 -0.24179239217E+03 -0.21412172090E+03 -0.15893038559E+03  0.36884935331E+03  0.80494134587E+02 0.  0.
         25    2    1    2    0    0  0.21174747542E+03  0.22460094131E+03  0.36483166886E+03  0.49399607739E+03  0.12508957465E+03 0.  0.
         24    2    1    2    0    0  0.30044916749E+02 -0.10479220406E+02  0.21980420635E+03  0.23549127406E+03  0.78292655762E+02 0.  0.
        -13    1    5    5    0    0 -0.31422044585E+01  0.24863560525E+02  0.27659649984E+02  0.37324607541E+02  0.00000000000E+00 0.  1.
         14    1    5    5    0    0  0.33187121208E+02 -0.35342780931E+02  0.19214455637E+03  0.19816666652E+03  0.00000000000E+00 0. -1.
         11    1    3    3    0    0 -0.40510602380E+02 -0.47819081948E+02  0.97287011907E+00  0.62679502070E+02  0.00000000000E+00 0. -1.
        -12    1    3    3    0    0 -0.20128178979E+03 -0.16630263895E+03 -0.15990325571E+03  0.30616985124E+03  0.00000000000E+00 0.  1.
          5    1    4    4  501    0  0.17869504377E+03  0.22747941925E+03  0.27915415227E+03  0.40202402662E+03  0.41800000000E+01 0.  1.
         -5    1    4    4    0  501  0.33052431660E+02 -0.28784779425E+01  0.85677516590E+02  0.91972050771E+02  0.41800000000E+01 0.  1.
</event>
<event>
11    1  0.8039394E-009  0.1372458E+03  0.7561462E-02  0.1110673E+00
         22   -1    0    0    0    0  0.00000000000E+00  0.00000000000E+00  0.30034123921E+03  0.30034123921E+03  0.00000000000E+00 0.  1.
         22   -1    0    0    0    0 -0.00000000000E+00 -0.00000000000E+00 -0.48179123384E+03  0.48179123384E+03  0.00000000000E+00 0.  1.
        -24    2    1    2    0    0 -0.41208521217E+02 -0.38764196457E+02 -0.38897021145E+03  0.40133925624E+03  0.81083710215E+02 0.  0.
         25    2    1    2    0    0  0.53233741799E+02  0.23840587677E+02 -0.19453704807E+02  0.13938638102E+03  0.12509161322E+03 0.  0.
         24    2    1    2    0    0 -0.12025220582E+02  0.14923608780E+02  0.22697392163E+03  0.24140683578E+03  0.79954857486E+02 0.  0.
        -11    1    5    5    0    0 -0.11846039834E+02 -0.21016642309E+02  0.18314010585E+03  0.18472229504E+03  0.00000000000E+00 0.  1.
         12    1    5    5    0    0 -0.17918074788E+00  0.35940251088E+02  0.43833815780E+02  0.56684540749E+02  0.00000000000E+00 0. -1.
         13    1    3    3    0    0  0.25852307817E+00  0.23805189827E+02 -0.92904805361E+02  0.95906500072E+02  0.00000000000E+00 0. -1.
        -14    1    3    3    0    0 -0.41467044295E+02 -0.62569386284E+02 -0.29606540609E+03  0.30543275617E+03  0.00000000000E+00 0.  1.
          5    1    4    4  501    0  0.23449275407E+02 -0.24214979944E+02 -0.60508793738E+02  0.69390347243E+02  0.41800000000E+01 0. -1.
         -5    1    4    4    0  501  0.29784466392E+02  0.48055567622E+02  0.41055088931E+02  0.69996033779E+02  0.41800000000E+01 0. -1.
</event>
<event>
11    1  0.8039394E-009  0.1322077E+03  0.7561462E-02  0.1116586E+00
         22   -1    0    0    0    0  0.00000000000E+00  0.00000000000E+00  0.91437347903E+02  0.91437347903E+02  0.00000000000E+00 0. -1.
         22   -1    0    0    0    0 -0.00000000000E+00 -0.00000000000E+00 -0.13978580549E+04  0.13978580549E+04  0.00000000000E+00 0.  1.
        -24    2    1    2    0    0 -0.10268331997E+02  0.38970648453E+02 -0.10580544952E+04  0.10617647067E+04  0.78998907364E+02 0.  0.
         25    2    1    2    0    0 -0.61911448186E+00 -0.66213407122E+02 -0.29675161874E+03  0.32877702343E+03  0.12509280285E+03 0.  0.
         24    2    1    2    0    0  0.10887446479E+02  0.27242758669E+02  0.48385406945E+02  0.98753672733E+02  0.80934763126E+02 0.  0.
        -11    1    5    5    0    0 -0.34900922069E+02  0.53148690731E+01  0.20799138568E+02  0.40974703900E+02  0.00000000000E+00 0.  1.
         12    1    5    5    0    0  0.45788368548E+02  0.21927889596E+02  0.27586268377E+02  0.57778968833E+02  0.00000000000E+00 0. -1.
         13    1    3    3    0    0  0.13273649828E+02 -0.88679341470E+01 -0.54369797346E+02  0.56664847121E+02  0.00000000000E+00 0. -1.
        -14    1    3    3    0    0 -0.23541981825E+02  0.47838582600E+02 -0.10036846979E+04  0.10050998595E+04  0.00000000000E+00 0.  1.
          5    1    4    4  501    0 -0.31597500914E+02 -0.78576443726E+02 -0.27722251243E+03  0.28990076469E+03  0.41800000000E+01 0.  1.
         -5    1    4    4    0  501  0.30978386432E+02  0.12363036604E+02 -0.19529106308E+02  0.38876258735E+02  0.41800000000E+01 0.  1.
</event>
<event>
11    1  0.8039394E-009  0.1462820E+03  0.7561462E-02  0.1100740E+00
         22   -1    0    0    0    0  0.00000000000E+00  0.00000000000E+00  0.10938760556E+04  0.10938760556E+04  0.00000000000E+00 0. -1.
         22   -1    0    0    0    0 -0.00000000000E+00 -0.00000000000E+00 -0.12853415736E+04  0.12853415736E+04  0.00000000000E+00 0.  1.
         24    2    1    2    0    0 -0.38107125321E+02  0.18968533654E+02 -0.11625927551E+04  0.11669072725E+04  0.90767339995E+02 0.  0.
         25    2    1    2    0    0  0.63911591352E+02 -0.89476135448E+02 -0.58774227164E+02  0.17661767070E+03  0.12509485001E+03 0.  0.
        -24    2    1    2    0    0 -0.25804466031E+02  0.70507601794E+02  0.10299014643E+04  0.10356926860E+04  0.79530631810E+02 0.  0.
        -11    1    3    3    0    0 -0.44036895721E+02  0.94282694541E+01 -0.23668486566E+03  0.24093124763E+03  0.00000000000E+00 0.  1.
         12    1    3    3    0    0  0.59297704007E+01  0.95402642001E+01 -0.92590788944E+03  0.92597602483E+03  0.00000000000E+00 0. -1.
         11    1    5    5    0    0 -0.39121536713E+02  0.78517891668E+02  0.96401860177E+03  0.96800176576E+03  0.00000000000E+00 0. -1.
        -12    1    5    5    0    0  0.13317070682E+02 -0.80102898737E+01  0.65882862518E+02  0.67690920284E+02  0.00000000000E+00 0.  1.
          5    1    4    4  501    0  0.76577581116E+02 -0.15362142476E+01 -0.36376793066E+02  0.84895402453E+02  0.41800000000E+01 0.  1.
         -5    1    4    4    0  501 -0.12665989764E+02 -0.87939921201E+02 -0.22397434098E+02  0.91722268243E+02  0.41800000000E+01 0.  1.
</event>
<event>
11    1  0.8039394E-009  0.1352263E+03  0.7561462E-02  0.1113009E+00
         22   -1    0    0    0    0  0.00000000000E+00  0.00000000000E+00  0.13274111075E+03  0.13274111075E+03  0.00000000000E+00 0.  1.
         22   -1    0    0    0    0 -0.00000000000E+00 -0.00000000000E+00 -0.88956628309E+03  0.88956628309E+03  0.00000000000E+00 0. -1.
         24    2    1    2    0    0  0.94599705532E+01  0.33238694788E+02 -0.71763927341E+03  0.72289119842E+03  0.79820148701E+02 0.  0.
         25    2    1    2    0    0  0.34025912352E+02 -0.58028351144E+02 -0.11201898233E+03  0.18088892758E+03  0.12508996551E+03 0.  0.
        -24    2    1    2    0    0 -0.43485882905E+02  0.24789656357E+02  0.72833083400E+02  0.11852726784E+03  0.78984214302E+02 0.  0.
        -11    1    3    3    0    0 -0.17925868565E+01  0.13983168965E+01  0.16503109760E+01  0.28093031340E+01  0.00000000000E+00 0.  1.
         12    1    3    3    0    0  0.11252557410E+02  0.31840377891E+02 -0.71928958438E+03  0.72008189528E+03  0.00000000000E+00 0. -1.
         11    1    5    5    0    0  0.17528918853E+02 -0.28960689709E+01 -0.22350069263E+01  0.17906576099E+02  0.00000000000E+00 0. -1.
        -12    1    5    5    0    0 -0.61014801758E+02  0.27685725328E+02  0.75068090326E+02  0.10062069174E+03  0.00000000000E+00 0.  1.
          5    1    4    4  501    0  0.60151233154E+02 -0.79603406250E+02 -0.53885606737E+02  0.11347248191E+03  0.41800000000E+01 0.  1.
         -5    1    4    4    0  501 -0.26125320802E+02  0.21575055105E+02 -0.58133375592E+02  0.67416445675E+02  0.41800000000E+01 0.  1.
</event>
<event>
11    1  0.8039394E-009  0.1578215E+03  0.7561462E-02  0.1089144E+00
         22   -1    0    0    0    0  0.00000000000E+00  0.00000000000E+00  0.30542619814E+03  0.30542619814E+03  0.00000000000E+00 0.  1.
         22   -1    0    0    0    0 -0.00000000000E+00 -0.00000000000E+00 -0.20564985423E+04  0.20564985423E+04  0.00000000000E+00 0.  1.
         24    2    1    2    0    0 -0.61713130973E+02  0.72187242733E+02 -0.19265944291E+04  0.19305619733E+04  0.79271242135E+02 0.  0.
         25    2    1    2    0    0  0.10042194480E+03 -0.10736795834E+03 -0.38380244169E+02  0.19680227662E+03  0.12508256259E+03 0.  0.
        -24    2    1    2    0    0 -0.38708813825E+02  0.35180715610E+02  0.21390232907E+03  0.23456049059E+03  0.80798281822E+02 0.  0.
        -11    1    3    3    0    0 -0.16431122865E+02  0.70621952971E+02 -0.14521091429E+04  0.14539182938E+04  0.00000000000E+00 0.  1.
         12    1    3    3    0    0 -0.45282008108E+02  0.15652897613E+01 -0.47448528617E+03  0.47664367948E+03  0.00000000000E+00 0. -1.
         11    1    5    5    0    0 -0.20692523603E+02  0.18089382880E+02  0.10147792227E+02  0.29298190953E+02  0.00000000000E+00 0. -1.
        -12    1    5    5    0    0 -0.18016290222E+02  0.17091332730E+02  0.20375453685E+03  0.20526229964E+03  0.00000000000E+00 0.  1.
          5    1    4    4  501    0  0.82682068742E+02 -0.38417161465E+02  0.31892727723E+02  0.96678959800E+02  0.41800000000E+01 0. -1.
         -5    1    4    4    0  501  0.17739876055E+02 -0.68950796878E+02 -0.70272971892E+02  0.10012331682E+03  0.41800000000E+01 0. -1.
</event>
<event>
11    1  0.8039394E-009  0.1543163E+03  0.7561462E-02  0.1092548E+00
         22   -1    0    0    0    0  0.00000000000E+00  0.00000000000E+00  0.75813787199E+03  0.75813787199E+03  0.00000000000E+00 0. -1.
         22   -1    0    0    0    0 -0.00000000000E+00 -0.00000000000E+00 -0.30113573485E+03  0.30113573485E+03  0.00000000000E+00 0. -1.
         24    2    1    2    0    0 -0.40439155281E+02 -0.16841683470E+02 -0.21307171304E+03  0.23165039334E+03  0.79645352997E+02 0.  0.
         25    2    1    2    0    0  0.41206908086E+02  0.10591721437E+03  0.24610298532E+02  0.17079118856E+03  0.12508995851E+03 0.  0.
        -24    2    1    2    0    0 -0.76775280481E+00 -0.89075530903E+02  0.64546355166E+03  0.65683202494E+03  0.82885902460E+02 0.  0.
        -11    1    3    3    0    0 -0.31038209827E+02  0.23941310288E+02 -0.51354769260E+02  0.64605488415E+02  0.00000000000E+00 0.  1.
         12    1    3    3    0    0 -0.94009454541E+01 -0.40782993758E+02 -0.16171694378E+03  0.16704490492E+03  0.00000000000E+00 0. -1.
         13    1    5    5    0    0  0.19286357526E+01 -0.76739491171E+02  0.25836630564E+03  0.26952887977E+03  0.00000000000E+00 0. -1.
        -14    1    5    5    0    0 -0.26963885574E+01 -0.12336039732E+02  0.38709724602E+03  0.38730314517E+03  0.00000000000E+00 0.  1.
          5    1    4    4  501    0  0.41835856420E+02 -0.70120491819E+01  0.37857066714E+02  0.57009101171E+02  0.41800000000E+01 0. -1.
         -5    1    4    4    0  501 -0.62894833388E+00  0.11292926355E+03 -0.13246768182E+02  0.11378208739E+03  0.41800000000E+01 0. -1.
</event>
<event>
11    1  0.8039394E-009  0.1608512E+03  0.7561462E-02  0.1086279E+00
         22   -1    0    0    0    0  0.00000000000E+00  0.00000000000E+00  0.14771520413E+03  0.14771520413E+03  0.00000000000E+00 0.  1.
         22   -1    0    0    0    0 -0.00000000000E+00 -0.00000000000E+00 -0.22393367607E+04  0.22393367607E+04  0.00000000000E+00 0.  1.
         24    2    1    2    0    0 -0.26450545389E+02 -0.99001341588E+01 -0.17779797082E+04  0.17800894953E+04  0.81909245825E+02 0.  0.
         25    2    1    2    0    0  0.12439707449E+03 -0.71212209721E+01 -0.40995323726E+03  0.44635705697E+03  0.12509045381E+03 0.  0.
        -24    2    1    2    0    0 -0.97946529101E+02  0.17021355131E+02  0.96311388851E+02  0.16060541259E+03  0.81455299629E+02 0.  0.
        -11    1    3    3    0    0 -0.19895300334E+02 -0.81335652501E+01 -0.17673245203E+04  0.17674552152E+04  0.00000000000E+00 0.  1.
         12    1    3    3    0    0 -0.65552450546E+01 -0.17665689087E+01 -0.10655187862E+02  0.12634280027E+02  0.00000000000E+00 0. -1.
         11    1    5    5    0    0 -0.53013981862E+02  0.16061992661E+02  0.10122936742E+03  0.11539434436E+03  0.00000000000E+00 0. -1.
        -12    1    5    5    0    0 -0.44932547239E+02  0.95936247028E+00 -0.49179785690E+01  0.45211068235E+02  0.00000000000E+00 0.  1.
          5    1    4    4  501    0  0.80874316711E+00 -0.44278944883E+02 -0.14404135013E+03  0.15075364663E+03  0.41800000000E+01 0.  1.
         -5    1    4    4    0  501  0.12358833132E+03  0.37157723910E+02 -0.26591188713E+03  0.29560341034E+03  0.41800000000E+01 0.  1.
</event>
<event>
11    1  0.8039394E-009  0.1567765E+03  0.7561462E-02  0.1090149E+00
         22   -1    0    0    0    0  0.00000000000E+00  0.00000000000E+00  0.12127958290E+04  0.12127958290E+04  0.00000000000E+00 0.  1.
         22   -1    0    0    0    0 -0.00000000000E+00 -0.00000000000E+00 -0.14786719178E+03  0.14786719178E+03  0.00000000000E+00 0.  1.
        -24    2    1    2    0    0 -0.77545281829E+02  0.57972024251E+02 -0.10186860998E+03  0.16127179277E+03  0.79103420381E+02 0.  0.
         25    2    1    2    0    0  0.73782532111E+02 -0.70088293747E+01  0.38029658763E+03  0.40714356914E+03  0.12508959027E+03 0.  0.
         24    2    1    2    0    0  0.37627497178E+01 -0.50963194876E+02  0.78650065961E+03  0.79224765890E+03  0.80384450928E+02 0.  0.
        -11    1    5    5    0    0  0.14011042810E+02 -0.55242408035E+00  0.55168838935E+03  0.55186655401E+03  0.00000000000E+00 0.  1.
         12    1    5    5    0    0 -0.10248293092E+02 -0.50410770796E+02  0.23481227026E+03  0.24038110489E+03  0.00000000000E+00 0. -1.
         13    1    3    3    0    0 -0.28338294229E+02  0.30130740200E+02  0.36882846149E+01  0.41527386966E+02  0.00000000000E+00 0. -1.
        -14    1    3    3    0    0 -0.49206987599E+02  0.27841284051E+02 -0.10555689459E+03  0.11974440581E+03  0.00000000000E+00 0.  1.
          5    1    4    4  501    0  0.73329832803E+02 -0.51544208859E+02  0.17092310568E+03  0.19304468472E+03  0.41800000000E+01 0. -1.
         -5    1    4    4    0  501  0.45269930776E+00  0.44535379485E+02  0.20937348195E+03  0.21409888441E+03  0.41800000000E+01 0. -1.
</event>
<event>
11    1  0.8039394E-009  0.1382663E+03  0.7561462E-02  0.1109510E+00
         22   -1    0    0    0    0  0.00000000000E+00  0.00000000000E+00  0.10638150213E+04  0.10638150213E+04  0.00000000000E+00 0.  1.
         22   -1    0    0    0    0 -0.00000000000E+00 -0.00000000000E+00 -0.12143804764E+03  0.12143804764E+03  0.00000000000E+00 0. -1.
        -24    2    1    2    0    0  0.60012001542E+02 -0.18204914666E+02 -0.74647408992E+02  0.12644481943E+03  0.80518305032E+02 0.  0.
         25    2    1    2    0    0 -0.21004499413E+02  0.20052841851E+02  0.20469947601E+03  0.24164690993E+03  0.12509215857E+03 0.  0.
         24    2    1    2    0    0 -0.39007502128E+02 -0.18479271859E+01  0.81232490664E+03  0.81716133959E+03  0.79723904213E+02 0.  0.
        -13    1    5    5    0    0 -0.63404838862E+02 -0.65324272115E+01  0.55966604127E+03  0.56328405263E+03  0.00000000000E+00 0.  1.
         14    1    5    5    0    0  0.24397336734E+02  0.46845000256E+01  0.25265886537E+03  0.25387728695E+03  0.00000000000E+00 0. -1.
         13    1    3    3    0    0  0.41695402010E+02  0.28809898672E+02 -0.28927079800E+02  0.58354886308E+02  0.00000000000E+00 0. -1.
        -14    1    3    3    0    0  0.18316599532E+02 -0.47014813338E+02 -0.45720329192E+02  0.68089933125E+02  0.00000000000E+00 0.  1.
          5    1    4    4  501    0 -0.10620498688E+02 -0.48657885672E+02  0.13126915894E+03  0.14046155815E+03  0.41800000000E+01 0.  1.
         -5    1    4    4    0  501 -0.10384000726E+02  0.68710727523E+02  0.73430317076E+02  0.10118535177E+03  0.41800000000E+01 0.  1.
</event>
<event>
11    1  0.8039394E-009  0.1333392E+03  0.7561462E-02  0.1115233E+00
         22   -1    0    0    0    0  0.00000000000E+00  0.00000000000E+00  0.72180689176E+03  0.72180689176E+03  0.00000000000E+00 0.  1.
         22   -1    0    0    0    0 -0.00000000000E+00 -0.00000000000E+00 -0.10100392085E+04  0.10100392085E+04  0.00000000000E+00 0. -1.
         24    2    1    2    0    0  0.29011142746E+02 -0.16131345605E+02 -0.87784779547E+03  0.88221827392E+03  0.81181673455E+02 0.  0.
         25    2    1    2    0    0  0.51679435398E+01 -0.16061146230E+02 -0.95439961076E+02  0.15824385399E+03  0.12509061954E+03 0.  0.
        -24    2    1    2    0    0 -0.34179086286E+02  0.32192491834E+02  0.68505543984E+03  0.69138397232E+03  0.80661484369E+02 0.  0.
        -11    1    3    3    0    0  0.84475067069E+01  0.16975226951E+02 -0.50328673739E+02  0.53781912387E+02  0.00000000000E+00 0.  1.
         12    1    3    3    0    0  0.20563636039E+02 -0.33106572556E+02 -0.82751912173E+03  0.82843636153E+03  0.00000000000E+00 0. -1.
         11    1    5    5    0    0 -0.99997846026E+00  0.12283367899E+02  0.11946952216E+02  0.17164228824E+02  0.00000000000E+00 0. -1.
        -12    1    5    5    0    0 -0.33179107825E+02  0.19909123935E+02  0.67310848762E+03  0.67421974350E+03  0.00000000000E+00 0.  1.
          5    1    4    4  501    0 -0.44954349816E+02  0.28477567697E+02 -0.66027251518E+02  0.84905451959E+02  0.41800000000E+01 0. -1.
         -5    1    4    4    0  501  0.50122293356E+02 -0.44538713927E+02 -0.29412709559E+02  0.73338402035E+02  0.41800000000E+01 0. -1.
</event>
<event>
11    1  0.8039394E-009  0.1626394E+03  0.7561462E-02  0.1084621E+00
         22   -1    0    0    0    0  0.00000000000E+00  0.00000000000E+00  0.21438207207E+03  0.21438207207E+03  0.00000000000E+00 0.  1.
         22   -1    0    0    0    0 -0.00000000000E+00 -0.00000000000E+00 -0.44262346137E+03  0.44262346137E+03  0.00000000000E+00 0.  1.
        -24    2    1    2    0    0  0.63126204755E+01  0.10426369011E+03 -0.33848002731E+03  0.36282711181E+03  0.78511259838E+02 0.  0.
         25    2    1    2    0    0 -0.32526678898E+02 -0.98102391271E+02  0.10280880787E+02  0.16258925587E+03  0.12508999001E+03 0.  0.
         24    2    1    2    0    0  0.26214058422E+02 -0.61612988408E+01  0.99957757227E+02  0.13158916577E+03  0.81234332979E+02 0.  0.
        -13    1    5    5    0    0 -0.52515375245E+01  0.68038326203E+01  0.97053635726E+02  0.97433459306E+02  0.00000000000E+00 0.  1.
         14    1    5    5    0    0  0.31465595947E+02 -0.12965131461E+02  0.29041215016E+01  0.34155706460E+02  0.00000000000E+00 0. -1.
         13    1    3    3    0    0 -0.20432765949E+02  0.69815269684E+02 -0.12235811705E+03  0.14234879211E+03  0.00000000000E+00 0. -1.
        -14    1    3    3    0    0  0.26745386424E+02  0.34448420429E+02 -0.21612191026E+03  0.22047831970E+03  0.00000000000E+00 0.  1.
          5    1    4    4  501    0 -0.75844640169E+02 -0.65024703543E+02 -0.17116019197E+02  0.10144482257E+03  0.41800000000E+01 0.  1.
         -5    1    4    4    0  501  0.43317961272E+02 -0.33077687729E+02  0.27396899984E+02  0.61144433295E+02  0.41800000000E+01 0.  1.
</event>
<event>
11    1  0.8039394E-009  0.1424441E+03  0.7561462E-02  0.1104859E+00
         22   -1    0    0    0    0  0.00000000000E+00  0.00000000000E+00  0.16117523017E+04  0.16117523017E+04  0.00000000000E+00 0. -1.
         22   -1    0    0    0    0 -0.00000000000E+00 -0.00000000000E+00 -0.11268301614E+03  0.11268301614E+03  0.00000000000E+00 0.  1.
        -24    2    1    2    0    0  0.66685115569E+02 -0.21220347389E+02 -0.65530506689E+02  0.12528195556E+03  0.80648083050E+02 0.  0.
         25    2    1    2    0    0 -0.49459776434E+02  0.11160832123E+02  0.26905161764E+03  0.30101094402E+03  0.12509189347E+03 0.  0.
         24    2    1    2    0    0 -0.17225339135E+02  0.10059515265E+02  0.12955481746E+04  0.12981424182E+04  0.79566067935E+02 0.  0.
        -11    1    5    5    0    0  0.26459084318E+02 -0.86197117836E+01  0.25577145413E+03  0.25728081802E+03  0.00000000000E+00 0.  1.
         12    1    5    5    0    0 -0.43684423453E+02  0.18679227049E+02  0.10397767205E+04  0.10408616002E+04  0.00000000000E+00 0. -1.
         13    1    3    3    0    0  0.96567848618E+01 -0.43719537660E+02 -0.20663271720E+02  0.49311482083E+02  0.00000000000E+00 0. -1.
        -14    1    3    3    0    0  0.57028330707E+02  0.22499190271E+02 -0.44867234970E+02  0.75970473474E+02  0.00000000000E+00 0.  1.
          5    1    4    4  501    0  0.27818370770E+02 -0.14184919452E+02  0.16945696980E+03  0.17236069942E+03  0.41800000000E+01 0.  1.
         -5    1    4    4    0  501 -0.77278147204E+02  0.25345751575E+02  0.99594647841E+02  0.12865024460E+03  0.41800000000E+01 0.  1.
</event>
<event>
11    1  0.8039394E-009  0.1435191E+03  0.7561462E-02  0.1103691E+00
         22   -1    0    0    0    0  0.00000000000E+00  0.00000000000E+00  0.44745703405E+03  0.44745703405E+03  0.00000000000E+00 0. -1.
         22   -1    0    0    0    0 -0.00000000000E+00 -0.00000000000E+00 -0.18604809808E+04  0.18604809808E+04  0.00000000000E+00 0.  1.
        -24    2    1    2    0    0  0.18171022410E+02 -0.67042180309E+02 -0.17011347436E+04  0.17044419815E+04  0.80238472648E+02 0.  0.
         25    2    1    2    0    0 -0.75103897586E+01  0.93439596010E+02 -0.11149933613E+03  0.19200708516E+03  0.12508898728E+03 0.  0.
         24    2    1    2    0    0 -0.10660632652E+02 -0.26397415702E+02  0.39961013299E+03  0.41148894816E+03  0.93938402282E+02 0.  0.
        -11    1    5    5    0    0 -0.21194465468E+02  0.30069969436E+01  0.16294214807E+02  0.26902580420E+02  0.00000000000E+00 0.  1.
         12    1    5    5    0    0  0.10533832816E+02 -0.29404412645E+02  0.38331591818E+03  0.38458636774E+03  0.00000000000E+00 0. -1.
         11    1    3    3    0    0 -0.22684557610E+02 -0.16784553345E+02 -0.20828880467E+03  0.21019166619E+03  0.00000000000E+00 0. -1.
        -12    1    3    3    0    0  0.40855580020E+02 -0.50257626963E+02 -0.14928459389E+04  0.14942503153E+04  0.00000000000E+00 0.  1.
          5    1    4    4  501    0  0.45898468614E+02  0.76568862762E+02 -0.32540016409E+02  0.95109333052E+02  0.41800000000E+01 0. -1.
         -5    1    4    4    0  501 -0.53408858372E+02  0.16870733249E+02 -0.78959319723E+02  0.96897752110E+02  0.41800000000E+01 0. -1.
</event>
<event>
11    1  0.8039394E-009  0.1603102E+03  0.7561462E-02  0.1086786E+00
         22   -1    0    0    0    0  0.00000000000E+00  0.00000000000E+00  0.49066463501E+03  0.49066463501E+03  0.00000000000E+00 0.  1.
         22   -1    0    0    0    0 -0.00000000000E+00 -0.00000000000E+00 -0.28107619305E+03  0.28107619305E+03  0.00000000000E+00 0.  1.
         24    2    1    2    0    0  0.97587819027E+02  0.86034767128E+01 -0.16275269425E+03  0.20628694442E+03  0.80426747537E+02 0.  0.
         25    2    1    2    0    0 -0.10712561177E+03 -0.14909422166E+02 -0.18339347020E+02  0.16637924609E+03  0.12509010479E+03 0.  0.
        -24    2    1    2    0    0  0.95377927401E+01  0.63059454535E+01  0.39068048323E+03  0.39907463755E+03  0.80613844455E+02 0.  0.
        -13    1    3    3    0    0  0.10473531289E+03  0.25841693509E+02 -0.13430448670E+03  0.17226425641E+03  0.00000000000E+00 0.  1.
         14    1    3    3    0    0 -0.71474938585E+01 -0.17238216796E+02 -0.28448207556E+02  0.34022688017E+02  0.00000000000E+00 0. -1.
         11    1    5    5    0    0 -0.21032603946E+02 -0.10724401255E+02  0.38517152901E+02  0.45176921969E+02  0.00000000000E+00 0. -1.
        -12    1    5    5    0    0  0.30570396686E+02  0.17030346708E+02  0.35216333033E+03  0.35389771558E+03  0.00000000000E+00 0.  1.
          5    1    4    4  501    0 -0.95742646455E+02 -0.35293672704E+02  0.35037897929E+02  0.10796955300E+03  0.41800000000E+01 0. -1.
         -5    1    4    4    0  501 -0.11382965311E+02  0.20384250538E+02 -0.53377244949E+02  0.58409693096E+02  0.41800000000E+01 0. -1.
</event>
<event>
11    1  0.8039394E-009  0.2332445E+03  0.7561462E-02  0.1033224E+00
         22   -1    0    0    0    0  0.00000000000E+00  0.00000000000E+00  0.41751570011E+03  0.41751570011E+03  0.00000000000E+00 0.  1.
         22   -1    0    0    0    0 -0.00000000000E+00 -0.00000000000E+00 -0.31633169165E+03  0.31633169165E+03  0.00000000000E+00 0.  1.
         24    2    1    2    0    0  0.17638764779E+03 -0.13789749714E+02 -0.12199735741E+03  0.23022587264E+03  0.82570198786E+02 0.  0.
         25    2    1    2    0    0 -0.28479360838E+03 -0.20040100148E+02  0.13071501122E+03  0.33799834763E+03  0.12508982313E+03 0.  0.
        -24    2    1    2    0    0  0.10840596059E+03  0.33829849861E+02  0.92466354643E+02  0.16562317149E+03  0.77360824465E+02 0.  0.
        -13    1    3    3    0    0  0.14866739366E+03  0.45980379720E+01 -0.61026690299E+02  0.16077124376E+03  0.00000000000E+00 0.  1.
         14    1    3    3    0    0  0.27720254129E+02 -0.18387787686E+02 -0.60970667108E+02  0.69454628878E+02  0.00000000000E+00 0. -1.
         13    1    5    5    0    0  0.40809412191E+02 -0.24703032113E+02  0.27126192986E+02  0.54876937459E+02  0.00000000000E+00 0. -1.
        -14    1    5    5    0    0  0.67596548396E+02  0.58532881975E+02  0.65340161657E+02  0.11074623403E+03  0.00000000000E+00 0.  1.
          5    1    4    4  501    0 -0.26373016915E+03 -0.46002369955E+02  0.84414887310E+02  0.28073682651E+03  0.41800000000E+01 0. -1.
         -5    1    4    4    0  501 -0.21063439234E+02  0.25962269807E+02  0.46300123914E+02  0.57261521114E+02  0.41800000000E+01 0. -1.
</event>
<event>
11    1  0.8039394E-009  0.2083008E+03  0.7561462E-02  0.1048804E+00
         22   -1    0    0    0    0  0.00000000000E+00  0.00000000000E+00  0.40615817061E+03  0.40615817061E+03  0.00000000000E+00 0.  1.
         22   -1    0    0    0    0 -0.00000000000E+00 -0.00000000000E+00 -0.85169852996E+03  0.85169852996E+03  0.00000000000E+00 0. -1.
        -24    2    1    2    0    0 -0.93332133883E+01 -0.35683720616E+02 -0.63820447556E+03  0.64393263025E+03  0.77355302957E+02 0.  0.
         25    2    1    2    0    0  0.41628913817E+02 -0.13169736402E+03 -0.13908716490E+03  0.23252953924E+03  0.12509030748E+03 0.  0.
         24    2    1    2    0    0 -0.32295700429E+02  0.16738108463E+03  0.33175128110E+03  0.38139453108E+03  0.79645690832E+02 0.  0.
        -13    1    5    5    0    0 -0.37368364130E+02  0.11123435462E+03  0.14619445432E+03  0.18746278233E+03  0.00000000000E+00 0.  1.
         14    1    5    5    0    0  0.50726637013E+01  0.56146730010E+02  0.18555682679E+03  0.19393174875E+03  0.00000000000E+00 0. -1.
         13    1    3    3    0    0  0.21661931817E+02 -0.24631682410E+02 -0.11211333753E+03  0.11681335335E+03  0.00000000000E+00 0. -1.
        -14    1    3    3    0    0 -0.30995145206E+02 -0.11052038205E+02 -0.52609113802E+03  0.52711927690E+03  0.00000000000E+00 0.  1.
          5    1    4    4  501    0  0.59215593815E+02 -0.88985363761E+02 -0.25684709832E+02  0.11000935521E+03  0.41800000000E+01 0.  1.
         -5    1    4    4    0  501 -0.17586679998E+02 -0.42712000254E+02 -0.11340245506E+03  0.12252018403E+03  0.41800000000E+01 0.  1.
</event>
<event>
11    1  0.8039394E-009  0.1324212E+03  0.7561462E-02  0.1116329E+00
         22   -1    0    0    0    0  0.00000000000E+00  0.00000000000E+00  0.10264960938E+04  0.10264960938E+04  0.00000000000E+00 0.  1.
         22   -1    0    0    0    0 -0.00000000000E+00 -0.00000000000E+00 -0.16604194533E+03  0.16604194533E+03  0.00000000000E+00 0. -1.
        -24    2    1    2    0    0  0.15691566901E+02 -0.89636937310E+01 -0.11588247231E+03  0.14354357100E+03  0.82761321328E+02 0.  0.
         25    2    1    2    0    0 -0.46490760414E+02 -0.21192271263E+02  0.10042493043E+03  0.16835672380E+03  0.12509323175E+03 0.  0.
         24    2    1    2    0    0  0.30799193513E+02  0.30155964994E+02  0.87591169033E+03  0.88063774431E+03  0.80271881131E+02 0.  0.
        -11    1    5    5    0    0 -0.17817782236E+02  0.31762409299E+02  0.53945251416E+03  0.54068044078E+03  0.00000000000E+00 0.  1.
         12    1    5    5    0    0  0.48616975750E+02 -0.16064443046E+01  0.33645917617E+03  0.33995730353E+03  0.00000000000E+00 0. -1.
         11    1    3    3    0    0  0.16768768725E+02 -0.36475419848E+01 -0.12858830377E+03  0.12972836249E+03  0.00000000000E+00 0. -1.
        -12    1    3    3    0    0 -0.10772018244E+01 -0.53161517463E+01  0.12705831457E+02  0.13815208510E+02  0.00000000000E+00 0.  1.
          5    1    4    4  501    0  0.38279352708E+02 -0.29730980903E+02  0.26050076881E+02  0.55184408801E+02  0.41800000000E+01 0. -1.
         -5    1    4    4    0  501 -0.84770113122E+02  0.85387096402E+01  0.74374853552E+02  0.11317231500E+03  0.41800000000E+01 0. -1.
</event>
<event>
11    1  0.9511958E-009  0.1714047E+03  0.7561462E-02  0.1076816E+00
         22   -1    0    0    0    0  0.00000000000E+00  0.00000000000E+00  0.34588197780E+03  0.34588197780E+03  0.00000000000E+00 0. -1.
         22   -1    0    0    0    0 -0.00000000000E+00 -0.00000000000E+00 -0.13502727362E+04  0.13502727362E+04  0.00000000000E+00 0.  1.
        -24    2    1    2    0    0 -0.55535364608E+02 -0.11245196423E+03 -0.95589057526E+03  0.96765114782E+03  0.83020064027E+02 0.  0.
         25    2    1    2    0    0 -0.39770023138E+02  0.11157902721E+03 -0.35662362563E+03  0.39605485968E+03  0.12508999747E+03 0.  0.
         24    2    1    2    0    0  0.95305387746E+02  0.87293702517E+00  0.30812344251E+03  0.33244870648E+03  0.80611461111E+02 0.  0.
        -13    1    5    5    0    0 -0.20727694126E+01 -0.15541844349E+02  0.10501480763E+02  0.18871311481E+02  0.00000000000E+00 0.  1.
         14    1    5    5    0    0  0.97378157158E+02  0.16414781374E+02  0.29762196174E+03  0.31357739500E+03  0.00000000000E+00 0. -1.
         11    1    3    3    0    0 -0.55497587087E+02 -0.66623542012E+02 -0.37231496873E+03  0.38227884386E+03  0.00000000000E+00 0. -1.
        -12    1    3    3    0    0 -0.37777521164E-01 -0.45828422222E+02 -0.58357560653E+03  0.58537230396E+03  0.00000000000E+00 0.  1.
          5    1    4    4  501    0  0.31515028331E+02  0.53151971149E+02 -0.63284907972E+02  0.88548184763E+02  0.41800000000E+01 0. -1.
         -5    1    4    4    0  501 -0.71285051469E+02  0.58427056060E+02 -0.29333871766E+03  0.30750667492E+03  0.41800000000E+01 0. -1.
</event>
<event>
11    1  0.8039394E-009  0.1514674E+03  0.7561462E-02  0.1095389E+00
         22   -1    0    0    0    0  0.00000000000E+00  0.00000000000E+00  0.14332397566E+03  0.14332397566E+03  0.00000000000E+00 0.  1.
         22   -1    0    0    0    0 -0.00000000000E+00 -0.00000000000E+00 -0.85211967956E+03  0.85211967956E+03  0.00000000000E+00 0. -1.
        -24    2    1    2    0    0  0.29869587793E+02 -0.21556185483E+02 -0.48285403275E+03  0.49081817240E+03  0.79984998625E+02 0.  0.
         25    2    1    2    0    0 -0.95203142109E+02  0.72617340222E+02 -0.31861780291E+03  0.36263289545E+03  0.12509354965E+03 0.  0.
         24    2    1    2    0    0  0.65333554316E+02 -0.51061154739E+02  0.92676131766E+02  0.14199258736E+03  0.68536958093E+02 0.  0.
        -13    1    5    5    0    0  0.60415330443E+02 -0.45766221792E+01  0.57042520987E+02  0.83215424193E+02  0.00000000000E+00 0.  1.
         14    1    5    5    0    0  0.49182238728E+01 -0.46484532560E+02  0.35633610779E+02  0.58777163171E+02  0.00000000000E+00 0. -1.
         11    1    3    3    0    0  0.43014364534E+02  0.14009655395E+02 -0.34085408170E+03  0.34384300344E+03  0.00000000000E+00 0. -1.
        -12    1    3    3    0    0 -0.13144776741E+02 -0.35565840878E+02 -0.14199995105E+03  0.14697516896E+03  0.00000000000E+00 0.  1.
          5    1    4    4  501    0 -0.30100097988E+02  0.38664496928E+02 -0.16775119320E+02  0.51959948516E+02  0.41800000000E+01 0.  1.
         -5    1    4    4    0  501 -0.65103044122E+02  0.33952843293E+02 -0.30184268359E+03  0.31067294694E+03  0.41800000000E+01 0.  1.
</event>
<event>
11    1  0.8039394E-009  0.2426814E+03  0.7561462E-02  0.1027872E+00
         22   -1    0    0    0    0  0.00000000000E+00  0.00000000000E+00  0.89579839453E+03  0.89579839453E+03  0.00000000000E+00 0. -1.
         22   -1    0    0    0    0 -0.00000000000E+00 -0.00000000000E+00 -0.49800211996E+03  0.49800211996E+03  0.00000000000E+00 0. -1.
         24    2    1    2    0    0  0.91402644271E+01  0.15261089555E+02 -0.12814297206E+03  0.15291515478E+03  0.81522867860E+02 0.  0.
         25    2    1    2    0    0  0.16260686414E+03 -0.13242831155E+03 -0.29916007171E+03  0.38616755796E+03  0.12510149617E+03 0.  0.
        -24    2    1    2    0    0 -0.17174712857E+03  0.11716722200E+03  0.82509931834E+03  0.85471780175E+03  0.80798523614E+02 0.  0.
        -11    1    3    3    0    0  0.25221384020E+02 -0.27197036723E+01 -0.30880549731E+01  0.25554864185E+02  0.00000000000E+00 0.  1.
         12    1    3    3    0    0 -0.16081119593E+02  0.17980793227E+02 -0.12505491709E+03  0.12736029059E+03  0.00000000000E+00 0. -1.
         13    1    5    5    0    0 -0.14288030641E+03  0.11429124682E+03  0.77940073399E+03  0.80058901766E+03  0.00000000000E+00 0. -1.
        -14    1    5    5    0    0 -0.28866822161E+02  0.28759751742E+01  0.45698584350E+02  0.54128784084E+02  0.00000000000E+00 0.  1.
          5    1    4    4  501    0  0.10650602715E+02  0.53682690505E+01  0.93085081743E+01  0.15696317250E+02  0.41800000000E+01 0.  1.
         -5    1    4    4    0  501  0.15195626143E+03 -0.13779658060E+03 -0.30846857989E+03  0.37047124071E+03  0.41800000000E+01 0.  1.
</event>
<event>
11    1  0.8039394E-009  0.2854886E+03  0.7561462E-02  0.1006527E+00
         22   -1    0    0    0    0  0.00000000000E+00  0.00000000000E+00  0.13592306958E+04  0.13592306958E+04  0.00000000000E+00 0. -1.
         22   -1    0    0    0    0 -0.00000000000E+00 -0.00000000000E+00 -0.36183734816E+03  0.36183734816E+03  0.00000000000E+00 0.  1.
         24    2    1    2    0    0 -0.66206710676E+02  0.24687538702E+03 -0.27938464340E+03  0.38682419564E+03  0.79034132560E+02 0.  0.
         25    2    1    2    0    0  0.54949230473E+02 -0.27089140478E+03  0.98452594808E+03  0.10302131727E+04  0.12508504150E+03 0.  0.
        -24    2    1    2    0    0  0.11257480202E+02  0.24016017762E+02  0.29225204293E+03  0.30403067561E+03  0.79497768157E+02 0.  0.
        -13    1    3    3    0    0 -0.55671794843E+02  0.10659440870E+03 -0.17188479140E+03  0.20977630519E+03  0.00000000000E+00 0.  1.
         14    1    3    3    0    0 -0.10534915833E+02  0.14028097833E+03 -0.10749985200E+03  0.17704789045E+03  0.00000000000E+00 0. -1.
         11    1    5    5    0    0 -0.34220176277E+02  0.14471370139E+02  0.11994399582E+03  0.12556672789E+03  0.00000000000E+00 0. -1.
        -12    1    5    5    0    0  0.45477656480E+02  0.95446476224E+01  0.17230804711E+03  0.17846394772E+03  0.00000000000E+00 0.  1.
          5    1    4    4  501    0  0.55272255552E+01 -0.11102628674E+02  0.26671982548E+01  0.13356830924E+02  0.41800000000E+01 0.  1.
         -5    1    4    4    0  501  0.49422004918E+02 -0.25978877611E+03  0.98185874982E+03  0.10168563418E+04  0.41800000000E+01 0.  1.
</event>
<event>
11    1  0.8039394E-009  0.3392580E+03  0.7561462E-02  0.9848217E-01
         22   -1    0    0    0    0  0.00000000000E+00  0.00000000000E+00  0.51808767547E+03  0.51808767547E+03  0.00000000000E+00 0. -1.
         22   -1    0    0    0    0 -0.00000000000E+00 -0.00000000000E+00 -0.43037752672E+03  0.43037752672E+03  0.00000000000E+00 0.  1.
        -24    2    1    2    0    0  0.76048162753E+02 -0.26444269659E+03 -0.69195734306E+02  0.30045219252E+03  0.98844360005E+02 0.  0.
         25    2    1    2    0    0 -0.28686790161E+02  0.38354018490E+03 -0.32259676832E+02  0.40572622057E+03  0.12508826464E+03 0.  0.
         24    2    1    2    0    0 -0.47361372592E+02 -0.11909748831E+03  0.18916555988E+03  0.24228678910E+03  0.80572748441E+02 0.  0.
        -11    1    5    5    0    0 -0.12357463573E+02  0.84062584026E+01  0.41329065088E+02  0.43948420988E+02  0.00000000000E+00 0.  1.
         12    1    5    5    0    0 -0.35003909018E+02 -0.12750374671E+03  0.14783649479E+03  0.19833836811E+03  0.00000000000E+00 0. -1.
         11    1    3    3    0    0  0.88812501375E+02 -0.13702998447E+03 -0.51267969617E+02  0.17115280235E+03  0.00000000000E+00 0. -1.
        -12    1    3    3    0    0 -0.12764338622E+02 -0.12741271212E+03 -0.17927764689E+02  0.12929939017E+03  0.00000000000E+00 0.  1.
          5    1    4    4  501    0 -0.32859924976E+02  0.33162126540E+03  0.17283461253E+02  0.33371938627E+03  0.41800000000E+01 0. -1.
         -5    1    4    4    0  501  0.41731348154E+01  0.51918919496E+02 -0.49543138086E+02  0.72006834309E+02  0.41800000000E+01 0. -1.
</event>
<event>
11    1  0.8039394E-009  0.1302185E+03  0.7561462E-02  0.1119001E+00
         22   -1    0    0    0    0  0.00000000000E+00  0.00000000000E+00  0.40216637772E+03  0.40216637772E+03  0.00000000000E+00 0. -1.
         22   -1    0    0    0    0 -0.00000000000E+00 -0.00000000000E+00 -0.14141330556E+03  0.14141330556E+03  0.00000000000E+00 0.  1.
        -24    2    1    2    0    0 -0.30993593011E+02 -0.12374243958E+02 -0.68264608936E+02  0.10849898627E+03  0.77448360007E+02 0.  0.
         25    2    1    2    0    0  0.50709680099E+02  0.38019623436E+02  0.60669498621E+02  0.15279032320E+03  0.12508849419E+03 0.  0.
         24    2    1    2    0    0 -0.19716087089E+02 -0.25645379478E+02  0.26834818247E+03  0.28229037381E+03  0.81429101254E+02 0.  0.
        -11    1    5    5    0    0 -0.50110300227E+02 -0.44222587081E+01  0.14399021927E+03  0.15252469244E+03  0.00000000000E+00 0.  1.
         12    1    5    5    0    0  0.30394213138E+02 -0.21223120770E+02  0.12435796321E+03  0.12976568137E+03  0.00000000000E+00 0. -1.
         13    1    3    3    0    0  0.30809951250E+01 -0.34199759159E+02 -0.69487822743E+01  0.35034292238E+02  0.00000000000E+00 0. -1.
        -14    1    3    3    0    0 -0.34074588136E+02  0.21825515202E+02 -0.61315826661E+02  0.73464694035E+02  0.00000000000E+00 0.  1.
          5    1    4    4  501    0  0.33129254946E+02  0.71705513885E+01 -0.36059183703E+02  0.49665898459E+02  0.41800000000E+01 0.  1.
         -5    1    4    4    0  501  0.17580425154E+02  0.30849072048E+02  0.96728682324E+02  0.10312442474E+03  0.41800000000E+01 0.  1.
</event>
<event>
11    1  0.8039394E-009  0.1482520E+03  0.7561462E-02  0.1098678E+00
         22   -1    0    0    0    0  0.00000000000E+00  0.00000000000E+00  0.52139942957E+03  0.52139942957E+03  0.00000000000E+00 0. -1.
         22   -1    0    0    0    0 -0.00000000000E+00 -0.00000000000E+00 -0.10729290373E+04  0.10729290373E+04  0.00000000000E+00 0. -1.
         24    2    1    2    0    0 -0.54772217238E+02  0.61141664589E+02 -0.10174460685E+04  0.10238957944E+04  0.80173539876E+02 0.  0.
         25    2    1    2    0    0 -0.59129203678E+01 -0.18848953003E+02  0.43907521220E+02  0.13403433489E+03  0.12508831622E+03 0.  0.
        -24    2    1    2    0    0  0.60685137606E+02 -0.42292711586E+02  0.42200893956E+03  0.43639833758E+03  0.82949409867E+02 0.  0.
        -13    1    3    3    0    0 -0.50551707083E+02  0.60474511633E+02 -0.47967515419E+03  0.48610790489E+03  0.00000000000E+00 0.  1.
         14    1    3    3    0    0 -0.42205101557E+01  0.66715295599E+00 -0.53777091430E+03  0.53778788947E+03  0.00000000000E+00 0. -1.
         13    1    5    5    0    0  0.86194505825E+01 -0.16153589900E+01  0.27596015880E+03  0.27609946316E+03  0.00000000000E+00 0. -1.
        -14    1    5    5    0    0  0.52065687024E+02 -0.40677352596E+02  0.14604878076E+03  0.16029887442E+03  0.00000000000E+00 0.  1.
          5    1    4    4  501    0 -0.54067076837E+02 -0.45305348729E+02  0.16835558453E+02  0.72641116797E+02  0.41800000000E+01 0. -1.
         -5    1    4    4    0  501  0.48154156469E+02  0.26456395727E+02  0.27071962767E+02  0.61393218096E+02  0.41800000000E+01 0. -1.
</event>
<event>
11    1  0.8039394E-009  0.1345404E+03  0.7561462E-02  0.1113813E+00
         22   -1    0    0    0    0  0.00000000000E+00  0.00000000000E+00  0.41868925671E+03  0.41868925671E+03  0.00000000000E+00 0. -1.
         22   -1    0    0    0    0 -0.00000000000E+00 -0.00000000000E+00 -0.52713016580E+03  0.52713016580E+03  0.00000000000E+00 0.  1.
        -24    2    1    2    0    0 -0.46628081367E+02  0.11316987610E+02 -0.42111318920E+03  0.43195799173E+03  0.83361479821E+02 0.  0.
         25    2    1    2    0    0  0.58673188988E+02 -0.30902349696E+02 -0.43497414370E+02  0.14811003916E+03  0.12508821015E+03 0.  0.
         24    2    1    2    0    0 -0.12045107621E+02  0.19585362085E+02  0.35616969448E+03  0.36575139162E+03  0.79928456646E+02 0.  0.
        -13    1    5    5    0    0 -0.77024267769E+01 -0.20822007656E+02  0.31439334434E+02  0.38487856926E+02  0.00000000000E+00 0.  1.
         14    1    5    5    0    0 -0.43426808442E+01  0.40407369741E+02  0.32473036005E+03  0.32726353470E+03  0.00000000000E+00 0. -1.
         13    1    3    3    0    0 -0.54091558497E+02  0.33186359080E+02 -0.20461485336E+03  0.21422994503E+03  0.00000000000E+00 0. -1.
        -14    1    3    3    0    0  0.74634771302E+01 -0.21869371470E+02 -0.21649833584E+03  0.21772804670E+03  0.00000000000E+00 0.  1.
          5    1    4    4  501    0  0.92229753358E+02 -0.19918337595E+02 -0.33866371086E+01  0.94509307943E+02  0.41800000000E+01 0.  1.
         -5    1    4    4    0  501 -0.33556564370E+02 -0.10984012100E+02 -0.40110777262E+02  0.53600731214E+02  0.41800000000E+01 0.  1.
</event>
<event>
11    1  0.8039394E-009  0.1910823E+03  0.7561462E-02  0.1061015E+00
         22   -1    0    0    0    0  0.00000000000E+00  0.00000000000E+00  0.15552525180E+04  0.15552525180E+04  0.00000000000E+00 0.  1.
         22   -1    0    0    0    0 -0.00000000000E+00 -0.00000000000E+00 -0.15448533274E+04  0.15448533274E+04  0.00000000000E+00 0.  1.
        -24    2    1    2    0    0  0.78455278449E+02 -0.29028492707E+02 -0.12377113911E+04  0.12431433841E+04  0.80486654469E+02 0.  0.
         25    2    1    2    0    0 -0.16393332398E+03  0.14420491504E+03 -0.24724059620E+03  0.35276620295E+03  0.12508752656E+03 0.  0.
         24    2    1    2    0    0  0.85478045534E+02 -0.11517642234E+03  0.14953511780E+04  0.15041962583E+04  0.77195425218E+02 0.  0.
        -11    1    5    5    0    0  0.40417909088E+02 -0.94686006497E+02  0.12274825772E+04  0.12317924032E+04  0.00000000000E+00 0.  1.
         12    1    5    5    0    0  0.45060136446E+02 -0.20490415839E+02  0.26786860072E+03  0.27240385513E+03  0.00000000000E+00 0. -1.
         13    1    3    3    0    0  0.25252682072E+01 -0.12831654801E+02 -0.67222642884E+03  0.67235362718E+03  0.00000000000E+00 0. -1.
        -14    1    3    3    0    0  0.75930010241E+02 -0.16196837906E+02 -0.56548496231E+03  0.57078975692E+03  0.00000000000E+00 0.  1.
          5    1    4    4  501    0 -0.13905001879E+02 -0.47101184368E+01 -0.84743530363E+02  0.86107332042E+02  0.41800000000E+01 0. -1.
         -5    1    4    4    0  501 -0.15002832210E+03  0.14891503348E+03 -0.16249706584E+03  0.26665887091E+03  0.41800000000E+01 0. -1.
</event>
<event>
11    1  0.8039394E-009  0.1572000E+03  0.7561462E-02  0.1089741E+00
         22   -1    0    0    0    0  0.00000000000E+00  0.00000000000E+00  0.42766717156E+03  0.42766717156E+03  0.00000000000E+00 0.  1.
         22   -1    0    0    0    0 -0.00000000000E+00 -0.00000000000E+00 -0.59068791000E+03  0.59068791000E+03  0.00000000000E+00 0. -1.
        -24    2    1    2    0    0 -0.33779712079E+02 -0.62742189819E+01 -0.45516064795E+03  0.46329554438E+03  0.79316525532E+02 0.  0.
         25    2    1    2    0    0  0.43869517458E+02  0.10012933039E+03 -0.64180220463E+02  0.17809402542E+03  0.12509182157E+03 0.  0.
         24    2    1    2    0    0 -0.10089805379E+02 -0.93855111411E+02  0.35632012997E+03  0.37696551176E+03  0.78920060339E+02 0.  0.
        -11    1    5    5    0    0 -0.39070725536E+02 -0.32208589548E+02  0.20254231058E+03  0.20877572275E+03  0.00000000000E+00 0.  1.
         12    1    5    5    0    0  0.28980920157E+02 -0.61646521862E+02  0.15377781939E+03  0.16818978901E+03  0.00000000000E+00 0. -1.
         11    1    3    3    0    0 -0.69265226255E+01 -0.56767659969E+01 -0.41430284932E+03  0.41439962999E+03  0.00000000000E+00 0. -1.
        -12    1    3    3    0    0 -0.26853189453E+02 -0.59745298503E+00 -0.40857798638E+02  0.48895914384E+02  0.00000000000E+00 0.  1.
          5    1    4    4  501    0 -0.16487955701E+02  0.43418044188E+02  0.27769954069E+02  0.54273584673E+02  0.41800000000E+01 0.  1.
         -5    1    4    4    0  501  0.60357473159E+02  0.56711286205E+02 -0.91950174532E+02  0.12382044074E+03  0.41800000000E+01 0.  1.
</event>
<event>
11    1  0.8039394E-009  0.1380781E+03  0.7561462E-02  0.1109724E+00
         22   -1    0    0    0    0  0.00000000000E+00  0.00000000000E+00  0.76343445700E+03  0.76343445700E+03  0.00000000000E+00 0. -1.
         22   -1    0    0    0    0 -0.00000000000E+00 -0.00000000000E+00 -0.50325998901E+03  0.50325998901E+03  0.00000000000E+00 0.  1.
         24    2    1    2    0    0 -0.76812362923E+01 -0.66790972212E+02 -0.45842432566E+03  0.46964874849E+03  0.76792247289E+02 0.  0.
         25    2    1    2    0    0 -0.24629810687E+01  0.19610654537E+01  0.76668886273E+02  0.14675243846E+03  0.12509295751E+03 0.  0.
        -24    2    1    2    0    0  0.10144217361E+02  0.64829906759E+02  0.64192990738E+03  0.65029325906E+03  0.80631847522E+02 0.  0.
        -13    1    3    3    0    0  0.22464707052E+02  0.32047342018E+00 -0.19003002576E+03  0.19135353787E+03  0.00000000000E+00 0.  1.
         14    1    3    3    0    0 -0.30145943344E+02 -0.67111445633E+02 -0.26839429990E+03  0.27829521062E+03  0.00000000000E+00 0. -1.
         13    1    5    5    0    0 -0.33501933621E+02  0.43508644137E+02  0.30960853062E+03  0.31444049342E+03  0.00000000000E+00 0. -1.
        -14    1    5    5    0    0  0.43646150982E+02  0.21321262622E+02  0.33232137676E+03  0.33585276564E+03  0.00000000000E+00 0.  1.
          5    1    4    4  501    0 -0.53436085318E+01  0.42791683963E+02  0.92911999073E+02  0.10251728801E+03  0.41800000000E+01 0.  1.
         -5    1    4    4    0  501  0.28806274631E+01 -0.40830618509E+02 -0.16243112800E+02  0.44235150456E+02  0.41800000000E+01 0.  1.
</event>
<event>
11    1  0.8039394E-009  0.1302643E+03  0.7561462E-02  0.1118945E+00
         22   -1    0    0    0    0  0.00000000000E+00  0.00000000000E+00  0.99859336009E+02  0.99859336009E+02  0.00000000000E+00 0.  1.
         22   -1    0    0    0    0 -0.00000000000E+00 -0.00000000000E+00 -0.22650272363E+04  0.22650272363E+04  0.00000000000E+00 0. -1.
         24    2    1    2    0    0  0.14455586922E+01 -0.91096292911E+00 -0.15427108947E+04  0.15446159011E+04  0.76671101122E+02 0.  0.
         25    2    1    2    0    0 -0.30893760090E+02  0.22148583647E+02 -0.69483310354E+03  0.70702550595E+03  0.12508812939E+03 0.  0.
        -24    2    1    2    0    0  0.29448201397E+02 -0.21237620717E+02  0.72376097966E+02  0.11324516527E+03  0.79170289882E+02 0.  0.
        -13    1    3    3    0    0  0.33989538061E+01  0.16024538652E+02 -0.73383245608E+02  0.75189357372E+02  0.00000000000E+00 0.  1.
         14    1    3    3    0    0 -0.19533951139E+01 -0.16935501581E+02 -0.14693276491E+04  0.14694265437E+04  0.00000000000E+00 0. -1.
         13    1    5    5    0    0 -0.64290711519E+01  0.26530379911E+02  0.24661401125E+02  0.36788295959E+02  0.00000000000E+00 0. -1.
        -14    1    5    5    0    0  0.35877272549E+02 -0.47768000628E+02  0.47714696841E+02  0.76456869307E+02  0.00000000000E+00 0.  1.
          5    1    4    4  501    0 -0.67779734307E+02  0.38458814783E+02 -0.29524347732E+03  0.30538394869E+03  0.41800000000E+01 0. -1.
         -5    1    4    4    0  501  0.36885974217E+02 -0.16310231137E+02 -0.39958962622E+03  0.40164155726E+03  0.41800000000E+01 0. -1.
</event>
<event>
11    1  0.8039394E-009  0.1461965E+03  0.7561462E-02  0.1100830E+00
         22   -1    0    0    0    0  0.00000000000E+00  0.00000000000E+00  0.39918606532E+03  0.39918606532E+03  0.00000000000E+00 0.  1.
         22   -1    0    0    0    0 -0.00000000000E+00 -0.00000000000E+00 -0.51262012406E+03  0.51262012406E+03  0.00000000000E+00 0. -1.
         24    2    1    2    0    0 -0.54014559345E+02 -0.23227315337E+02 -0.40433612801E+03  0.41675784875E+03  0.82111626953E+02 0.  0.
         25    2    1    2    0    0 -0.26158552225E+02  0.10515163671E+02 -0.47600605836E+02  0.13677783220E+03  0.12509004430E+03 0.  0.
        -24    2    1    2    0    0  0.80173111570E+02  0.12712151666E+02  0.33850267510E+03  0.35827050843E+03  0.84760660328E+02 0.  0.
        -11    1    3    3    0    0 -0.40309264157E+02  0.11919900050E+02 -0.81275582637E+02  0.91502137282E+02  0.00000000000E+00 0.  1.
         12    1    3    3    0    0 -0.13705295188E+02 -0.35147215388E+02 -0.32306054537E+03  0.32525571147E+03  0.00000000000E+00 0. -1.
         11    1    5    5    0    0  0.60609736082E+02  0.16170539581E+02  0.94285206925E+02  0.11324630989E+03  0.00000000000E+00 0. -1.
        -12    1    5    5    0    0  0.19563375488E+02 -0.34583879148E+01  0.24421746818E+03  0.24502419854E+03  0.00000000000E+00 0.  1.
          5    1    4    4  501    0 -0.67119904585E+02 -0.10282159992E+01 -0.62182403706E+02  0.91598376352E+02  0.41800000000E+01 0.  1.
         -5    1    4    4    0  501  0.40961352359E+02  0.11543379670E+02  0.14581797870E+02  0.45179455845E+02  0.41800000000E+01 0.  1.
</event>
<event>
11    1  0.8039394E-009  0.1590819E+03  0.7561462E-02  0.1087944E+00
         22   -1    0    0    0    0  0.00000000000E+00  0.00000000000E+00  0.20224407946E+04  0.20224407946E+04  0.00000000000E+00 0.  1.
         22   -1    0    0    0    0 -0.00000000000E+00 -0.00000000000E+00 -0.35871111615E+03  0.35871111615E+03  0.00000000000E+00 0.  1.
         24    2    1    2    0    0 -0.16391428547E+02 -0.95017553066E+02 -0.30248047966E+03  0.32767660902E+03  0.81120313127E+02 0.  0.
         25    2    1    2    0    0  0.23662064454E+01  0.12730072512E+03  0.14467963542E+03  0.22976202982E+03  0.12508924771E+03 0.  0.
        -24    2    1    2    0    0  0.14025222102E+02 -0.32283172049E+02  0.18215305227E+04  0.18237132719E+04  0.81961838721E+02 0.  0.
        -13    1    3    3    0    0 -0.25867143602E+02 -0.10333485445E+03 -0.29339956641E+03  0.31213860195E+03  0.00000000000E+00 0.  1.
         14    1    3    3    0    0  0.94757150551E+01  0.83173013800E+01 -0.90809132541E+01  0.15538007066E+02  0.00000000000E+00 0. -1.
         11    1    5    5    0    0  0.90824673520E+01  0.41089108241E+01  0.26592594497E+02  0.28399655692E+02  0.00000000000E+00 0. -1.
        -12    1    5    5    0    0  0.49427547497E+01 -0.36392082873E+02  0.17949379282E+04  0.17953136162E+04  0.00000000000E+00 0.  1.
          5    1    4    4  501    0 -0.79616201465E+00  0.10180880380E+03  0.16689603002E+03  0.19554391743E+03  0.41800000000E+01 0. -1.
         -5    1    4    4    0  501  0.31623684601E+01  0.25491921314E+02 -0.22216394602E+02  0.34218112392E+02  0.41800000000E+01 0. -1.
</event>
<event>
11    1  0.8039394E-009  0.2101991E+03  0.7561462E-02  0.1047537E+00
         22   -1    0    0    0    0  0.00000000000E+00  0.00000000000E+00  0.19234299230E+04  0.19234299230E+04  0.00000000000E+00 0. -1.
         22   -1    0    0    0    0 -0.00000000000E+00 -0.00000000000E+00 -0.19872156322E+04  0.19872156322E+04  0.00000000000E+00 0. -1.
         24    2    1    2    0    0  0.46116342858E+01 -0.19740309076E+02 -0.18699192881E+04  0.18717818111E+04  0.80981833149E+02 0.  0.
         25    2    1    2    0    0  0.62674753884E+02  0.17395961359E+03  0.95736184647E-01  0.22324162727E+03  0.12508694196E+03 0.  0.
        -24    2    1    2    0    0 -0.67286388169E+02 -0.15421930451E+03  0.18060378428E+04  0.18156221168E+04  0.79999559820E+02 0.  0.
        -13    1    3    3    0    0  0.36621624627E+02  0.10887458265E+02 -0.72542235977E+03  0.72642775290E+03  0.00000000000E+00 0.  1.
         14    1    3    3    0    0 -0.32009990341E+02 -0.30627767340E+02 -0.11444969284E+04  0.11453540582E+04  0.00000000000E+00 0. -1.
         11    1    5    5    0    0 -0.78300698101E+02 -0.15197236074E+03  0.17577041686E+04  0.17659984547E+04  0.00000000000E+00 0. -1.
        -12    1    5    5    0    0  0.11014309931E+02 -0.22469437694E+01  0.48333674228E+02  0.49623662138E+02  0.00000000000E+00 0.  1.
          5    1    4    4  501    0  0.82898101129E+02  0.66286340557E+02 -0.28416975563E+02  0.10995895150E+03  0.41800000000E+01 0. -1.
         -5    1    4    4    0  501 -0.20223347246E+02  0.10767327303E+03  0.28512711747E+02  0.11328267577E+03  0.41800000000E+01 0. -1.
</event>
<event>
11    1  0.8039394E-009  0.1328790E+03  0.7561462E-02  0.1115781E+00
         22   -1    0    0    0    0  0.00000000000E+00  0.00000000000E+00  0.34191341569E+03  0.34191341569E+03  0.00000000000E+00 0.  1.
         22   -1    0    0    0    0 -0.00000000000E+00 -0.00000000000E+00 -0.29185563155E+04  0.29185563155E+04  0.00000000000E+00 0.  1.
        -24    2    1    2    0    0  0.44822501969E+02  0.63996793599E+01 -0.28354531537E+04  0.28369530299E+04  0.80361026570E+02 0.  0.
         25    2    1    2    0    0 -0.14750790305E+02  0.14904060875E+02 -0.22828781163E+02  0.12887524732E+03  0.12509180339E+03 0.  0.
         24    2    1    2    0    0 -0.30071711664E+02 -0.21303740235E+02  0.28163903499E+03  0.29464145401E+03  0.78325495232E+02 0.  0.
        -13    1    5    5    0    0 -0.46416877547E+02 -0.12079931069E+02  0.26577120748E+03  0.27006441080E+03  0.00000000000E+00 0.  1.
         14    1    5    5    0    0  0.16345165882E+02 -0.92238091659E+01  0.15867827510E+02  0.24577043214E+02  0.00000000000E+00 0. -1.
         11    1    3    3    0    0  0.48430327117E+02 -0.58554550061E+01 -0.81454496639E+03  0.81600446396E+03  0.00000000000E+00 0. -1.
        -12    1    3    3    0    0 -0.36078251482E+01  0.12255134366E+02 -0.20209081873E+04  0.20209485659E+04  0.00000000000E+00 0.  1.
          5    1    4    4  501    0  0.17672296006E+02  0.59878946534E+02 -0.35370557136E+02  0.71877305155E+02  0.41800000000E+01 0.  1.
         -5    1    4    4    0  501 -0.32423086311E+02 -0.44974885659E+02  0.12541775973E+02  0.56997942160E+02  0.41800000000E+01 0.  1.
</event>
<event>
11    1  0.8039394E-009  0.1300784E+03  0.7561462E-02  0.1119173E+00
         22   -1    0    0    0    0  0.00000000000E+00  0.00000000000E+00  0.12157844240E+03  0.12157844240E+03  0.00000000000E+00 0.  1.
         22   -1    0    0    0    0 -0.00000000000E+00 -0.00000000000E+00 -0.57246575921E+03  0.57246575921E+03  0.00000000000E+00 0.  1.
        -24    2    1    2    0    0  0.70681407874E+01 -0.14957727666E+02 -0.45994324826E+03  0.46542989607E+03  0.69307317831E+02 0.  0.
         25    2    1    2    0    0  0.30234909405E+02  0.67867207363E+01 -0.29212256460E+02  0.13214017821E+03  0.12508981351E+03 0.  0.
         24    2    1    2    0    0 -0.37303050193E+02  0.81710069301E+01  0.38268187920E+02  0.96474127324E+02  0.79903192229E+02 0.  0.
        -11    1    5    5    0    0 -0.11599995875E+01  0.34042166012E+01  0.55873895446E+02  0.55989521181E+02  0.00000000000E+00 0.  1.
         12    1    5    5    0    0 -0.36143050605E+02  0.47667903289E+01 -0.17605707526E+02  0.40484606144E+02  0.00000000000E+00 0. -1.
         11    1    3    3    0    0  0.29285082362E+02 -0.19651716053E+02 -0.12977782430E+03  0.13448453321E+03  0.00000000000E+00 0. -1.
        -12    1    3    3    0    0 -0.22216941574E+02  0.46939883868E+01 -0.33016542396E+03  0.33094536286E+03  0.00000000000E+00 0.  1.
          5    1    4    4  501    0 -0.17398459542E+02 -0.16646457021E+02  0.38742769536E+02  0.45807046588E+02  0.41800000000E+01 0.  1.
         -5    1    4    4    0  501  0.47633368947E+02  0.23433177757E+02 -0.67955025996E+02  0.86333131620E+02  0.41800000000E+01 0.  1.
</event>
<event>
11    1  0.8039394E-009  0.1623430E+03  0.7561462E-02  0.1084894E+00
         22   -1    0    0    0    0  0.00000000000E+00  0.00000000000E+00  0.10842573444E+04  0.10842573444E+04  0.00000000000E+00 0.  1.
         22   -1    0    0    0    0 -0.00000000000E+00 -0.00000000000E+00 -0.68934182888E+02  0.68934182888E+02  0.00000000000E+00 0. -1.
         24    2    1    2    0    0  0.51181115725E+02 -0.91954307303E+02  0.26197430458E+02  0.13433480514E+03  0.79274417504E+02 0.  0.
         25    2    1    2    0    0 -0.48710148660E+02  0.78049938187E+02  0.51560906460E+03  0.53848421465E+03  0.12509224792E+03 0.  0.
        -24    2    1    2    0    0 -0.24709670646E+01  0.13904369115E+02  0.47351666641E+03  0.48037250746E+03  0.79625846300E+02 0.  0.
        -11    1    3    3    0    0  0.84835302190E+00  0.51593430910E+01  0.24383345420E+02  0.24937643390E+02  0.00000000000E+00 0.  1.
         12    1    3    3    0    0  0.50332762703E+02 -0.97113650394E+02  0.18140850382E+01  0.10939716175E+03  0.00000000000E+00 0. -1.
         11    1    5    5    0    0 -0.52531510460E+01  0.46941829732E+02  0.25202624346E+03  0.25641442698E+03  0.00000000000E+00 0. -1.
        -12    1    5    5    0    0  0.27821839814E+01 -0.33037460616E+02  0.22149042296E+03  0.22395808048E+03  0.00000000000E+00 0.  1.
          5    1    4    4  501    0 -0.32402435983E+02  0.67772373162E+02  0.51311677002E+03  0.51860322453E+03  0.41800000000E+01 0. -1.
         -5    1    4    4    0  501 -0.16307712677E+02  0.10277565026E+02  0.24922945848E+01  0.19880990114E+02  0.41800000000E+01 0. -1.
</event>
<event>
11    1  0.8039394E-009  0.1387776E+03  0.7561462E-02  0.1108931E+00
         22   -1    0    0    0    0  0.00000000000E+00  0.00000000000E+00  0.89019066053E+03  0.89019066053E+03  0.00000000000E+00 0. -1.
         22   -1    0    0    0    0 -0.00000000000E+00 -0.00000000000E+00 -0.10029544302E+03  0.10029544302E+03  0.00000000000E+00 0. -1.
        -24    2    1    2    0    0  0.10462439958E+02 -0.56770059705E+02 -0.41351483774E+02  0.10699177001E+03  0.80031189606E+02 0.  0.
         25    2    1    2    0    0  0.51546174781E+01  0.78834353437E+02  0.21141994784E+03  0.25804751946E+03  0.12509477444E+03 0.  0.
         24    2    1    2    0    0 -0.15617057436E+02 -0.22064293732E+02  0.61982675344E+03  0.62544681409E+03  0.79169359140E+02 0.  0.
        -13    1    5    5    0    0 -0.18710941971E+02 -0.42868438383E+02  0.21293163932E+03  0.21800845254E+03  0.00000000000E+00 0.  1.
         14    1    5    5    0    0  0.30938845350E+01  0.20804144651E+02  0.40689511413E+03  0.40743836154E+03  0.00000000000E+00 0. -1.
         13    1    3    3    0    0 -0.84172371570E+01 -0.61701693486E+02 -0.11261357063E+01  0.62283360876E+02  0.00000000000E+00 0. -1.
        -14    1    3    3    0    0  0.18879677115E+02  0.49316337808E+01 -0.40225348067E+02  0.44708409129E+02  0.00000000000E+00 0.  1.
          5    1    4    4  501    0  0.37727844791E+02  0.94814787368E+02  0.18999397399E+03  0.21570446617E+03  0.41800000000E+01 0.  1.
         -5    1    4    4    0  501 -0.32573227312E+02 -0.15980433930E+02  0.21425973854E+02  0.42343053288E+02  0.41800000000E+01 0.  1.
</event>
<event>
11    1  0.8039394E-009  0.1349301E+03  0.7561462E-02  0.1113356E+00
         22   -1    0    0    0    0  0.00000000000E+00  0.00000000000E+00  0.25398500278E+02  0.25398500278E+02  0.00000000000E+00 0.  1.
         22   -1    0    0    0    0 -0.00000000000E+00 -0.00000000000E+00 -0.27385816381E+04  0.27385816381E+04  0.00000000000E+00 0.  1.
         24    2    1    2    0    0  0.69185327691E+02  0.10991539583E+01 -0.15064297940E+04  0.15100673665E+04  0.78644193920E+02 0.  0.
         25    2    1    2    0    0 -0.72243287039E+02  0.48204262627E+02 -0.10678345790E+04  0.10786385555E+04  0.12509077399E+03 0.  0.
        -24    2    1    2    0    0  0.30579593477E+01 -0.49303416585E+02 -0.13891876476E+03  0.17527421642E+03  0.94775786664E+02 0.  0.
        -13    1    3    3    0    0  0.86330628220E+02  0.68768681595E+01 -0.12639426719E+04  0.12669062106E+04  0.00000000000E+00 0.  1.
         14    1    3    3    0    0 -0.17145300529E+02 -0.57777142012E+01 -0.24248712216E+03  0.24316115587E+03  0.00000000000E+00 0. -1.
         13    1    5    5    0    0 -0.37878663109E+02  0.50558413805E+01 -0.41183525288E+02  0.56182180504E+02  0.00000000000E+00 0. -1.
        -14    1    5    5    0    0  0.40936622456E+02 -0.54359257965E+02 -0.97735239470E+02  0.11909203592E+03  0.00000000000E+00 0.  1.
          5    1    4    4  501    0  0.16455442062E+02 -0.25045926080E+02 -0.38334704835E+03  0.38453935022E+03  0.41800000000E+01 0.  1.
         -5    1    4    4    0  501 -0.88698729101E+02  0.73250188707E+02 -0.68448753065E+03  0.69409920523E+03  0.41800000000E+01 0.  1.
</event>
<event>
11    1  0.8039394E-009  0.2346701E+03  0.7561462E-02  0.1032398E+00
         22   -1    0    0    0    0  0.00000000000E+00  0.00000000000E+00  0.22689416025E+03  0.22689416025E+03  0.00000000000E+00 0. -1.
         22   -1    0    0    0    0 -0.00000000000E+00 -0.00000000000E+00 -0.61720010399E+03  0.61720010399E+03  0.00000000000E+00 0. -1.
         24    2    1    2    0    0  0.47298260394E+02  0.59135185016E+02 -0.24978932164E+03  0.27361749802E+03  0.82083704068E+02 0.  0.
         25    2    1    2    0    0 -0.12103437824E+03  0.13282237362E+03 -0.24382558788E+03  0.32770676866E+03  0.12509878204E+03 0.  0.
        -24    2    1    2    0    0  0.73736117849E+02 -0.19195755864E+03  0.10330896578E+03  0.24276999757E+03  0.77329230666E+02 0.  0.
        -11    1    3    3    0    0 -0.84947160893E+01 -0.72657427816E+01 -0.99285331767E+02  0.99912603427E+02  0.00000000000E+00 0.  1.
         12    1    3    3    0    0  0.55792976484E+02  0.66400927798E+02 -0.15050398988E+03  0.17370489459E+03  0.00000000000E+00 0. -1.
         13    1    5    5    0    0  0.58754627846E+02 -0.12246436562E+03  0.27016501864E+02  0.13849013868E+03  0.00000000000E+00 0. -1.
        -14    1    5    5    0    0  0.14981490003E+02 -0.69493193020E+02  0.76292463917E+02  0.10427985889E+03  0.00000000000E+00 0.  1.
          5    1    4    4  501    0 -0.13318975710E+03  0.13509587580E+03 -0.24950979984E+03  0.31346932812E+03  0.41800000000E+01 0. -1.
         -5    1    4    4    0  501  0.12155378862E+02 -0.22735021824E+01  0.56842119581E+01  0.14237440537E+02  0.41800000000E+01 0. -1.
</event>
<event>
11    1  0.8039394E-009  0.1544574E+03  0.7561462E-02  0.1092409E+00
         22   -1    0    0    0    0  0.00000000000E+00  0.00000000000E+00  0.15857951879E+04  0.15857951879E+04  0.00000000000E+00 0.  1.
         22   -1    0    0    0    0 -0.00000000000E+00 -0.00000000000E+00 -0.15969925174E+04  0.15969925174E+04  0.00000000000E+00 0.  1.
        -24    2    1    2    0    0  0.33923600723E+01 -0.86533706533E+02 -0.15088832818E+04  0.15133528625E+04  0.77514758816E+02 0.  0.
         25    2    1    2    0    0  0.53430754562E+02  0.13388686407E+02 -0.27405986613E+02  0.13940020370E+03  0.12508887334E+03 0.  0.
         24    2    1    2    0    0 -0.56823114634E+02  0.73145020125E+02  0.15250919389E+04  0.15300346390E+04  0.80755892896E+02 0.  0.
        -13    1    5    5    0    0 -0.16251321649E+02  0.54023559445E+02  0.12531119804E+04  0.12543812363E+04  0.00000000000E+00 0.  1.
         14    1    5    5    0    0 -0.40571792985E+02  0.19121460681E+02  0.27197995850E+03  0.27565340279E+03  0.00000000000E+00 0. -1.
         11    1    3    3    0    0  0.39226904654E+02 -0.35502593035E+02 -0.59683074789E+03  0.59917119906E+03  0.00000000000E+00 0. -1.
        -12    1    3    3    0    0 -0.35834544582E+02 -0.51031113497E+02 -0.91205253389E+03  0.91418166341E+03  0.00000000000E+00 0.  1.
          5    1    4    4  501    0 -0.14064364542E+01  0.40760261839E+02  0.33462321427E+02  0.52920472069E+02  0.41800000000E+01 0.  1.
         -5    1    4    4    0  501  0.54837191016E+02 -0.27371575432E+02 -0.60868308039E+02  0.86479731635E+02  0.41800000000E+01 0.  1.
</event>
<event>
11    1  0.8039394E-009  0.1482372E+03  0.7561462E-02  0.1098694E+00
         22   -1    0    0    0    0  0.00000000000E+00  0.00000000000E+00  0.15189761802E+03  0.15189761802E+03  0.00000000000E+00 0.  1.
         22   -1    0    0    0    0 -0.00000000000E+00 -0.00000000000E+00 -0.14383233281E+04  0.14383233281E+04  0.00000000000E+00 0.  1.
         24    2    1    2    0    0 -0.35126181930E+02 -0.68883408631E+02 -0.11888628802E+04  0.11941132907E+04  0.80825925982E+02 0.  0.
         25    2    1    2    0    0  0.41206304652E+02  0.95584894163E+02 -0.20199204762E+03  0.25938647412E+03  0.12508446794E+03 0.  0.
        -24    2    1    2    0    0 -0.60801227216E+01 -0.26701485532E+02  0.10442921775E+03  0.13672118135E+03  0.83888513447E+02 0.  0.
        -11    1    3    3    0    0 -0.10033599947E+02 -0.32799313633E+02 -0.98359318758E+03  0.98419105196E+03  0.00000000000E+00 0.  1.
         12    1    3    3    0    0 -0.25092581983E+02 -0.36084094999E+02 -0.20526969266E+03  0.20992223871E+03  0.00000000000E+00 0. -1.
         13    1    5    5    0    0 -0.11156921724E+02 -0.49856277413E+02  0.31461563314E+02  0.59999627216E+02  0.00000000000E+00 0. -1.
        -14    1    5    5    0    0  0.50767990023E+01  0.23154791881E+02  0.72967654437E+02  0.76721554137E+02  0.00000000000E+00 0.  1.
          5    1    4    4  501    0  0.79966412275E+02  0.48259419162E+02 -0.80816977343E+02  0.12358177397E+03  0.41800000000E+01 0. -1.
         -5    1    4    4    0  501 -0.38760107624E+02  0.47325475001E+02 -0.12117507028E+03  0.13580470016E+03  0.41800000000E+01 0. -1.
</event>
<event>
11    1  0.8039394E-009  0.3482626E+03  0.7561462E-02  0.9816098E-01
         22   -1    0    0    0    0  0.00000000000E+00  0.00000000000E+00  0.77475407174E+03  0.77475407174E+03  0.00000000000E+00 0.  1.
         22   -1    0    0    0    0 -0.00000000000E+00 -0.00000000000E+00 -0.76058075065E+03  0.76058075065E+03  0.00000000000E+00 0. -1.
        -24    2    1    2    0    0 -0.64775612232E+01  0.27676225471E+02 -0.52312626977E+03  0.53006522256E+03  0.80623283121E+02 0.  0.
         25    2    1    2    0    0  0.37861312325E+02  0.30113938783E+03 -0.44704524991E+02  0.33130727559E+03  0.12509039305E+03 0.  0.
         24    2    1    2    0    0 -0.31383751102E+02 -0.32881561330E+03  0.58200411586E+03  0.67396232424E+03  0.79948584889E+02 0.  0.
        -11    1    5    5    0    0 -0.16231132881E+02 -0.16244243830E+03  0.20857454118E+03  0.26486663561E+03  0.00000000000E+00 0.  1.
         12    1    5    5    0    0 -0.15152618221E+02 -0.16637317501E+03  0.37342957468E+03  0.40909568862E+03  0.00000000000E+00 0. -1.
         13    1    3    3    0    0  0.25403314843E+02 -0.16922147588E+02 -0.20198118769E+03  0.20427453993E+03  0.00000000000E+00 0. -1.
        -14    1    3    3    0    0 -0.31880876066E+02  0.44598373059E+02 -0.32114508209E+03  0.32579068263E+03  0.00000000000E+00 0.  1.
          5    1    4    4  501    0  0.88732160119E+01  0.29351301145E+03 -0.24036644514E+02  0.29465887825E+03  0.41800000000E+01 0. -1.
         -5    1    4    4    0  501  0.28988096313E+02  0.76263763825E+01 -0.20667880477E+02  0.36648397345E+02  0.41800000000E+01 0. -1.
</event>
<event>
11    1  0.8039394E-009  0.1483275E+03  0.7561462E-02  0.1098600E+00
         22   -1    0    0    0    0  0.00000000000E+00  0.00000000000E+00  0.18460605470E+04  0.18460605470E+04  0.00000000000E+00 0.  1.
         22   -1    0    0    0    0 -0.00000000000E+00 -0.00000000000E+00 -0.29621159117E+03  0.29621159117E+03  0.00000000000E+00 0.  1.
         24    2    1    2    0    0  0.66971821285E+02  0.44327157196E+02 -0.27134167198E+03  0.29324799164E+03  0.76928277846E+02 0.  0.
         25    2    1    2    0    0 -0.48640441776E+02 -0.33982539707E+02  0.36423692060E+03  0.38966014571E+03  0.12508312936E+03 0.  0.
        -24    2    1    2    0    0 -0.18331379510E+02 -0.10344617489E+02  0.14569537072E+04  0.14593640008E+04  0.81154983244E+02 0.  0.
        -11    1    3    3    0    0  0.67523226089E+02  0.61713939364E+02 -0.24645691184E+03  0.26288591778E+03  0.00000000000E+00 0.  1.
         12    1    3    3    0    0 -0.55140480333E+00 -0.17386782168E+02 -0.24884760140E+02  0.30362073853E+02  0.00000000000E+00 0. -1.
         11    1    5    5    0    0 -0.22014218586E+02 -0.34283656951E+02  0.38749697559E+03  0.38963303382E+03  0.00000000000E+00 0. -1.
        -12    1    5    5    0    0  0.36828390767E+01  0.23939039462E+02  0.10694567316E+04  0.10697309670E+04  0.00000000000E+00 0.  1.
          5    1    4    4  501    0 -0.12509914350E+01  0.24058046414E+02  0.81832439695E+01  0.25783569549E+02  0.41800000000E+01 0. -1.
         -5    1    4    4    0  501 -0.47389450341E+02 -0.58040586121E+02  0.35605367663E+03  0.36387657616E+03  0.41800000000E+01 0. -1.
</event>
<event>
11    1  0.8039394E-009  0.2069340E+03  0.7561462E-02  0.1049726E+00
         22   -1    0    0    0    0  0.00000000000E+00  0.00000000000E+00  0.29762734340E+04  0.29762734340E+04  0.00000000000E+00 0.  1.
         22   -1    0    0    0    0 -0.00000000000E+00 -0.00000000000E+00 -0.49142489196E+03  0.49142489196E+03  0.00000000000E+00 0. -1.
         24    2    1    2    0    0 -0.22607524729E+02  0.49139931131E+02 -0.41771026205E+03  0.42841977346E+03  0.78331387502E+02 0.  0.
         25    2    1    2    0    0 -0.95194717900E+02 -0.16330491971E+03  0.13104899265E+03  0.26182699632E+03  0.12509598879E+03 0.  0.
        -24    2    1    2    0    0  0.11780224263E+03  0.11416498858E+03  0.27715098114E+04  0.27774515561E+04  0.77842783860E+02 0.  0.
        -11    1    3    3    0    0 -0.12261374067E+02 -0.20885073571E+02 -0.11865996844E+03  0.12110621661E+03  0.00000000000E+00 0.  1.
         12    1    3    3    0    0 -0.10346150662E+02  0.70025004702E+02 -0.29905029361E+03  0.30731355685E+03  0.00000000000E+00 0. -1.
         13    1    5    5    0    0  0.53518458101E+02  0.16908113126E+02  0.54262778936E+03  0.54552271028E+03  0.00000000000E+00 0. -1.
        -14    1    5    5    0    0  0.64283784528E+02  0.97256875455E+02  0.22288820220E+04  0.22319288459E+04  0.00000000000E+00 0.  1.
          5    1    4    4  501    0  0.12886626970E+02 -0.98193760157E+02  0.43834890567E+02  0.10838380746E+03  0.41800000000E+01 0.  1.
         -5    1    4    4    0  501 -0.10808134487E+03 -0.65111159556E+02  0.87214102079E+02  0.15344318886E+03  0.41800000000E+01 0.  1.
</event>
<event>
11    1  0.8039394E-009  0.1323661E+03  0.7561462E-02  0.1116396E+00
         22   -1    0    0    0    0  0.00000000000E+00  0.00000000000E+00  0.10703838713E+04  0.10703838713E+04  0.00000000000E+00 0. -1.
         22   -1    0    0    0    0 -0.00000000000E+00 -0.00000000000E+00 -0.10188161282E+03  0.10188161282E+03  0.00000000000E+00 0.  1.
         24    2    1    2    0    0 -0.29842474576E+02  0.14017219072E+02 -0.45141833263E+02  0.82740978319E+02  0.61001874263E+02 0.  0.
         25    2    1    2    0    0  0.58104516251E+02  0.17992507594E+02  0.99889097760E+02  0.17124294051E+03  0.12508576132E+03 0.  0.
        -24    2    1    2    0    0 -0.28262041675E+02 -0.32009726665E+02  0.91375499402E+03  0.91828156533E+03  0.80433068666E+02 0.  0.
        -13    1    3    3    0    0 -0.44253004867E+02  0.17117904748E+02 -0.48255590895E+02  0.67675351165E+02  0.00000000000E+00 0.  1.
         14    1    3    3    0    0  0.14410530291E+02 -0.31006856762E+01  0.31137576320E+01  0.15065627154E+02  0.00000000000E+00 0. -1.
         11    1    5    5    0    0  0.11500137987E+02 -0.42727685400E+02  0.63023135242E+03  0.63178276792E+03  0.00000000000E+00 0. -1.
        -12    1    5    5    0    0 -0.39762179662E+02  0.10717958734E+02  0.28352364160E+03  0.28649879741E+03  0.00000000000E+00 0.  1.
          5    1    4    4  501    0  0.78254601979E+01  0.32058130245E+02 -0.21108605257E+02  0.39395522055E+02  0.41800000000E+01 0. -1.
         -5    1    4    4    0  501  0.50279056053E+02 -0.14065622652E+02  0.12099770302E+03  0.13184741846E+03  0.41800000000E+01 0. -1.
</event>
<event>
11    1  0.8039394E-009  0.1629089E+03  0.7561462E-02  0.1084373E+00
         22   -1    0    0    0    0  0.00000000000E+00  0.00000000000E+00  0.96708733064E+02  0.96708733064E+02  0.00000000000E+00 0. -1.
         22   -1    0    0    0    0 -0.00000000000E+00 -0.00000000000E+00 -0.17841662986E+04  0.17841662986E+04  0.00000000000E+00 0. -1.
         24    2    1    2    0    0 -0.22836209668E+02  0.11237523712E+03 -0.13631260635E+04  0.13703265507E+04  0.80823909129E+02 0.  0.
         25    2    1    2    0    0  0.67234263006E+02 -0.46261117168E+02 -0.35959765790E+03  0.38938203501E+03  0.12508939420E+03 0.  0.
        -24    2    1    2    0    0 -0.44398053339E+02 -0.66114119953E+02  0.35266155837E+02  0.12116644593E+03  0.84233852312E+02 0.  0.
        -13    1    3    3    0    0 -0.34187786656E+02  0.16193279306E+02 -0.23221909762E+03  0.23528012315E+03  0.00000000000E+00 0.  1.
         14    1    3    3    0    0  0.11351576989E+02  0.96181957815E+02 -0.11309069659E+04  0.11350464276E+04  0.00000000000E+00 0. -1.
         11    1    5    5    0    0 -0.38584004991E+02 -0.69523622245E+02  0.57375831598E+02  0.98052259244E+02  0.00000000000E+00 0. -1.
        -12    1    5    5    0    0 -0.58140483474E+01  0.34095022925E+01 -0.22109675761E+02  0.23114186690E+02  0.00000000000E+00 0.  1.
          5    1    4    4  501    0  0.97688753701E+02 -0.22162770524E+02 -0.31253233495E+03  0.32821976446E+03  0.41800000000E+01 0.  1.
         -5    1    4    4    0  501 -0.30454490695E+02 -0.24098346643E+02 -0.47065322952E+02  0.61162270552E+02  0.41800000000E+01 0.  1.
</event>
<event>
11    1  0.8039394E-009  0.1724493E+03  0.7561462E-02  0.1075920E+00
         22   -1    0    0    0    0  0.00000000000E+00  0.00000000000E+00  0.61030314841E+03  0.61030314841E+03  0.00000000000E+00 0. -1.
         22   -1    0    0    0    0 -0.00000000000E+00 -0.00000000000E+00 -0.38579679258E+03  0.38579679258E+03  0.00000000000E+00 0.  1.
         24    2    1    2    0    0  0.27183717999E+02  0.11284241732E+03 -0.22793481384E+03  0.26730929378E+03  0.77637706761E+02 0.  0.
         25    2    1    2    0    0 -0.30955382059E+02 -0.12273313661E+03 -0.76157913167E+02  0.19356891566E+03  0.12508892385E+03 0.  0.
        -24    2    1    2    0    0  0.37716640602E+01  0.98907192947E+01  0.52859908283E+03  0.53522173155E+03  0.83266198285E+02 0.  0.
        -13    1    3    3    0    0  0.26428437248E+02  0.94286607998E+02 -0.22863856731E+03  0.24872479009E+03  0.00000000000E+00 0.  1.
         14    1    3    3    0    0  0.75528075066E+00  0.18555809321E+02  0.70375346983E+00  0.18584503693E+02  0.00000000000E+00 0. -1.
         11    1    5    5    0    0  0.25338679867E+02  0.24020314064E+02  0.10134981305E+03  0.10719519015E+03  0.00000000000E+00 0. -1.
        -12    1    5    5    0    0 -0.21567015807E+02 -0.14129594769E+02  0.42724926977E+03  0.42802654140E+03  0.00000000000E+00 0.  1.
          5    1    4    4  501    0 -0.10871296636E+02 -0.98460680091E+01 -0.77337452336E+02  0.78826924839E+02  0.41800000000E+01 0.  1.
         -5    1    4    4    0  501 -0.20084085423E+02 -0.11288706861E+03  0.11795391683E+01  0.11474199082E+03  0.41800000000E+01 0.  1.
</event>
<event>
11    1  0.8039394E-009  0.3381220E+03  0.7561462E-02  0.9852345E-01
         22   -1    0    0    0    0  0.00000000000E+00  0.00000000000E+00  0.80233410140E+02  0.80233410140E+02  0.00000000000E+00 0. -1.
         22   -1    0    0    0    0 -0.00000000000E+00 -0.00000000000E+00 -0.25877638751E+04  0.25877638751E+04  0.00000000000E+00 0. -1.
         24    2    1    2    0    0  0.18794896624E+03  0.13958671198E+03 -0.21911692167E+04  0.22049520049E+04  0.76036461195E+02 0.  0.
         25    2    1    2    0    0 -0.11295078597E+03 -0.15939834473E+02 -0.19218464933E+03  0.25611410045E+03  0.12509010606E+03 0.  0.
        -24    2    1    2    0    0 -0.74998180272E+02 -0.12364687750E+03 -0.12417659891E+03  0.20693117992E+03  0.80544448271E+02 0.  0.
        -11    1    3    3    0    0  0.47294760831E+01  0.21714091704E+02 -0.98650158461E+02  0.10112231943E+03  0.00000000000E+00 0.  1.
         12    1    3    3    0    0  0.18321949016E+03  0.11787262027E+03 -0.20925190582E+04  0.21038296854E+04  0.00000000000E+00 0. -1.
         11    1    5    5    0    0 -0.54765341748E+02 -0.22017995364E+02 -0.27138134910E+02  0.64965476547E+02  0.00000000000E+00 0. -1.
        -12    1    5    5    0    0 -0.20232838525E+02 -0.10162888214E+03 -0.97038464003E+02  0.14196570338E+03  0.00000000000E+00 0.  1.
          5    1    4    4  501    0 -0.10072428779E+03 -0.56035727542E+02 -0.92346657664E+02  0.14775236883E+03  0.41800000000E+01 0.  1.
         -5    1    4    4    0  501 -0.12226498178E+02  0.40095893068E+02 -0.99837991671E+02  0.10836173162E+03  0.41800000000E+01 0.  1.
</event>
<event>
11    1  0.8039394E-009  0.1899974E+03  0.7561462E-02  0.1061831E+00
         22   -1    0    0    0    0  0.00000000000E+00  0.00000000000E+00  0.57752684537E+02  0.57752684537E+02  0.00000000000E+00 0. -1.
         22   -1    0    0    0    0 -0.00000000000E+00 -0.00000000000E+00 -0.15225001261E+04  0.15225001261E+04  0.00000000000E+00 0. -1.
        -24    2    1    2    0    0 -0.42687432915E+02  0.22921967138E+02 -0.33568913109E+03  0.34874741009E+03  0.81178382632E+02 0.  0.
         25    2    1    2    0    0 -0.10298142515E+03 -0.51621027321E+02 -0.99891419583E+03  0.10132844961E+04  0.12508395196E+03 0.  0.
         24    2    1    2    0    0  0.14566885807E+03  0.28699060183E+02 -0.13014411465E+03  0.21822090444E+03  0.92950633633E+02 0.  0.
        -11    1    5    5    0    0  0.24779664886E+02  0.13340702131E+02  0.12343104820E+02  0.30730414280E+02  0.00000000000E+00 0.  1.
         12    1    5    5    0    0  0.12088919318E+03  0.15358358052E+02 -0.14248721947E+03  0.18749049016E+03  0.00000000000E+00 0. -1.
         13    1    3    3    0    0 -0.65690301574E+02  0.11963562198E+02 -0.27368094322E+03  0.28170836200E+03  0.00000000000E+00 0. -1.
        -14    1    3    3    0    0  0.23002868659E+02  0.10958404940E+02 -0.62008187867E+02  0.67039048083E+02  0.00000000000E+00 0.  1.
          5    1    4    4  501    0 -0.90132770005E+01  0.56121930049E+01 -0.58091626294E+03  0.58102832360E+03  0.41800000000E+01 0.  1.
         -5    1    4    4    0  501 -0.93968148150E+02 -0.57233220325E+02 -0.41799793289E+03  0.43225617251E+03  0.41800000000E+01 0.  1.
</event>
<event>
11    1  0.8039394E-009  0.1711527E+03  0.7561462E-02  0.1077033E+00
         22   -1    0    0    0    0  0.00000000000E+00  0.00000000000E+00  0.23904740958E+03  0.23904740958E+03  0.00000000000E+00 0.  1.
         22   -1    0    0    0    0 -0.00000000000E+00 -0.00000000000E+00 -0.67576244626E+03  0.67576244626E+03  0.00000000000E+00 0. -1.
         24    2    1    2    0    0  0.12126355158E+03 -0.43132784198E+02 -0.55270420666E+03  0.57316616795E+03  0.80450170942E+02 0.  0.
         25    2    1    2    0    0 -0.62679004736E+02 -0.86118610020E+01 -0.43490435149E+02  0.14677420163E+03  0.12509367102E+03 0.  0.
        -24    2    1    2    0    0 -0.58584546841E+02  0.51744645200E+02  0.15947960514E+03  0.19486948626E+03  0.80191737634E+02 0.  0.
        -13    1    3    3    0    0 -0.19938440508E+01  0.61473358397E+00 -0.14461922474E+03  0.14463427490E+03  0.00000000000E+00 0.  1.
         14    1    3    3    0    0  0.12325739563E+03 -0.43747517782E+02 -0.40808498193E+03  0.42853189305E+03  0.00000000000E+00 0. -1.
         13    1    5    5    0    0 -0.14150709091E+02  0.49256983504E+02  0.33415919901E+02  0.61181015802E+02  0.00000000000E+00 0. -1.
        -14    1    5    5    0    0 -0.44433837750E+02  0.24876616958E+01  0.12606368524E+03  0.13368847046E+03  0.00000000000E+00 0.  1.
          5    1    4    4  501    0 -0.49912728990E+02 -0.41654061013E+02  0.24819677550E+02  0.69712481722E+02  0.41800000000E+01 0. -1.
         -5    1    4    4    0  501 -0.12766275745E+02  0.33042200011E+02 -0.68310112699E+02  0.77061719906E+02  0.41800000000E+01 0. -1.
</event>
<event>
11    1  0.8039394E-009  0.1476357E+03  0.7561462E-02  0.1099319E+00
         22   -1    0    0    0    0  0.00000000000E+00  0.00000000000E+00  0.63569922959E+03  0.63569922959E+03  0.00000000000E+00 0.  1.
         22   -1    0    0    0    0 -0.00000000000E+00 -0.00000000000E+00 -0.88611330509E+03  0.88611330509E+03  0.00000000000E+00 0. -1.
         24    2    1    2    0    0  0.52258316647E+02  0.55930103999E+02 -0.76306305479E+03  0.77201254665E+03  0.88763947715E+02 0.  0.
         25    2    1    2    0    0 -0.39171267120E+02 -0.10520490258E+03 -0.52790465778E+02  0.17616564215E+03  0.12508013632E+03 0.  0.
        -24    2    1    2    0    0 -0.13087049527E+02  0.49274798581E+02  0.56543944506E+03  0.57363434588E+03  0.82068995989E+02 0.  0.
        -13    1    3    3    0    0 -0.79464947202E+01 -0.31069483931E+01 -0.64002447419E+01  0.10665975783E+02  0.00000000000E+00 0.  1.
         14    1    3    3    0    0  0.60204811367E+02  0.59037052393E+02 -0.75666281004E+03  0.76134657087E+03  0.00000000000E+00 0. -1.
         11    1    5    5    0    0  0.20056960375E+01 -0.22520435668E+02  0.10710501479E+03  0.10946541478E+03  0.00000000000E+00 0. -1.
        -12    1    5    5    0    0 -0.15092745564E+02  0.71795234249E+02  0.45833443027E+03  0.46416893110E+03  0.00000000000E+00 0.  1.
          5    1    4    4  501    0 -0.79147939416E+02 -0.93170005135E+02 -0.22393593893E+02  0.12435429875E+03  0.41800000000E+01 0. -1.
         -5    1    4    4    0  501  0.39976672296E+02 -0.12034897445E+02 -0.30396871885E+02  0.51811343398E+02  0.41800000000E+01 0. -1.
</event>
<event>
11    1  0.8039394E-009  0.1465234E+03  0.7561462E-02  0.1100485E+00
         22   -1    0    0    0    0  0.00000000000E+00  0.00000000000E+00  0.69946954032E+03  0.69946954032E+03  0.00000000000E+00 0.  1.
         22   -1    0    0    0    0 -0.00000000000E+00 -0.00000000000E+00 -0.12059623259E+04  0.12059623259E+04  0.00000000000E+00 0. -1.
         24    2    1    2    0    0 -0.10266522116E+02 -0.80963723888E+02 -0.99398309330E+03  0.10008619409E+04  0.84033974589E+02 0.  0.
         25    2    1    2    0    0  0.51597638781E+02  0.31719441165E+02 -0.18100425693E+03  0.22820818098E+03  0.12509194045E+03 0.  0.
        -24    2    1    2    0    0 -0.41331116665E+02  0.49244282723E+02  0.66849456462E+03  0.67636174438E+03  0.80292999345E+02 0.  0.
        -11    1    3    3    0    0  0.27051568024E+02 -0.14600364575E+02 -0.51012420957E+03  0.51104957408E+03  0.00000000000E+00 0.  1.
         12    1    3    3    0    0 -0.37318090140E+02 -0.66363359313E+02 -0.48385888372E+03  0.48981236680E+03  0.00000000000E+00 0. -1.
         11    1    5    5    0    0  0.55588696962E+01  0.51922663340E+02  0.26124193350E+03  0.26640985683E+03  0.00000000000E+00 0. -1.
        -12    1    5    5    0    0 -0.46889986361E+02 -0.26783806176E+01  0.40725263112E+03  0.40995188754E+03  0.00000000000E+00 0.  1.
          5    1    4    4  501    0 -0.28584830839E+02  0.42250666058E+02 -0.37564077683E+02  0.63488138015E+02  0.41800000000E+01 0. -1.
         -5    1    4    4    0  501  0.80182469621E+02 -0.10531224893E+02 -0.14344017925E+03  0.16472004297E+03  0.41800000000E+01 0. -1.
</event>
<event>
11    1  0.8039394E-009  0.1465564E+03  0.7561462E-02  0.1100450E+00
         22   -1    0    0    0    0  0.00000000000E+00  0.00000000000E+00  0.13255868883E+03  0.13255868883E+03  0.00000000000E+00 0. -1.
         22   -1    0    0    0    0 -0.00000000000E+00 -0.00000000000E+00 -0.75347451248E+03  0.75347451248E+03  0.00000000000E+00 0. -1.
         24    2    1    2    0    0  0.79039932005E+02 -0.17271048459E+02 -0.56423197321E+03  0.57577795646E+03  0.81344548615E+02 0.  0.
         25    2    1    2    0    0 -0.57093218243E+02 -0.15372398860E+02 -0.13365418161E+03  0.19236993213E+03  0.12508718684E+03 0.  0.
        -24    2    1    2    0    0 -0.21946713762E+02  0.32643447319E+02  0.76970331167E+02  0.11788531272E+03  0.80157733105E+02 0.  0.
        -13    1    3    3    0    0 -0.15616913596E+02 -0.25463384325E+01 -0.43060980797E+02  0.45876136464E+02  0.00000000000E+00 0.  1.
         14    1    3    3    0    0  0.94656845601E+02 -0.14724710027E+02 -0.52117099241E+03  0.52990182000E+03  0.00000000000E+00 0. -1.
         11    1    5    5    0    0 -0.47727393365E+02  0.24997687376E+01  0.53744404277E+02  0.71920886481E+02  0.00000000000E+00 0. -1.
        -12    1    5    5    0    0  0.25780679603E+02  0.30143678582E+02  0.23225926890E+02  0.45964426235E+02  0.00000000000E+00 0.  1.
          5    1    4    4  501    0 -0.61954993421E+02 -0.64001255948E+02 -0.90228744657E+02  0.12685929503E+03  0.41800000000E+01 0.  1.
         -5    1    4    4    0  501  0.48617751778E+01  0.48628857088E+02 -0.43425436950E+02  0.65510637104E+02  0.41800000000E+01 0.  1.
</event>
<event>
11    1  0.8039394E-009  0.1734932E+03  0.7561462E-02  0.1075031E+00
         22   -1    0    0    0    0  0.00000000000E+00  0.00000000000E+00  0.91237968419E+03  0.91237968419E+03  0.00000000000E+00 0.  1.
         22   -1    0    0    0    0 -0.00000000000E+00 -0.00000000000E+00 -0.30163426054E+04  0.30163426054E+04  0.00000000000E+00 0. -1.
        -24    2    1    2    0    0  0.38399861392E+02  0.11321054080E+03 -0.29327743339E+04  0.29362849087E+04  0.79451843310E+02 0.  0.
         25    2    1    2    0    0 -0.78542551316E+02 -0.16286764254E+03  0.75794635507E+02  0.23256520442E+03  0.12508775392E+03 0.  0.
         24    2    1    2    0    0  0.40142689924E+02  0.49657101737E+02  0.75301677722E+03  0.75987217645E+03  0.79335959408E+02 0.  0.
        -13    1    5    5    0    0  0.50462538484E+02  0.60744710128E+02  0.70766685154E+03  0.71205952024E+03  0.00000000000E+00 0.  1.
         14    1    5    5    0    0 -0.10319848560E+02 -0.11087608391E+02  0.45349925687E+02  0.47812656211E+02  0.00000000000E+00 0. -1.
         11    1    3    3    0    0  0.53973659187E+02  0.98466631651E+02 -0.27439501606E+04  0.27462467692E+04  0.00000000000E+00 0. -1.
        -12    1    3    3    0    0 -0.15573797796E+02  0.14743909149E+02 -0.18882417331E+03  0.19003813949E+03  0.00000000000E+00 0.  1.
          5    1    4    4  501    0 -0.31802802294E+02 -0.12546000208E+03 -0.77194738780E+01  0.12972545253E+03  0.41800000000E+01 0. -1.
         -5    1    4    4    0  501 -0.46739749022E+02 -0.37407640456E+02  0.83514109385E+02  0.10283975189E+03  0.41800000000E+01 0. -1.
</event>
<event>
11    1  0.8039394E-009  0.1292355E+03  0.7561462E-02  0.1120212E+00
         22   -1    0    0    0    0  0.00000000000E+00  0.00000000000E+00  0.69523749529E+03  0.69523749529E+03  0.00000000000E+00 0.  1.
         22   -1    0    0    0    0 -0.00000000000E+00 -0.00000000000E+00 -0.13796412845E+04  0.13796412845E+04  0.00000000000E+00 0.  1.
         24    2    1    2    0    0 -0.25578953161E+01  0.26597943901E+02 -0.12586554726E+04  0.12611257597E+04  0.74233345740E+02 0.  0.
         25    2    1    2    0    0 -0.70725712249E+01 -0.57042986360E+02 -0.76975414253E+02  0.15773262806E+03  0.12510173460E+03 0.  0.
        -24    2    1    2    0    0  0.96304665410E+01  0.30445042458E+02  0.65122709768E+03  0.65602039200E+03  0.72431867820E+02 0.  0.
        -11    1    3    3    0    0 -0.91893514705E+01  0.46204807804E+02 -0.11141465814E+04  0.11151421135E+04  0.00000000000E+00 0.  1.
         12    1    3    3    0    0  0.66314561544E+01 -0.19606863903E+02 -0.14450889118E+03  0.14598364618E+03  0.00000000000E+00 0. -1.
         13    1    5    5    0    0 -0.25240370920E+02 -0.85050650171E+01  0.24482410787E+03  0.24626866680E+03  0.00000000000E+00 0. -1.
        -14    1    5    5    0    0  0.34870837461E+02  0.38950107475E+02  0.40640298981E+03  0.40975172520E+03  0.00000000000E+00 0.  1.
          5    1    4    4  501    0  0.25328193544E+02 -0.36147028525E+02 -0.10224658798E+03  0.11144488419E+03  0.41800000000E+01 0.  1.
         -5    1    4    4    0  501 -0.32400764769E+02 -0.20895957835E+02  0.25271173723E+02  0.46287743873E+02  0.41800000000E+01 0.  1.
</event>
<event>
11    1  0.8039394E-009  0.1846779E+03  0.7561462E-02  0.1065921E+00
         22   -1    0    0    0    0  0.00000000000E+00  0.00000000000E+00  0.13271221022E+04  0.13271221022E+04  0.00000000000E+00 0. -1.
         22   -1    0    0    0    0 -0.00000000000E+00 -0.00000000000E+00 -0.54887385583E+03  0.54887385583E+03  0.00000000000E+00 0.  1.
         24    2    1    2    0    0 -0.11616290873E+03 -0.49579035049E+02 -0.38572455019E+03  0.41391486840E+03  0.81179970319E+02 0.  0.
         25    2    1    2    0    0  0.16376983832E+03  0.14873945106E+03 -0.34386910716E+02  0.25646358692E+03  0.12508847885E+03 0.  0.
        -24    2    1    2    0    0 -0.47606929588E+02 -0.99160416016E+02  0.11983597072E+04  0.12056175027E+04  0.73132530236E+02 0.  0.
        -11    1    3    3    0    0 -0.84612802653E+01 -0.30945827601E+01 -0.15331257134E+03  0.15357706286E+03  0.00000000000E+00 0.  1.
         12    1    3    3    0    0 -0.10770162847E+03 -0.46484452289E+02 -0.23241197885E+03  0.26033780553E+03  0.00000000000E+00 0. -1.
         11    1    5    5    0    0 -0.28190625976E+02 -0.89885530511E+02  0.11307265561E+04  0.11346438492E+04  0.00000000000E+00 0. -1.
        -12    1    5    5    0    0 -0.19416303612E+02 -0.92748855043E+01  0.67633151192E+02  0.70973653472E+02  0.00000000000E+00 0.  1.
          5    1    4    4  501    0  0.37340412801E+01  0.51110147604E+02 -0.45452225160E+02  0.68626288143E+02  0.41800000000E+01 0.  1.
         -5    1    4    4    0  501  0.16003579704E+03  0.97629303461E+02  0.11065314444E+02  0.18783729878E+03  0.41800000000E+01 0.  1.
</event>
<event>
11    1  0.8039394E-009  0.1480300E+03  0.7561462E-02  0.1098909E+00
         22   -1    0    0    0    0  0.00000000000E+00  0.00000000000E+00  0.25009762272E+03  0.25009762272E+03  0.00000000000E+00 0. -1.
         22   -1    0    0    0    0 -0.00000000000E+00 -0.00000000000E+00 -0.12968786391E+04  0.12968786391E+04  0.00000000000E+00 0.  1.
        -24    2    1    2    0    0 -0.59022385199E+02 -0.50565215958E+02 -0.91406721490E+03  0.92093204240E+03  0.80972034346E+02 0.  0.
         25    2    1    2    0    0  0.39214755916E+02  0.83879457214E+02 -0.35451811600E+03  0.38717525218E+03  0.12509204972E+03 0.  0.
         24    2    1    2    0    0  0.19807629283E+02 -0.33314241257E+02  0.22180431452E+03  0.23886896725E+03  0.79743643792E+02 0.  0.
        -13    1    5    5    0    0 -0.19708814498E+02 -0.11534580497E+02  0.15288168414E+02  0.27481120967E+02  0.00000000000E+00 0.  1.
         14    1    5    5    0    0  0.39516443781E+02 -0.21779660760E+02  0.20651614611E+03  0.21138784628E+03  0.00000000000E+00 0. -1.
         13    1    3    3    0    0 -0.30790882844E+02  0.18599433344E+02 -0.37329172803E+03  0.37502097489E+03  0.00000000000E+00 0. -1.
        -14    1    3    3    0    0 -0.28231502355E+02 -0.69164649302E+02 -0.54077548687E+03  0.54591106752E+03  0.00000000000E+00 0.  1.
          5    1    4    4  501    0  0.80432771847E+02  0.51264067669E+02 -0.28045914007E+03  0.29626379642E+03  0.41800000000E+01 0. -1.
         -5    1    4    4    0  501 -0.41218015931E+02  0.32615389546E+02 -0.74058975932E+02  0.90911455761E+02  0.41800000000E+01 0. -1.
</event>
<event>
11    1  0.8039394E-009  0.3559939E+03  0.7561462E-02  0.9789340E-01
         22   -1    0    0    0    0  0.00000000000E+00  0.00000000000E+00  0.88502830552E+03  0.88502830552E+03  0.00000000000E+00 0.  1.
         22   -1    0    0    0    0 -0.00000000000E+00 -0.00000000000E+00 -0.20215761447E+03  0.20215761447E+03  0.00000000000E+00 0.  1.
         24    2    1    2    0    0 -0.10374030893E+02 -0.10716755644E+03  0.10122773597E+03  0.16829574254E+03  0.80522647493E+02 0.  0.
         25    2    1    2    0    0 -0.31335514723E+03 -0.51002196098E+02  0.30416459223E+03  0.45711789316E+03  0.12509195329E+03 0.  0.
        -24    2    1    2    0    0  0.32372917812E+03  0.15816975254E+03  0.27747836286E+03  0.46177228429E+03  0.80132074066E+02 0.  0.
        -11    1    3    3    0    0 -0.21419257671E+02 -0.25329616225E+02  0.74412105115E+02  0.81471071215E+02  0.00000000000E+00 0.  1.
         12    1    3    3    0    0  0.11045226779E+02 -0.81837940216E+02  0.26815630850E+02  0.86824671329E+02  0.00000000000E+00 0. -1.
         13    1    5    5    0    0  0.13569807015E+03  0.51781408438E+02  0.15909360816E+03  0.21542065050E+03  0.00000000000E+00 0. -1.
        -14    1    5    5    0    0  0.18803110797E+03  0.10638834410E+03  0.11838475469E+03  0.24635163379E+03  0.00000000000E+00 0.  1.
          5    1    4    4  501    0 -0.84847761776E+02 -0.13262144694E+02  0.16720742581E+03  0.18801814489E+03  0.41800000000E+01 0. -1.
         -5    1    4    4    0  501 -0.22850738546E+03 -0.37740051405E+02  0.13695716642E+03  0.26909974827E+03  0.41800000000E+01 0. -1.
</event>
<event>
11    1  0.9187069E-009  0.1670604E+03  0.7561462E-02  0.1080619E+00
         22   -1    0    0    0    0  0.00000000000E+00  0.00000000000E+00  0.33813620701E+03  0.33813620701E+03  0.00000000000E+00 0.  1.
         22   -1    0    0    0    0 -0.00000000000E+00 -0.00000000000E+00 -0.76267122725E+03  0.76267122725E+03  0.00000000000E+00 0. -1.
        -24    2    1    2    0    0 -0.46928349549E+02 -0.10884132401E+01 -0.44160658634E+03  0.45161048656E+03  0.82049983800E+02 0.  0.
         25    2    1    2    0    0  0.15539595348E+03 -0.31556314568E+00 -0.26782113654E+03  0.33395267889E+03  0.12509287999E+03 0.  0.
         24    2    1    2    0    0 -0.10846760393E+03  0.14039763857E+01  0.28489270263E+03  0.31524426881E+03  0.80298846496E+02 0.  0.
        -11    1    5    5    0    0 -0.28601803473E+01 -0.38667956977E+01  0.11522069448E+03  0.11532103527E+03  0.00000000000E+00 0.  1.
         12    1    5    5    0    0 -0.10560742358E+03  0.52707720834E+01  0.16967200816E+03  0.19992323353E+03  0.00000000000E+00 0. -1.
         13    1    3    3    0    0 -0.30717111761E+02 -0.32342586421E+02 -0.35972836590E+03  0.36248321490E+03  0.00000000000E+00 0. -1.
        -14    1    3    3    0    0 -0.16211237788E+02  0.31254173181E+02 -0.81878220432E+02  0.89127271657E+02  0.00000000000E+00 0.  1.
          5    1    4    4  501    0  0.11629140774E+03 -0.57398224506E+02 -0.18469829546E+03  0.22571925137E+03  0.41800000000E+01 0.  1.
         -5    1    4    4    0  501  0.39104545738E+02  0.57082661360E+02 -0.83122841076E+02  0.10823342753E+03  0.41800000000E+01 0.  1.
</event>
<event>
11    1  0.8039394E-009  0.1367927E+03  0.7561462E-02  0.1111194E+00
         22   -1    0    0    0    0  0.00000000000E+00  0.00000000000E+00  0.18026182525E+03  0.18026182525E+03  0.00000000000E+00 0. -1.
         22   -1    0    0    0    0 -0.00000000000E+00 -0.00000000000E+00 -0.11836482791E+04  0.11836482791E+04  0.00000000000E+00 0. -1.
        -24    2    1    2    0    0 -0.46597578331E+01  0.55050198437E+02 -0.10632451539E+04  0.10676982786E+04  0.80231660263E+02 0.  0.
         25    2    1    2    0    0 -0.12800366367E+02 -0.58977858512E+02 -0.59528377880E+02  0.15110488556E+03  0.12508725552E+03 0.  0.
         24    2    1    2    0    0  0.17460124200E+02  0.39276600743E+01  0.11938707790E+03  0.14510694015E+03  0.80513770607E+02 0.  0.
        -11    1    5    5    0    0  0.10975665201E+02  0.41944976821E+02  0.54747380526E+02  0.69836394391E+02  0.00000000000E+00 0.  1.
         12    1    5    5    0    0  0.64844589996E+01 -0.38017316747E+02  0.64639697378E+02  0.75270545755E+02  0.00000000000E+00 0. -1.
         13    1    3    3    0    0  0.64071999119E+01  0.72289138225E+02 -0.93655507075E+03  0.93936264151E+03  0.00000000000E+00 0. -1.
        -14    1    3    3    0    0 -0.11066957745E+02 -0.17238939788E+02 -0.12669008311E+03  0.12833563713E+03  0.00000000000E+00 0.  1.
          5    1    4    4  501    0  0.39603728489E+02 -0.70748448235E+02 -0.18188494447E+02  0.83199110380E+02  0.41800000000E+01 0.  1.
         -5    1    4    4    0  501 -0.52404094856E+02  0.11770589723E+02 -0.41339883434E+02  0.67905775177E+02  0.41800000000E+01 0.  1.
</event>
<event>
11    1  0.8039394E-009  0.5021728E+03  0.7561462E-02  0.9388679E-01
         22   -1    0    0    0    0  0.00000000000E+00  0.00000000000E+00  0.11407756181E+04  0.11407756181E+04  0.00000000000E+00 0. -1.
         22   -1    0    0    0    0 -0.00000000000E+00 -0.00000000000E+00 -0.39039682615E+03  0.39039682615E+03  0.00000000000E+00 0. -1.
         24    2    1    2    0    0 -0.54701865025E+02 -0.46911568536E+02 -0.15137625562E+03  0.18589178274E+03  0.80299407375E+02 0.  0.
         25    2    1    2    0    0  0.49991820176E+03  0.13374516995E+03  0.55424441067E+03  0.76853064030E+03  0.12508596801E+03 0.  0.
        -24    2    1    2    0    0 -0.44521633673E+03 -0.86833601411E+02  0.34751063692E+03  0.57675002122E+03  0.78225848507E+02 0.  0.
        -11    1    3    3    0    0 -0.43968107417E+02  0.23113605298E+01 -0.26873303238E+02  0.51582082977E+02  0.00000000000E+00 0.  1.
         12    1    3    3    0    0 -0.10733757607E+02 -0.49222929066E+02 -0.12450295239E+03  0.13430969976E+03  0.00000000000E+00 0. -1.
         13    1    5    5    0    0 -0.40461479198E+03 -0.70201016247E+02  0.28298576013E+03  0.49872061619E+03  0.00000000000E+00 0. -1.
        -14    1    5    5    0    0 -0.40601544756E+02 -0.16632585164E+02  0.64524876781E+02  0.78029405031E+02  0.00000000000E+00 0.  1.
          5    1    4    4  501    0  0.31513674814E+03  0.12252070005E+03  0.42311485347E+03  0.54163284945E+03  0.41800000000E+01 0. -1.
         -5    1    4    4    0  501  0.18478145362E+03  0.11224469892E+02  0.13112955720E+03  0.22689779086E+03  0.41800000000E+01 0. -1.
</event>
<event>
11    1  0.8039394E-009  0.1379023E+03  0.7561462E-02  0.1109924E+00
         22   -1    0    0    0    0  0.00000000000E+00  0.00000000000E+00  0.14758312228E+04  0.14758312228E+04  0.00000000000E+00 0. -1.
         22   -1    0    0    0    0 -0.00000000000E+00 -0.00000000000E+00 -0.10713664587E+04  0.10713664587E+04  0.00000000000E+00 0.  1.
         24    2    1    2    0    0 -0.32739443573E+02  0.11351373603E+02 -0.85358587521E+03  0.85801711889E+03  0.79898717775E+02 0.  0.
         25    2    1    2    0    0  0.39074744595E+02 -0.68927849845E+02 -0.18820616760E+03  0.23947328282E+03  0.12509199620E+03 0.  0.
        -24    2    1    2    0    0 -0.63353010224E+01  0.57576476242E+02  0.14462568069E+04  0.14497072798E+04  0.81469374760E+02 0.  0.
        -11    1    3    3    0    0 -0.19318703250E+02  0.13659409765E+02 -0.83299252773E+03  0.83332847247E+03  0.00000000000E+00 0.  1.
         12    1    3    3    0    0 -0.13420740323E+02 -0.23080361622E+01 -0.20593347478E+02  0.24688646421E+02  0.00000000000E+00 0. -1.
         11    1    5    5    0    0 -0.15723582453E+02  0.64744045576E+02  0.14100367300E+04  0.14116099329E+04  0.00000000000E+00 0. -1.
        -12    1    5    5    0    0  0.93882814302E+01 -0.71675693337E+01  0.36220076875E+02  0.38097346984E+02  0.00000000000E+00 0.  1.
          5    1    4    4  501    0 -0.43178565428E+02 -0.64275825976E+01 -0.68075163616E+02  0.80977790979E+02  0.41800000000E+01 0. -1.
         -5    1    4    4    0  501  0.82253310023E+02 -0.62500267247E+02 -0.12013100398E+03  0.15849549184E+03  0.41800000000E+01 0. -1.
</event>
<event>
11    1  0.8039394E-009  0.1749556E+03  0.7561462E-02  0.1073798E+00
         22   -1    0    0    0    0  0.00000000000E+00  0.00000000000E+00  0.12399289519E+03  0.12399289519E+03  0.00000000000E+00 0.  1.
         22   -1    0    0    0    0 -0.00000000000E+00 -0.00000000000E+00 -0.99308942694E+03  0.99308942694E+03  0.00000000000E+00 0.  1.
        -24    2    1    2    0    0  0.51815876613E+02 -0.11200114819E+03 -0.76107974431E+03  0.77627946937E+03  0.90212499737E+02 0.  0.
         25    2    1    2    0    0 -0.56551113367E+02  0.10300282897E+03 -0.16885585422E+03  0.24075549763E+03  0.12507317433E+03 0.  0.
         24    2    1    2    0    0  0.47352367535E+01  0.89983192167E+01  0.60839066777E+02  0.10004735512E+03  0.78769848318E+02 0.  0.
        -13    1    5    5    0    0  0.33147111178E+02 -0.15049029281E+02  0.48889252291E+02  0.60953779631E+02  0.00000000000E+00 0.  1.
         14    1    5    5    0    0 -0.28411874425E+02  0.24047348498E+02  0.11949814486E+02  0.39093575487E+02  0.00000000000E+00 0. -1.
         13    1    3    3    0    0  0.70954386801E+02 -0.47088518303E+02 -0.43183027905E+03  0.44014684307E+03  0.00000000000E+00 0. -1.
        -14    1    3    3    0    0 -0.19138510188E+02 -0.64912629884E+02 -0.32924946526E+03  0.33613262630E+03  0.00000000000E+00 0.  1.
          5    1    4    4  501    0 -0.63136112342E+02  0.89195843069E+02 -0.18701750057E+03  0.21664506692E+03  0.41800000000E+01 0.  1.
         -5    1    4    4    0  501  0.65849989749E+01  0.13806985902E+02  0.18161646345E+02  0.24110430713E+02  0.41800000000E+01 0.  1.
</event>
<event>
11    1  0.8039394E-009  0.1469785E+03  0.7561462E-02  0.1100007E+00
         22   -1    0    0    0    0  0.00000000000E+00  0.00000000000E+00  0.50778006487E+03  0.50778006487E+03  0.00000000000E+00 0.  1.
         22   -1    0    0    0    0 -0.00000000000E+00 -0.00000000000E+00 -0.13535845421E+03  0.13535845421E+03  0.00000000000E+00 0.  1.
         24    2    1    2    0    0  0.38824128524E+02  0.20313097440E+02 -0.73375168104E+02  0.11581547901E+03  0.78162491015E+02 0.  0.
         25    2    1    2    0    0 -0.10536340756E+03 -0.23975492115E+02  0.19642459503E+03  0.25672245760E+03  0.12509007487E+03 0.  0.
        -24    2    1    2    0    0  0.66539279037E+02  0.36623946744E+01  0.24937218374E+03  0.27060058246E+03  0.81223767562E+02 0.  0.
        -13    1    3    3    0    0  0.24234866686E+02 -0.41864114260E+01 -0.82332485054E+02  0.85927253529E+02  0.00000000000E+00 0.  1.
         14    1    3    3    0    0  0.14589261838E+02  0.24499508866E+02  0.89573169501E+01  0.29888225484E+02  0.00000000000E+00 0. -1.
         13    1    5    5    0    0  0.75144497061E+02  0.16015362182E+02  0.13574505265E+03  0.15598046860E+03  0.00000000000E+00 0. -1.
        -14    1    5    5    0    0 -0.86052180242E+01 -0.12352967507E+02  0.11362713109E+03  0.11462011386E+03  0.00000000000E+00 0.  1.
          5    1    4    4  501    0 -0.50406898312E+01 -0.54302941660E+01 -0.17622327484E+02  0.19568226150E+02  0.41800000000E+01 0.  1.
         -5    1    4    4    0  501 -0.10032271773E+03 -0.18545197949E+02  0.21404692251E+03  0.23715423145E+03  0.41800000000E+01 0.  1.
</event>
<event>
11    1  0.8039394E-009  0.1417504E+03  0.7561462E-02  0.1105619E+00
         22   -1    0    0    0    0  0.00000000000E+00  0.00000000000E+00  0.13922200778E+04  0.13922200778E+04  0.00000000000E+00 0.  1.
         22   -1    0    0    0    0 -0.00000000000E+00 -0.00000000000E+00 -0.42330302330E+03  0.42330302330E+03  0.00000000000E+00 0.  1.
        -24    2    1    2    0    0 -0.63025105487E+02  0.20200251291E+00 -0.28205139504E+03  0.30012485754E+03  0.80930438895E+02 0.  0.
         25    2    1    2    0    0  0.84190849453E+02  0.69466173870E+01 -0.87450133215E+02  0.17444674639E+03  0.12509111440E+03 0.  0.
         24    2    1    2    0    0 -0.21165743966E+02 -0.71486198999E+01  0.13384185828E+04  0.13409514972E+04  0.79293906324E+02 0.  0.
        -13    1    5    5    0    0 -0.19870469520E+02  0.15892831529E+02  0.12221432264E+04  0.12224080675E+04  0.00000000000E+00 0.  1.
         14    1    5    5    0    0 -0.12952744459E+01 -0.23041451429E+02  0.11627535644E+03  0.11854342974E+03  0.00000000000E+00 0. -1.
         13    1    3    3    0    0 -0.62489743704E+01 -0.31945978890E+02 -0.14108076994E+03  0.14478735751E+03  0.00000000000E+00 0. -1.
        -14    1    3    3    0    0 -0.56776131116E+02  0.32147981403E+02 -0.14097062510E+03  0.15533750002E+03  0.00000000000E+00 0.  1.
          5    1    4    4  501    0  0.58207023173E+02  0.92183105177E+01  0.21094951999E+02  0.62733597022E+02  0.41800000000E+01 0.  1.
         -5    1    4    4    0  501  0.25983826280E+02 -0.22716931307E+01 -0.10854508521E+03  0.11171314937E+03  0.41800000000E+01 0.  1.
</event>
<event>
11    1  0.8039394E-009  0.1416263E+03  0.7561462E-02  0.1105756E+00
         22   -1    0    0    0    0  0.00000000000E+00  0.00000000000E+00  0.30214746434E+03  0.30214746434E+03  0.00000000000E+00 0.  1.
         22   -1    0    0    0    0 -0.00000000000E+00 -0.00000000000E+00 -0.11371709584E+04  0.11371709584E+04  0.00000000000E+00 0. -1.
         24    2    1    2    0    0 -0.65848009847E+02  0.68041819331E+01 -0.10420053207E+04  0.10472543760E+04  0.81144207635E+02 0.  0.
         25    2    1    2    0    0  0.74495175765E+02  0.18159523502E+02 -0.21659515110E+02  0.14829457720E+03  0.12507136974E+03 0.  0.
        -24    2    1    2    0    0 -0.86471659181E+01 -0.24963705435E+02  0.22864134172E+03  0.24376946955E+03  0.80303991654E+02 0.  0.
        -13    1    3    3    0    0 -0.35499095379E+02  0.13856376336E+02 -0.15200999617E+03  0.15671382795E+03  0.00000000000E+00 0.  1.
         14    1    3    3    0    0 -0.30348914468E+02 -0.70521944029E+01 -0.88999532452E+03  0.89054054805E+03  0.00000000000E+00 0. -1.
         11    1    5    5    0    0  0.21937699355E+02  0.63236240535E+01  0.19272335338E+02  0.29877646887E+02  0.00000000000E+00 0. -1.
        -12    1    5    5    0    0 -0.30584865273E+02 -0.31287329489E+02  0.20936900638E+03  0.21389182266E+03  0.00000000000E+00 0.  1.
          5    1    4    4  501    0  0.10464382490E+03  0.18172332761E+02 -0.39051559077E+02  0.11323895281E+03  0.41800000000E+01 0.  1.
         -5    1    4    4    0  501 -0.30148649131E+02 -0.12809259105E-01  0.17392043967E+02  0.35055624396E+02  0.41800000000E+01 0.  1.
</event>
<event>
11    1  0.8039394E-009  0.2030944E+03  0.7561462E-02  0.1052357E+00
         22   -1    0    0    0    0  0.00000000000E+00  0.00000000000E+00  0.30716629824E+04  0.30716629824E+04  0.00000000000E+00 0. -1.
         22   -1    0    0    0    0 -0.00000000000E+00 -0.00000000000E+00 -0.24606473114E+03  0.24606473114E+03  0.00000000000E+00 0. -1.
         24    2    1    2    0    0 -0.79101149611E+02 -0.14453662122E+03 -0.18080623766E+03  0.25772164651E+03  0.81127829758E+02 0.  0.
         25    2    1    2    0    0 -0.18417354418E+02  0.13999634960E+03  0.32523624339E+03  0.37600244392E+03  0.12514410484E+03 0.  0.
        -24    2    1    2    0    0  0.97518504029E+02  0.45402716208E+01  0.26811682455E+04  0.26840036231E+04  0.75377817163E+02 0.  0.
        -11    1    3    3    0    0 -0.49136528242E+02 -0.11838978613E+03 -0.84500928296E+02  0.15352832556E+03  0.00000000000E+00 0.  1.
         12    1    3    3    0    0 -0.29964621369E+02 -0.26146835093E+02 -0.96305309365E+02  0.10419332095E+03  0.00000000000E+00 0. -1.
         13    1    5    5    0    0  0.10823644845E+03 -0.58644580792E+01  0.23482520744E+04  0.23507525020E+04  0.00000000000E+00 0. -1.
        -14    1    5    5    0    0 -0.10717944420E+02  0.10404729700E+02  0.33291617113E+03  0.33325112113E+03  0.00000000000E+00 0.  1.
          5    1    4    4  501    0 -0.60457418390E+01  0.90000314753E+02  0.30886999536E+03  0.32179924501E+03  0.41800000000E+01 0.  1.
         -5    1    4    4    0  501 -0.12371612579E+02  0.49996034847E+02  0.16366248022E+02  0.54203198915E+02  0.41800000000E+01 0.  1.
</event>
<event>
11    1  0.8039394E-009  0.2091095E+03  0.7561462E-02  0.1048262E+00
         22   -1    0    0    0    0  0.00000000000E+00  0.00000000000E+00  0.31919596778E+03  0.31919596778E+03  0.00000000000E+00 0. -1.
         22   -1    0    0    0    0 -0.00000000000E+00 -0.00000000000E+00 -0.30832821628E+03  0.30832821628E+03  0.00000000000E+00 0. -1.
         24    2    1    2    0    0  0.31597603613E+02  0.98704963930E+02 -0.13883303139E+03  0.19147753195E+03  0.81534999716E+02 0.  0.
         25    2    1    2    0    0 -0.64024397203E+02 -0.21791187699E+03  0.12190214099E+03  0.28651999036E+03  0.12509541689E+03 0.  0.
        -24    2    1    2    0    0  0.32426793590E+02  0.11920691306E+03  0.27798641901E+02  0.14952666174E+03  0.79521525487E+02 0.  0.
        -11    1    3    3    0    0  0.14903607416E+02  0.10325000336E+03 -0.13946518449E+03  0.17416434305E+03  0.00000000000E+00 0.  1.
         12    1    3    3    0    0  0.16693996197E+02 -0.45450394259E+01  0.63215309260E+00  0.17313188902E+02  0.00000000000E+00 0. -1.
         13    1    5    5    0    0 -0.10192453293E+01  0.10853856463E+03  0.34278452167E+02  0.11382737437E+03  0.00000000000E+00 0. -1.
        -14    1    5    5    0    0  0.33446038920E+02  0.10668348430E+02 -0.64798102656E+01  0.35699287370E+02  0.00000000000E+00 0.  1.
          5    1    4    4  501    0 -0.88797790815E+02 -0.14852584047E+03  0.42736612213E+02  0.17829431669E+03  0.41800000000E+01 0. -1.
         -5    1    4    4    0  501  0.24773393611E+02 -0.69386036529E+02  0.79165528776E+02  0.10822567368E+03  0.41800000000E+01 0. -1.
</event>
<event>
11    1  0.8039394E-009  0.3964641E+03  0.7561462E-02  0.9660249E-01
         22   -1    0    0    0    0  0.00000000000E+00  0.00000000000E+00  0.93039102967E+03  0.93039102967E+03  0.00000000000E+00 0. -1.
         22   -1    0    0    0    0 -0.00000000000E+00 -0.00000000000E+00 -0.13911126293E+04  0.13911126293E+04  0.00000000000E+00 0.  1.
        -24    2    1    2    0    0 -0.24127573320E+03 -0.26423086524E+03 -0.76464959193E+03  0.84801738267E+03  0.80078419716E+02 0.  0.
         25    2    1    2    0    0  0.31967704593E+03  0.26370419270E+03 -0.49981649990E+03  0.66120888863E+03  0.12508935162E+03 0.  0.
         24    2    1    2    0    0 -0.78401312722E+02  0.52667253380E+00  0.80374449219E+03  0.81227738768E+03  0.87420264188E+02 0.  0.
        -11    1    5    5    0    0 -0.91658973990E+01 -0.76758153288E+01  0.10313854080E+02  0.15789471241E+02  0.00000000000E+00 0.  1.
         12    1    5    5    0    0 -0.69235415323E+02  0.82024878626E+01  0.79343063811E+03  0.79648791644E+03  0.00000000000E+00 0. -1.
         13    1    3    3    0    0 -0.75712443045E+01 -0.45352026857E+02 -0.11133736776E+03  0.12045804058E+03  0.00000000000E+00 0. -1.
        -14    1    3    3    0    0 -0.23370448890E+03 -0.21887883838E+03 -0.65331222417E+03  0.72755934209E+03  0.00000000000E+00 0.  1.
          5    1    4    4  501    0  0.60919112817E+02  0.11606411027E+03 -0.11420486072E+03  0.17390295745E+03  0.41800000000E+01 0. -1.
         -5    1    4    4    0  501  0.25875793311E+03  0.14764008243E+03 -0.38561163918E+03  0.48730593117E+03  0.41800000000E+01 0. -1.
</event>
<event>
11    1  0.8039394E-009  0.2329603E+03  0.7561462E-02  0.1033389E+00
         22   -1    0    0    0    0  0.00000000000E+00  0.00000000000E+00  0.79648241889E+03  0.79648241889E+03  0.00000000000E+00 0.  1.
         22   -1    0    0    0    0 -0.00000000000E+00 -0.00000000000E+00 -0.31697285681E+03  0.31697285681E+03  0.00000000000E+00 0.  1.
         24    2    1    2    0    0 -0.18129199242E+03  0.78990199818E+02 -0.23551783105E+03  0.31760860631E+03  0.79374680348E+02 0.  0.
         25    2    1    2    0    0  0.18815238879E+03 -0.30486324233E+02  0.34266353733E+03  0.41158005658E+03  0.12509638600E+03 0.  0.
        -24    2    1    2    0    0 -0.68603963645E+01 -0.48503875585E+02  0.37236385580E+03  0.38426661280E+03  0.81279134009E+02 0.  0.
        -11    1    3    3    0    0 -0.16062230855E+03  0.95291415619E+02 -0.20595343643E+03  0.27802301680E+03  0.00000000000E+00 0.  1.
         12    1    3    3    0    0 -0.20669683877E+02 -0.16301215801E+02 -0.29564394614E+02  0.39585589513E+02  0.00000000000E+00 0. -1.
         11    1    5    5    0    0  0.35294268143E+02 -0.23502441658E+02  0.22516165246E+03  0.22911966276E+03  0.00000000000E+00 0. -1.
        -12    1    5    5    0    0 -0.42154664508E+02 -0.25001433926E+02  0.14720220334E+03  0.15514695004E+03  0.00000000000E+00 0.  1.
          5    1    4    4  501    0  0.14107777091E+03 -0.16127426825E+02  0.12770945241E+03  0.19102410313E+03  0.41800000000E+01 0. -1.
         -5    1    4    4    0  501  0.47074617881E+02 -0.14358897408E+02  0.21495408491E+03  0.22055595345E+03  0.41800000000E+01 0. -1.
</event>
<event>
11    1  0.8039394E-009  0.1752590E+03  0.7561462E-02  0.1073544E+00
         22   -1    0    0    0    0  0.00000000000E+00  0.00000000000E+00  0.99229745439E+03  0.99229745439E+03  0.00000000000E+00 0. -1.
         22   -1    0    0    0    0 -0.00000000000E+00 -0.00000000000E+00 -0.74603414784E+03  0.74603414784E+03  0.00000000000E+00 0.  1.
        -24    2    1    2    0    0  0.38301519981E+02  0.83230222309E+02 -0.70701436297E+03  0.71753877347E+03  0.81229955383E+02 0.  0.
         25    2    1    2    0    0  0.56951493643E+02  0.27311602507E+02  0.17311019524E+03  0.22272018912E+03  0.12509095366E+03 0.  0.
         24    2    1    2    0    0 -0.95253013624E+02 -0.11054182482E+03  0.78016747428E+03  0.79807263963E+03  0.83462677649E+02 0.  0.
        -13    1    5    5    0    0 -0.64899746984E+01  0.96946896679E+00  0.21867858099E+03  0.21877701302E+03  0.00000000000E+00 0.  1.
         14    1    5    5    0    0 -0.88763038926E+02 -0.11151129378E+03  0.56148889329E+03  0.57929562661E+03  0.00000000000E+00 0. -1.
         11    1    3    3    0    0 -0.79640365375E+01  0.56003337024E+02 -0.20496392088E+03  0.21262645296E+03  0.00000000000E+00 0. -1.
        -12    1    3    3    0    0  0.46265556518E+02  0.27226885285E+02 -0.50205044209E+03  0.50491232051E+03  0.00000000000E+00 0.  1.
          5    1    4    4  501    0  0.70676674691E+02 -0.32977074200E+02  0.99661896301E+02  0.12662008428E+03  0.41800000000E+01 0.  1.
         -5    1    4    4    0  501 -0.13725181048E+02  0.60288676707E+02  0.73448298941E+02  0.96100104845E+02  0.41800000000E+01 0.  1.
</event>
<event>
11    1  0.8039394E-009  0.1622951E+03  0.7561462E-02  0.1084938E+00
         22   -1    0    0    0    0  0.00000000000E+00  0.00000000000E+00  0.11395497579E+04  0.11395497579E+04  0.00000000000E+00 0.  1.
         22   -1    0    0    0    0 -0.00000000000E+00 -0.00000000000E+00 -0.44354571446E+03  0.44354571446E+03  0.00000000000E+00 0.  1.
        -24    2    1    2    0    0 -0.25576443808E+02 -0.10062019297E+03 -0.41381078321E+03  0.43303622078E+03  0.74178342470E+02 0.  0.
         25    2    1    2    0    0  0.72301941213E+02  0.71000639710E+02  0.36553112848E+03  0.39941017113E+03  0.12508723902E+03 0.  0.
         24    2    1    2    0    0 -0.46725497405E+02  0.29619553263E+02  0.74428369816E+03  0.75064908044E+03  0.80344437166E+02 0.  0.
        -13    1    5    5    0    0 -0.69267452936E+02  0.26629653299E+02  0.53199176332E+03  0.53714276939E+03  0.00000000000E+00 0.  1.
         14    1    5    5    0    0  0.22541955531E+02  0.29898999640E+01  0.21229193484E+03  0.21350631106E+03  0.00000000000E+00 0. -1.
         11    1    3    3    0    0 -0.14430237699E+02 -0.47848417645E+02 -0.76086766916E+02  0.91032405938E+02  0.00000000000E+00 0. -1.
        -12    1    3    3    0    0 -0.11146206109E+02 -0.52771775328E+02 -0.33772401630E+03  0.34200381484E+03  0.00000000000E+00 0.  1.
          5    1    4    4  501    0 -0.15400346586E+02  0.54029945833E+02  0.65800073932E+02  0.86622906042E+02  0.41800000000E+01 0.  1.
         -5    1    4    4    0  501  0.87702287799E+02  0.16970693878E+02  0.29973105455E+03  0.31278726508E+03  0.41800000000E+01 0.  1.
</event>
<event>
11    1  0.8039394E-009  0.1782075E+03  0.7561462E-02  0.1071102E+00
         22   -1    0    0    0    0  0.00000000000E+00  0.00000000000E+00  0.37787789972E+04  0.37787789972E+04  0.00000000000E+00 0. -1.
         22   -1    0    0    0    0 -0.00000000000E+00 -0.00000000000E+00 -0.20529887488E+04  0.20529887488E+04  0.00000000000E+00 0. -1.
         24    2    1    2    0    0  0.12441648297E+03 -0.35310251322E+02 -0.18275129869E+04  0.18338435177E+04  0.80324685115E+02 0.  0.
         25    2    1    2    0    0 -0.85242662815E+02  0.73076435868E+02 -0.18982922946E+03  0.25355262035E+03  0.12508923969E+03 0.  0.
        -24    2    1    2    0    0 -0.39173820156E+02 -0.37766184547E+02  0.37431324648E+04  0.37443716080E+04  0.79480921921E+02 0.  0.
        -11    1    3    3    0    0  0.50556763386E+02  0.21638976918E+02 -0.48832171982E+03  0.49140852016E+03  0.00000000000E+00 0.  1.
         12    1    3    3    0    0  0.73859719585E+02 -0.56949228239E+02 -0.13391912671E+04  0.13424349975E+04  0.00000000000E+00 0. -1.
         13    1    5    5    0    0  0.62348473330E+01  0.15625543629E+02  0.16101110310E+04  0.16101989204E+04  0.00000000000E+00 0. -1.
        -14    1    5    5    0    0 -0.45408667489E+02 -0.53391728175E+02  0.21330214338E+04  0.21341726876E+04  0.00000000000E+00 0.  1.
          5    1    4    4  501    0  0.50768506137E+01  0.61518721586E+02 -0.13152189375E+03  0.14534719968E+03  0.41800000000E+01 0.  1.
         -5    1    4    4    0  501 -0.90319513429E+02  0.11557714282E+02 -0.58307335708E+02  0.10820542067E+03  0.41800000000E+01 0.  1.
</event>
<event>
11    1  0.8039394E-009  0.1323310E+03  0.7561462E-02  0.1116438E+00
         22   -1    0    0    0    0  0.00000000000E+00  0.00000000000E+00  0.24844474891E+04  0.24844474891E+04  0.00000000000E+00 0. -1.
         22   -1    0    0    0    0 -0.00000000000E+00 -0.00000000000E+00 -0.43538845275E+03  0.43538845275E+03  0.00000000000E+00 0. -1.
         24    2    1    2    0    0  0.24459422973E+02 -0.34353298465E+02 -0.38737874474E+03  0.39747833398E+03  0.78411234042E+02 0.  0.
         25    2    1    2    0    0 -0.60507178972E+02  0.39773414063E+02  0.81758377947E+02  0.16605686773E+03  0.12508959902E+03 0.  0.
        -24    2    1    2    0    0  0.36047755999E+02 -0.54201155976E+01  0.23546794032E+04  0.23563007402E+04  0.79430900726E+02 0.  0.
        -13    1    3    3    0    0 -0.36219978680E+01  0.66381227496E+01 -0.26884899625E+03  0.26895532403E+03  0.00000000000E+00 0.  1.
         14    1    3    3    0    0  0.28081420841E+02 -0.40991421215E+02 -0.11852974849E+03  0.12852300995E+03  0.00000000000E+00 0. -1.
         13    1    5    5    0    0  0.18810061770E+02  0.80092721715E+01  0.21990233761E+04  0.21991184087E+04  0.00000000000E+00 0. -1.
        -14    1    5    5    0    0  0.17237694228E+02 -0.13429387769E+02  0.15565602705E+03  0.15718233143E+03  0.00000000000E+00 0.  1.
          5    1    4    4  501    0 -0.97391450822E+02  0.12841990400E+02  0.61069812127E+02  0.11574543518E+03  0.41800000000E+01 0.  1.
         -5    1    4    4    0  501  0.36884271851E+02  0.26931423663E+02  0.20688565820E+02  0.50311432559E+02  0.41800000000E+01 0.  1.
</event>
<event>
11    1  0.8039394E-009  0.2128995E+03  0.7561462E-02  0.1045759E+00
         22   -1    0    0    0    0  0.00000000000E+00  0.00000000000E+00  0.54630551439E+03  0.54630551439E+03  0.00000000000E+00 0.  1.
         22   -1    0    0    0    0 -0.00000000000E+00 -0.00000000000E+00 -0.21099383111E+04  0.21099383111E+04  0.00000000000E+00 0. -1.
         24    2    1    2    0    0 -0.43457647725E+02  0.16448733415E+03 -0.18749550990E+04  0.18843416093E+04  0.79636844302E+02 0.  0.
         25    2    1    2    0    0  0.30954938180E+02 -0.19927453516E+03 -0.16408225606E+03  0.28851312936E+03  0.12509312730E+03 0.  0.
        -24    2    1    2    0    0  0.12502709544E+02  0.34787201008E+02  0.47540455836E+03  0.48338908684E+03  0.79303518643E+02 0.  0.
        -13    1    3    3    0    0  0.54116464043E+01  0.12000405222E+03 -0.10859164455E+04  0.10925405187E+04  0.00000000000E+00 0.  1.
         14    1    3    3    0    0 -0.48869294129E+02  0.44483281928E+02 -0.78903865350E+03  0.79180109055E+03  0.00000000000E+00 0. -1.
         11    1    5    5    0    0  0.88678635357E+01 -0.19972199640E+02  0.51466042118E+02  0.55913158142E+02  0.00000000000E+00 0. -1.
        -12    1    5    5    0    0  0.36348460087E+01  0.54759400648E+02  0.42393851624E+03  0.42747592870E+03  0.00000000000E+00 0.  1.
          5    1    4    4  501    0  0.39779860524E+02 -0.17253307219E+03 -0.18273416040E+03  0.25447857293E+03  0.41800000000E+01 0.  1.
         -5    1    4    4    0  501 -0.88249223432E+01 -0.26741462966E+02  0.18651904338E+02  0.34034556429E+02  0.41800000000E+01 0.  1.
</event>
<event>
11    1  0.8039394E-009  0.1742899E+03  0.7561462E-02  0.1074358E+00
         22   -1    0    0    0    0  0.00000000000E+00  0.00000000000E+00  0.42886198059E+03  0.42886198059E+03  0.00000000000E+00 0. -1.
         22   -1    0    0    0    0 -0.00000000000E+00 -0.00000000000E+00 -0.12514692966E+04  0.12514692966E+04  0.00000000000E+00 0. -1.
         24    2    1    2    0    0  0.55095623673E+02  0.32067417151E+02 -0.11293205453E+04  0.11340334215E+04  0.81259214926E+02 0.  0.
         25    2    1    2    0    0  0.73117940969E+02 -0.19604933659E+02 -0.53102583910E+02  0.15554212778E+03  0.12507150908E+03 0.  0.
        -24    2    1    2    0    0 -0.12821356464E+03 -0.12462483492E+02  0.35981581325E+03  0.39075572788E+03  0.81416139416E+02 0.  0.
        -13    1    3    3    0    0 -0.52812620321E+01  0.66598554443E+01 -0.11525743211E+02  0.14320899405E+02  0.00000000000E+00 0.  1.
         14    1    3    3    0    0  0.60376885705E+02  0.25407561707E+02 -0.11177948021E+04  0.11197125221E+04  0.00000000000E+00 0. -1.
         13    1    5    5    0    0 -0.53110538639E+02 -0.25301172149E+02  0.25173847325E+03  0.25852105821E+03  0.00000000000E+00 0. -1.
        -14    1    5    5    0    0 -0.75103026003E+02  0.12838688657E+02  0.10807734000E+03  0.13223466967E+03  0.00000000000E+00 0.  1.
          5    1    4    4  501    0  0.18689924081E+02 -0.67951088487E+02 -0.11319485046E+02  0.71500117696E+02  0.41800000000E+01 0.  1.
         -5    1    4    4    0  501  0.54428016888E+02  0.48346154829E+02 -0.41783098865E+02  0.84042010089E+02  0.41800000000E+01 0.  1.
</event>
<event>
11    1  0.8039394E-009  0.1771918E+03  0.7561462E-02  0.1071937E+00
         22   -1    0    0    0    0  0.00000000000E+00  0.00000000000E+00  0.87972811942E+03  0.87972811942E+03  0.00000000000E+00 0. -1.
         22   -1    0    0    0    0 -0.00000000000E+00 -0.00000000000E+00 -0.24093195739E+03  0.24093195739E+03  0.00000000000E+00 0.  1.
        -24    2    1    2    0    0  0.60778560114E+01 -0.75505794337E+02 -0.16726622829E+03  0.20023217989E+03  0.79855303036E+02 0.  0.
         25    2    1    2    0    0 -0.11368066176E+03  0.12863242088E+03  0.17807486413E+03  0.27718089567E+03  0.12509595969E+03 0.  0.
         24    2    1    2    0    0  0.10760280575E+03 -0.53126626543E+02  0.62798752619E+03  0.64324700125E+03  0.70693488487E+02 0.  0.
        -11    1    5    5    0    0  0.55830784264E+01 -0.19105337370E+02  0.32381266630E+02  0.38009618641E+02  0.00000000000E+00 0.  1.
         12    1    5    5    0    0  0.10201972733E+03 -0.34021289173E+02  0.59560625956E+03  0.60523738261E+03  0.00000000000E+00 0. -1.
         13    1    3    3    0    0 -0.22536606506E+01  0.10598164231E+02 -0.66720295974E+02  0.67594363421E+02  0.00000000000E+00 0. -1.
        -14    1    3    3    0    0  0.83315166620E+01 -0.86103958569E+02 -0.10054593232E+03  0.13263781646E+03  0.00000000000E+00 0.  1.
          5    1    4    4  501    0 -0.61151611550E+02  0.29404385100E+02  0.14486510142E+03  0.16002345912E+03  0.41800000000E+01 0. -1.
         -5    1    4    4    0  501 -0.52529050214E+02  0.99228035780E+02  0.33209762712E+02  0.11715743656E+03  0.41800000000E+01 0. -1.
</event>
<event>
11    1  0.8039394E-009  0.1579534E+03  0.7561462E-02  0.1089018E+00
         22   -1    0    0    0    0  0.00000000000E+00  0.00000000000E+00  0.15547329653E+03  0.15547329653E+03  0.00000000000E+00 0. -1.
         22   -1    0    0    0    0 -0.00000000000E+00 -0.00000000000E+00 -0.11028422377E+04  0.11028422377E+04  0.00000000000E+00 0.  1.
        -24    2    1    2    0    0 -0.12704046635E+02 -0.41196626539E+01 -0.70195912787E+03  0.70673772301E+03  0.80952007430E+02 0.  0.
         25    2    1    2    0    0 -0.35466505535E+02  0.87914744227E+02 -0.35272040006E+03  0.38606192629E+03  0.12508099393E+03 0.  0.
         24    2    1    2    0    0  0.48170552170E+02 -0.83795081573E+02  0.10731058671E+03  0.16551588498E+03  0.80857457098E+02 0.  0.
        -11    1    5    5    0    0  0.37099283008E+02 -0.87831589289E+02  0.51282404271E+02  0.10826185785E+03  0.00000000000E+00 0.  1.
         12    1    5    5    0    0  0.11071269161E+02  0.40365077160E+01  0.56028182440E+02  0.57254027133E+02  0.00000000000E+00 0. -1.
         13    1    3    3    0    0 -0.46303885897E+02  0.51402058392E+01 -0.35840214976E+03  0.36141744911E+03  0.00000000000E+00 0. -1.
        -14    1    3    3    0    0  0.33599839262E+02 -0.92598684932E+01 -0.34355697810E+03  0.34532027390E+03  0.00000000000E+00 0.  1.
          5    1    4    4  501    0 -0.36095626948E+02  0.35360113912E+02 -0.29686681097E+02  0.58753752009E+02  0.41800000000E+01 0. -1.
         -5    1    4    4    0  501  0.62912141245E+00  0.52554630315E+02 -0.32303371896E+03  0.32730817428E+03  0.41800000000E+01 0. -1.
</event>
<event>
11    1  0.8039394E-009  0.1355519E+03  0.7561462E-02  0.1112630E+00
         22   -1    0    0    0    0  0.00000000000E+00  0.00000000000E+00  0.13816610787E+04  0.13816610787E+04  0.00000000000E+00 0.  1.
         22   -1    0    0    0    0 -0.00000000000E+00 -0.00000000000E+00 -0.10680838234E+03  0.10680838234E+03  0.00000000000E+00 0. -1.
        -24    2    1    2    0    0  0.25638655875E+02 -0.47608663461E+02 -0.97852600981E+01  0.95585499073E+02  0.78210682175E+02 0.  0.
         25    2    1    2    0    0 -0.14175949383E+02  0.47110293165E+02  0.32753706617E+02  0.13835103520E+03  0.12509143208E+03 0.  0.
         24    2    1    2    0    0 -0.11462706492E+02  0.49837029615E+00  0.12518842498E+04  0.12545329267E+04  0.80666271429E+02 0.  0.
        -11    1    5    5    0    0 -0.27233074358E+02  0.22268864551E+01  0.11992134387E+04  0.11995246855E+04  0.00000000000E+00 0.  1.
         12    1    5    5    0    0  0.15770367866E+02 -0.17285161590E+01  0.52670811067E+02  0.55008241284E+02  0.00000000000E+00 0. -1.
         13    1    3    3    0    0  0.51510564332E+02 -0.25245819664E+02 -0.18538606392E+02  0.60285732767E+02  0.00000000000E+00 0. -1.
        -14    1    3    3    0    0 -0.25871908458E+02 -0.22362843797E+02  0.87533462936E+01  0.35299766306E+02  0.00000000000E+00 0.  1.
          5    1    4    4  501    0 -0.25936053602E+02  0.20267905410E+02  0.77725223593E+02  0.84511239777E+02  0.41800000000E+01 0.  1.
         -5    1    4    4    0  501  0.11760104219E+02  0.26842387755E+02 -0.44971516975E+02  0.53839795419E+02  0.41800000000E+01 0.  1.
</event>
<event>
11    1  0.9582621E-009  0.1621407E+03  0.7561462E-02  0.1085081E+00
         22   -1    0    0    0    0  0.00000000000E+00  0.00000000000E+00  0.10850857668E+04  0.10850857668E+04  0.00000000000E+00 0.  1.
         22   -1    0    0    0    0 -0.00000000000E+00 -0.00000000000E+00 -0.91342200968E+03  0.91342200968E+03  0.00000000000E+00 0. -1.
         24    2    1    2    0    0 -0.18053074115E+02  0.39510931168E+02 -0.80480929371E+03  0.81070706825E+03  0.87412379539E+02 0.  0.
         25    2    1    2    0    0 -0.26940815669E+01  0.63286069053E+02 -0.52911954068E+02  0.14986612118E+03  0.12509114590E+03 0.  0.
        -24    2    1    2    0    0  0.20747155682E+02 -0.10279700022E+03  0.10293850049E+04  0.10379345871E+04  0.81713223826E+02 0.  0.
        -11    1    3    3    0    0  0.92450691940E+01  0.31094124757E+02 -0.96199681709E+02  0.10152189251E+03  0.00000000000E+00 0.  1.
         12    1    3    3    0    0 -0.27298143310E+02  0.84168064111E+01 -0.70860961200E+03  0.70918517573E+03  0.00000000000E+00 0. -1.
         13    1    5    5    0    0  0.78245998673E+01 -0.37366147484E+02  0.11605973094E+03  0.12217738943E+03  0.00000000000E+00 0. -1.
        -14    1    5    5    0    0  0.12922555815E+02 -0.65430852738E+02  0.91332527397E+03  0.91575719763E+03  0.00000000000E+00 0.  1.
          5    1    4    4  501    0  0.21125130038E+02  0.27180034061E+02  0.36565679043E+02  0.50393914856E+02  0.41800000000E+01 0. -1.
         -5    1    4    4    0  501 -0.23819211605E+02  0.36106034992E+02 -0.89477633111E+02  0.99472206326E+02  0.41800000000E+01 0. -1.
</event>
<event>
11    1  0.8039394E-009  0.1322080E+03  0.7561462E-02  0.1116585E+00
         22   -1    0    0    0    0  0.00000000000E+00  0.00000000000E+00  0.29411252094E+03  0.29411252094E+03  0.00000000000E+00 0.  1.
         22   -1    0    0    0    0 -0.00000000000E+00 -0.00000000000E+00 -0.67799432830E+03  0.67799432830E+03  0.00000000000E+00 0.  1.
        -24    2    1    2    0    0 -0.22440321699E+02 -0.40337758241E+02 -0.47045449071E+03  0.47933194832E+03  0.79378750766E+02 0.  0.
         25    2    1    2    0    0  0.37391992616E+02  0.75310251005E+01 -0.17442626457E+03  0.21800180535E+03  0.12508152508E+03 0.  0.
         24    2    1    2    0    0 -0.14951670917E+02  0.32806733141E+02  0.26099894792E+03  0.27477309557E+03  0.77974156165E+02 0.  0.
        -11    1    5    5    0    0 -0.10425934511E+02  0.63130691007E+01  0.24090902426E+03  0.24121714890E+03  0.00000000000E+00 0.  1.
         12    1    5    5    0    0 -0.45257364061E+01  0.26493664040E+02  0.20089923660E+02  0.33555946670E+02  0.00000000000E+00 0. -1.
         11    1    3    3    0    0  0.20070967345E+02 -0.32524950804E+02 -0.33439147482E+03  0.33656852882E+03  0.00000000000E+00 0. -1.
        -12    1    3    3    0    0 -0.42511289044E+02 -0.78128074377E+01 -0.13606301589E+03  0.14276341950E+03  0.00000000000E+00 0.  1.
          5    1    4    4  501    0  0.47517150244E+02 -0.32830703398E+02 -0.16536358934E+03  0.17520937113E+03  0.41800000000E+01 0.  1.
         -5    1    4    4    0  501 -0.10125157628E+02  0.40361728498E+02 -0.90626752269E+01  0.42792434222E+02  0.41800000000E+01 0.  1.
</event>
<event>
11    1  0.8039394E-009  0.1309722E+03  0.7561462E-02  0.1118080E+00
         22   -1    0    0    0    0  0.00000000000E+00  0.00000000000E+00  0.58958278898E+03  0.58958278898E+03  0.00000000000E+00 0.  1.
         22   -1    0    0    0    0 -0.00000000000E+00 -0.00000000000E+00 -0.52039198669E+03  0.52039198669E+03  0.00000000000E+00 0.  1.
        -24    2    1    2    0    0  0.85742995769E+00 -0.61790681699E+00 -0.44596127844E+03  0.45354357179E+03  0.82578403065E+02 0.  0.
         25    2    1    2    0    0 -0.39232969345E+02 -0.50851614848E+01 -0.24235461733E+01  0.13121087499E+03  0.12508131511E+03 0.  0.
         24    2    1    2    0    0  0.38375539388E+02  0.57030683017E+01  0.51757562691E+03  0.52522032889E+03  0.80415528964E+02 0.  0.
        -13    1    5    5    0    0  0.35498348590E+02 -0.22710094641E+02  0.44847834036E+03  0.45045388546E+03  0.00000000000E+00 0.  1.
         14    1    5    5    0    0  0.28771907979E+01  0.28413162942E+02  0.69097286545E+02  0.74766443430E+02  0.00000000000E+00 0. -1.
         11    1    3    3    0    0  0.12884716654E+02  0.33032731182E+01 -0.82555690751E+01  0.15655093654E+02  0.00000000000E+00 0. -1.
        -12    1    3    3    0    0 -0.12027286696E+02 -0.39211799352E+01 -0.43770570936E+03  0.43788847814E+03  0.00000000000E+00 0.  1.
          5    1    4    4  501    0  0.36794128751E+02  0.73302678488E+01  0.29309586404E+02  0.47791892539E+02  0.41800000000E+01 0. -1.
         -5    1    4    4    0  501 -0.76027098096E+02 -0.12415429334E+02 -0.31733132577E+02  0.83418982454E+02  0.41800000000E+01 0. -1.
</event>
<event>
11    1  0.8039394E-009  0.1620032E+03  0.7561462E-02  0.1085208E+00
         22   -1    0    0    0    0  0.00000000000E+00  0.00000000000E+00  0.35017037776E+03  0.35017037776E+03  0.00000000000E+00 0.  1.
         22   -1    0    0    0    0 -0.00000000000E+00 -0.00000000000E+00 -0.11645376361E+04  0.11645376361E+04  0.00000000000E+00 0. -1.
         24    2    1    2    0    0 -0.31677540852E+02 -0.28569888835E+02 -0.84031700623E+03  0.84541655212E+03  0.82321142461E+02 0.  0.
         25    2    1    2    0    0  0.11484377927E+03  0.86436968701E+02 -0.27994568658E+03  0.33864015409E+03  0.12508846205E+03 0.  0.
        -24    2    1    2    0    0 -0.83166238421E+02 -0.57867079866E+02  0.30589543447E+03  0.33065130765E+03  0.74115101552E+02 0.  0.
        -13    1    3    3    0    0 -0.82999220344E+01 -0.73316551221E+01 -0.11383787040E+02  0.15881828610E+02  0.00000000000E+00 0.  1.
         14    1    3    3    0    0 -0.23377618817E+02 -0.21238233713E+02 -0.82893321919E+03  0.82953472351E+03  0.00000000000E+00 0. -1.
         13    1    5    5    0    0 -0.38279618000E+02  0.74542913279E+01  0.15927834794E+03  0.16398319346E+03  0.00000000000E+00 0. -1.
        -14    1    5    5    0    0 -0.44886620421E+02 -0.65321371194E+02  0.14661708652E+03  0.16666811419E+03  0.00000000000E+00 0.  1.
          5    1    4    4  501    0 -0.15330556505E+02  0.30988861209E+02 -0.12047450427E+03  0.12540699367E+03  0.41800000000E+01 0.  1.
         -5    1    4    4    0  501  0.13017433578E+03  0.55448107492E+02 -0.15947118231E+03  0.21323316043E+03  0.41800000000E+01 0.  1.
</event>
<event>
11    1  0.8039394E-009  0.1388286E+03  0.7561462E-02  0.1108874E+00
         22   -1    0    0    0    0  0.00000000000E+00  0.00000000000E+00  0.25585133729E+03  0.25585133729E+03  0.00000000000E+00 0.  1.
         22   -1    0    0    0    0 -0.00000000000E+00 -0.00000000000E+00 -0.21153590282E+03  0.21153590282E+03  0.00000000000E+00 0. -1.
        -24    2    1    2    0    0 -0.73830114124E+01  0.12925328321E+02 -0.12832773416E+03  0.15237522546E+03  0.80799931989E+02 0.  0.
         25    2    1    2    0    0  0.65569809030E+02 -0.40022386410E+01  0.37207944663E+02  0.14610927250E+03  0.12509224834E+03 0.  0.
         24    2    1    2    0    0 -0.58186797618E+02 -0.89230896805E+01  0.13543522397E+03  0.16890274215E+03  0.81976286005E+02 0.  0.
        -11    1    5    5    0    0 -0.57388824203E+02 -0.26525898441E+02  0.13732624192E+03  0.15118067718E+03  0.00000000000E+00 0.  1.
         12    1    5    5    0    0 -0.79797341536E+00  0.17602808761E+02 -0.18910179557E+01  0.17722064969E+02  0.00000000000E+00 0. -1.
         11    1    3    3    0    0 -0.31582822644E+02 -0.22789533185E+02 -0.64066458033E+02  0.74975653074E+02  0.00000000000E+00 0. -1.
        -12    1    3    3    0    0  0.24199811231E+02  0.35714861506E+02 -0.64261276128E+02  0.77399572387E+02  0.00000000000E+00 0.  1.
          5    1    4    4  501    0 -0.60984083978E+00  0.29045736357E+01 -0.42151205663E+02  0.42461806282E+02  0.41800000000E+01 0.  1.
         -5    1    4    4    0  501  0.66179649870E+02 -0.69068122767E+01  0.79359150326E+02  0.10364746622E+03  0.41800000000E+01 0.  1.
</event>
<event>
11    1  0.8039394E-009  0.2304182E+03  0.7561462E-02  0.1034881E+00
         22   -1    0    0    0    0  0.00000000000E+00  0.00000000000E+00  0.36218919568E+03  0.36218919568E+03  0.00000000000E+00 0. -1.
         22   -1    0    0    0    0 -0.00000000000E+00 -0.00000000000E+00 -0.80505811142E+03  0.80505811142E+03  0.00000000000E+00 0. -1.
        -24    2    1    2    0    0 -0.72717711767E+02  0.12677941089E+02 -0.32693736380E+03  0.34470575428E+03  0.80532114005E+02 0.  0.
         25    2    1    2    0    0 -0.60127240260E+02 -0.15728960215E+03 -0.40964184509E+03  0.46022729650E+03  0.12508964475E+03 0.  0.
         24    2    1    2    0    0  0.13284495203E+03  0.14461166106E+03  0.29371029316E+03  0.36231425633E+03  0.80284308752E+02 0.  0.
        -13    1    5    5    0    0  0.64515259103E+01  0.46483534693E+02  0.10423106746E+03  0.11430860251E+03  0.00000000000E+00 0.  1.
         14    1    5    5    0    0  0.12639342612E+03  0.98128126369E+02  0.18947922570E+03  0.24800565381E+03  0.00000000000E+00 0. -1.
         13    1    3    3    0    0 -0.68922162496E+02 -0.15101779199E+02 -0.15252532843E+03  0.16805446745E+03  0.00000000000E+00 0. -1.
        -14    1    3    3    0    0 -0.37955492711E+01  0.27779720288E+02 -0.17441203538E+03  0.17665128683E+03  0.00000000000E+00 0.  1.
          5    1    4    4  501    0 -0.12295809806E+02  0.78084313440E-01 -0.16437509522E+03  0.16488734749E+03  0.41800000000E+01 0.  1.
         -5    1    4    4    0  501 -0.47831430454E+02 -0.15736768646E+03 -0.24526674987E+03  0.29533994900E+03  0.41800000000E+01 0.  1.
</event>
<event>
11    1  0.8039394E-009  0.1749554E+03  0.7561462E-02  0.1073798E+00
         22   -1    0    0    0    0  0.00000000000E+00  0.00000000000E+00  0.15308854098E+03  0.15308854098E+03  0.00000000000E+00 0. -1.
         22   -1    0    0    0    0 -0.00000000000E+00 -0.00000000000E+00 -0.12112176480E+04  0.12112176480E+04  0.00000000000E+00 0.  1.
         24    2    1    2    0    0 -0.60461944276E+02  0.15488922524E+01 -0.91440094799E+03  0.91986012810E+03  0.79721488934E+02 0.  0.
         25    2    1    2    0    0  0.34964000001E+02  0.11993992747E+03 -0.21699520711E+03  0.27989908584E+03  0.12509400803E+03 0.  0.
        -24    2    1    2    0    0  0.25497944275E+02 -0.12148881972E+03  0.73267048094E+02  0.16454697503E+03  0.79359739015E+02 0.  0.
        -11    1    3    3    0    0 -0.58052431350E+02  0.26544131286E+02 -0.80878184546E+03  0.81129695502E+03  0.00000000000E+00 0.  1.
         12    1    3    3    0    0 -0.24095129263E+01 -0.24995239033E+02 -0.10561910254E+03  0.10856317307E+03  0.00000000000E+00 0. -1.
         11    1    5    5    0    0 -0.14055575209E+02 -0.96545526341E+02  0.33475540685E+02  0.10314654466E+03  0.00000000000E+00 0. -1.
        -12    1    5    5    0    0  0.39553519484E+02 -0.24943293380E+02  0.39791507410E+02  0.61400430374E+02  0.00000000000E+00 0.  1.
          5    1    4    4  501    0  0.50469031246E+02  0.31679184668E+02 -0.19255010450E+02  0.62760829214E+02  0.41800000000E+01 0.  1.
         -5    1    4    4    0  501 -0.15505031246E+02  0.88260742801E+02 -0.19774019666E+03  0.21713825662E+03  0.41800000000E+01 0.  1.
</event>
<event>
11    1  0.8039394E-009  0.2301881E+03  0.7561462E-02  0.1035017E+00
         22   -1    0    0    0    0  0.00000000000E+00  0.00000000000E+00  0.15522616173E+03  0.15522616173E+03  0.00000000000E+00 0.  1.
         22   -1    0    0    0    0 -0.00000000000E+00 -0.00000000000E+00 -0.50964067785E+03  0.50964067785E+03  0.00000000000E+00 0.  1.
         24    2    1    2    0    0 -0.20254649969E+03 -0.97843715550E+02 -0.20770472737E+03  0.31613872499E+03  0.78765236355E+02 0.  0.
         25    2    1    2    0    0  0.11853691523E+03  0.10629997502E+03 -0.93017956757E+02  0.22282388703E+03  0.12508980529E+03 0.  0.
        -24    2    1    2    0    0  0.84009584461E+02 -0.84562594649E+01 -0.53691832001E+02  0.12590422756E+03  0.76419520343E+02 0.  0.
        -13    1    3    3    0    0 -0.13056182445E+03 -0.21630993828E+02 -0.13123316577E+03  0.18637712761E+03  0.00000000000E+00 0.  1.
         14    1    3    3    0    0 -0.71984675245E+02 -0.76212721722E+02 -0.76471561594E+02  0.12976159738E+03  0.00000000000E+00 0. -1.
         11    1    5    5    0    0  0.34072235163E+01  0.20269708706E+02 -0.31315931799E+02  0.37458748612E+02  0.00000000000E+00 0. -1.
        -12    1    5    5    0    0  0.80602360945E+02 -0.28725968171E+02 -0.22375900201E+02  0.88445478952E+02  0.00000000000E+00 0.  1.
          5    1    4    4  501    0  0.11801514121E+03  0.10118131971E+03 -0.11912301909E+03  0.19589027309E+03  0.41800000000E+01 0. -1.
         -5    1    4    4    0  501  0.52177402261E+00  0.51186553098E+01  0.26105062335E+02  0.26933613939E+02  0.41800000000E+01 0. -1.
</event>
<event>
11    1  0.8039394E-009  0.1432062E+03  0.7561462E-02  0.1104030E+00
         22   -1    0    0    0    0  0.00000000000E+00  0.00000000000E+00  0.42145974290E+03  0.42145974290E+03  0.00000000000E+00 0.  1.
         22   -1    0    0    0    0 -0.00000000000E+00 -0.00000000000E+00 -0.34253675250E+03  0.34253675250E+03  0.00000000000E+00 0.  1.
        -24    2    1    2    0    0 -0.24796321629E+02 -0.14583680776E+02 -0.27912162043E+03  0.29287641919E+03  0.83905760325E+02 0.  0.
         25    2    1    2    0    0  0.62527456856E+02  0.67878448199E+02  0.81239410279E+02  0.17539906525E+03  0.12509126156E+03 0.  0.
         24    2    1    2    0    0 -0.37731135228E+02 -0.53294767423E+02  0.27680520055E+03  0.29572101096E+03  0.81029787549E+02 0.  0.
        -11    1    5    5    0    0 -0.22321308143E+02 -0.25992317486E+02  0.25556744722E+03  0.25785375981E+03  0.00000000000E+00 0.  1.
         12    1    5    5    0    0 -0.15409827085E+02 -0.27302449938E+02  0.21237753323E+02  0.37867251150E+02  0.00000000000E+00 0. -1.
         13    1    3    3    0    0 -0.15505965387E+02 -0.54488672238E+01 -0.33202911409E+01  0.16767511738E+02  0.00000000000E+00 0. -1.
        -14    1    3    3    0    0 -0.92903562413E+01 -0.91348135520E+01 -0.27580132929E+03  0.27610890745E+03  0.00000000000E+00 0.  1.
          5    1    4    4  501    0  0.72632828480E+02 -0.12589491419E+02  0.45048863718E+02  0.86492170683E+02  0.41800000000E+01 0. -1.
         -5    1    4    4    0  501 -0.10105371624E+02  0.80467939618E+02  0.36190546561E+02  0.88906894572E+02  0.41800000000E+01 0. -1.
</event>
<event>
11    1  0.8039394E-009  0.2431814E+03  0.7561462E-02  0.1027596E+00
         22   -1    0    0    0    0  0.00000000000E+00  0.00000000000E+00  0.91244404053E+03  0.91244404053E+03  0.00000000000E+00 0. -1.
         22   -1    0    0    0    0 -0.00000000000E+00 -0.00000000000E+00 -0.76229273506E+03  0.76229273506E+03  0.00000000000E+00 0.  1.
        -24    2    1    2    0    0  0.23240235679E+02 -0.14954113864E+02 -0.66838715310E+03  0.67398470080E+03  0.82159944087E+02 0.  0.
         25    2    1    2    0    0 -0.14347234038E+03 -0.15507344819E+03  0.13130936370E+03  0.27842596434E+03  0.12508709701E+03 0.  0.
         24    2    1    2    0    0  0.12023210470E+03  0.17002756205E+03  0.68722909487E+03  0.72232611045E+03  0.78141219258E+02 0.  0.
        -13    1    5    5    0    0  0.13425122038E+02  0.55835239382E+02  0.10744592899E+03  0.12182953466E+03  0.00000000000E+00 0.  1.
         14    1    5    5    0    0  0.10680698266E+03  0.11419232267E+03  0.57978316588E+03  0.60049657579E+03  0.00000000000E+00 0. -1.
         13    1    3    3    0    0 -0.30779353334E+02 -0.27686313822E+01 -0.27140629716E+03  0.27316004842E+03  0.00000000000E+00 0. -1.
        -14    1    3    3    0    0  0.54019589013E+02 -0.12185482482E+02 -0.39698085593E+03  0.40082465238E+03  0.00000000000E+00 0.  1.
          5    1    4    4  501    0  0.20288843279E+02 -0.23407449786E+02  0.12773525183E+01  0.31283380516E+02  0.41800000000E+01 0. -1.
         -5    1    4    4    0  501 -0.16376118366E+03 -0.13166599840E+03  0.13003201118E+03  0.24714258383E+03  0.41800000000E+01 0. -1.
</event>
<event>
11    1  0.8039394E-009  0.1674364E+03  0.7561462E-02  0.1080284E+00
         22   -1    0    0    0    0  0.00000000000E+00  0.00000000000E+00  0.39559848776E+03  0.39559848776E+03  0.00000000000E+00 0.  1.
         22   -1    0    0    0    0 -0.00000000000E+00 -0.00000000000E+00 -0.54906275826E+03  0.54906275826E+03  0.00000000000E+00 0. -1.
         24    2    1    2    0    0 -0.87270205592E+02  0.65906819717E+02 -0.45318836150E+03  0.47286915760E+03  0.79156500330E+02 0.  0.
         25    2    1    2    0    0  0.92320737583E+02 -0.96166481058E+02  0.26008904027E+02  0.18466116890E+03  0.12510864696E+03 0.  0.
        -24    2    1    2    0    0 -0.50505319905E+01  0.30259661341E+02  0.27371518698E+03  0.28713091952E+03  0.81135728179E+02 0.  0.
        -11    1    3    3    0    0 -0.73159201298E+02  0.23713539262E+02 -0.17510756210E+03  0.19125182086E+03  0.00000000000E+00 0.  1.
         12    1    3    3    0    0 -0.14111004294E+02  0.42193280454E+02 -0.27808079940E+03  0.28161733674E+03  0.00000000000E+00 0. -1.
         13    1    5    5    0    0  0.19767496316E+02 -0.20332198741E+02  0.12297239232E+03  0.12619968895E+03  0.00000000000E+00 0. -1.
        -14    1    5    5    0    0 -0.24818028306E+02  0.50591860082E+02  0.15074279465E+03  0.16093123058E+03  0.00000000000E+00 0.  1.
          5    1    4    4  501    0  0.20562567679E+02 -0.10788783311E+03  0.18343950766E+02  0.11142969376E+03  0.41800000000E+01 0. -1.
         -5    1    4    4    0  501  0.71758169904E+02  0.11721352053E+02  0.76649532603E+01  0.73231475134E+02  0.41800000000E+01 0. -1.
</event>
<event>
11    1  0.8039394E-009  0.1612452E+03  0.7561462E-02  0.1085912E+00
         22   -1    0    0    0    0  0.00000000000E+00  0.00000000000E+00  0.14317225216E+04  0.14317225216E+04  0.00000000000E+00 0. -1.
         22   -1    0    0    0    0 -0.00000000000E+00 -0.00000000000E+00 -0.67312396137E+03  0.67312396137E+03  0.00000000000E+00 0.  1.
        -24    2    1    2    0    0  0.98589825571E+02 -0.35231727535E+02 -0.59052053754E+03  0.60506976738E+03  0.80210284942E+02 0.  0.
         25    2    1    2    0    0 -0.69778478898E+02  0.21822212678E+02 -0.33440448927E+01  0.14492713843E+03  0.12508975871E+03 0.  0.
         24    2    1    2    0    0 -0.28811346673E+02  0.13409514857E+02  0.13524631427E+04  0.13548495771E+04  0.73830316652E+02 0.  0.
        -11    1    5    5    0    0 -0.38877929221E+02 -0.14015751653E+02  0.44463086569E+03  0.44654735628E+03  0.00000000000E+00 0.  1.
         12    1    5    5    0    0  0.10066582547E+02  0.27425266510E+02  0.90783227696E+03  0.90830222086E+03  0.00000000000E+00 0. -1.
         11    1    3    3    0    0  0.27541867416E+01 -0.11434846493E+02 -0.79661170846E+01  0.14205642552E+02  0.00000000000E+00 0. -1.
        -12    1    3    3    0    0  0.95835638830E+02 -0.23796881043E+02 -0.58255442046E+03  0.59086412483E+03  0.00000000000E+00 0.  1.
          5    1    4    4  501    0  0.33169032861E+02  0.21906771286E+02 -0.11447631590E+02  0.41576580404E+02  0.41800000000E+01 0.  1.
         -5    1    4    4    0  501 -0.10294751176E+03 -0.84558607778E-01  0.81035866970E+01  0.10335055803E+03  0.41800000000E+01 0.  1.
</event>
<event>
11    1  0.8039394E-009  0.2438781E+03  0.7561462E-02  0.1027212E+00
         22   -1    0    0    0    0  0.00000000000E+00  0.00000000000E+00  0.17230949342E+04  0.17230949342E+04  0.00000000000E+00 0. -1.
         22   -1    0    0    0    0 -0.00000000000E+00 -0.00000000000E+00 -0.26801777931E+03  0.26801777931E+03  0.00000000000E+00 0.  1.
         24    2    1    2    0    0  0.19934376460E+03  0.30349425450E+02 -0.15555937982E+03  0.26728475243E+03  0.81138117540E+02 0.  0.
         25    2    1    2    0    0 -0.26655515845E+03 -0.38126125620E+01  0.34499953808E+03  0.45358419173E+03  0.12509096371E+03 0.  0.
        -24    2    1    2    0    0  0.67211393851E+02 -0.26536812888E+02  0.12656369966E+04  0.12702437693E+04  0.80378183705E+02 0.  0.
        -13    1    3    3    0    0  0.16947178841E+03  0.32134149980E+02 -0.16204108667E+03  0.23666559621E+03  0.00000000000E+00 0.  1.
         14    1    3    3    0    0  0.29871976195E+02 -0.17847245300E+01  0.64817068514E+01  0.30619156213E+02  0.00000000000E+00 0. -1.
         13    1    5    5    0    0  0.34827876775E+02  0.23906014126E+02  0.73898847785E+03  0.74019487225E+03  0.00000000000E+00 0. -1.
        -14    1    5    5    0    0  0.32383517075E+02 -0.50442827015E+02  0.52664851875E+03  0.53004889707E+03  0.00000000000E+00 0.  1.
          5    1    4    4  501    0 -0.11756514573E+03  0.58013835710E+02  0.18079960471E+03  0.22336771944E+03  0.41800000000E+01 0. -1.
         -5    1    4    4    0  501 -0.14899001272E+03 -0.61826448272E+02  0.16419993337E+03  0.23021647229E+03  0.41800000000E+01 0. -1.
</event>
<event>
11    1  0.8039394E-009  0.2204302E+03  0.7561462E-02  0.1040948E+00
         22   -1    0    0    0    0  0.00000000000E+00  0.00000000000E+00  0.33199267097E+03  0.33199267097E+03  0.00000000000E+00 0. -1.
         22   -1    0    0    0    0 -0.00000000000E+00 -0.00000000000E+00 -0.13228352881E+04  0.13228352881E+04  0.00000000000E+00 0.  1.
        -24    2    1    2    0    0 -0.60948115857E+02  0.12937970638E+03 -0.11545695913E+04  0.11661136535E+04  0.79601070989E+02 0.  0.
         25    2    1    2    0    0 -0.10212162655E+03 -0.19843471008E+03  0.41604083086E+02  0.25922262991E+03  0.12514116570E+03 0.  0.
         24    2    1    2    0    0  0.16306974241E+03  0.69055003706E+02  0.12212289106E+03  0.22949167566E+03  0.79950573810E+02 0.  0.
        -11    1    5    5    0    0  0.83842567247E+01 -0.14622096281E+02  0.19878872135E+02  0.26062828277E+02  0.00000000000E+00 0.  1.
         12    1    5    5    0    0  0.15468548568E+03  0.83677099986E+02  0.10224401892E+03  0.20342884739E+03  0.00000000000E+00 0. -1.
         11    1    3    3    0    0 -0.17709709048E+01 -0.47947757675E+01 -0.47413177578E+01  0.69718223361E+01  0.00000000000E+00 0. -1.
        -12    1    3    3    0    0 -0.59177144952E+02  0.13417448215E+03 -0.11498282735E+04  0.11591418312E+04  0.00000000000E+00 0.  1.
          5    1    4    4  501    0 -0.93852690837E+02 -0.18506721193E+03  0.76120893583E+02  0.22106574441E+03  0.41800000000E+01 0.  1.
         -5    1    4    4    0  501 -0.82689357148E+01 -0.13367498149E+02 -0.34516810497E+02  0.38156885505E+02  0.41800000000E+01 0.  1.
</event>
<event>
11    1  0.8039394E-009  0.1716074E+03  0.7561462E-02  0.1076641E+00
         22   -1    0    0    0    0  0.00000000000E+00  0.00000000000E+00  0.93440853172E+03  0.93440853172E+03  0.00000000000E+00 0.  1.
         22   -1    0    0    0    0 -0.00000000000E+00 -0.00000000000E+00 -0.13033019056E+04  0.13033019056E+04  0.00000000000E+00 0. -1.
        -24    2    1    2    0    0 -0.10686689863E+03 -0.51811398035E+02 -0.12747536684E+04  0.12826929586E+04  0.78735989028E+02 0.  0.
         25    2    1    2    0    0  0.22160900395E+02  0.48674295280E+02  0.21619954970E+03  0.25544039266E+03  0.12508899386E+03 0.  0.
         24    2    1    2    0    0  0.84705998231E+02  0.31371027552E+01  0.68966074486E+03  0.69957708602E+03  0.81186259481E+02 0.  0.
        -11    1    5    5    0    0  0.70743044061E+02  0.16804133644E+02  0.66041160788E+03  0.66440232466E+03  0.00000000000E+00 0.  1.
         12    1    5    5    0    0  0.13962954170E+02 -0.13667030889E+02  0.29249136982E+02  0.35174761359E+02  0.00000000000E+00 0. -1.
         11    1    3    3    0    0 -0.29607857222E+02 -0.47216160825E+02 -0.77286745449E+03  0.77487424352E+03  0.00000000000E+00 0. -1.
        -12    1    3    3    0    0 -0.77259041404E+02 -0.45952372103E+01 -0.50188621392E+03  0.50781871510E+03  0.00000000000E+00 0.  1.
          5    1    4    4  501    0 -0.33802110377E+02 -0.87797492723E+01  0.14133242437E+03  0.14564337692E+03  0.41800000000E+01 0. -1.
         -5    1    4    4    0  501  0.55963010772E+02  0.57454044552E+02  0.74867125334E+02  0.10979701574E+03  0.41800000000E+01 0. -1.
</event>
<event>
11    1  0.8039394E-009  0.1703887E+03  0.7561462E-02  0.1077694E+00
         22   -1    0    0    0    0  0.00000000000E+00  0.00000000000E+00  0.10008863743E+04  0.10008863743E+04  0.00000000000E+00 0. -1.
         22   -1    0    0    0    0 -0.00000000000E+00 -0.00000000000E+00 -0.36286808520E+03  0.36286808520E+03  0.00000000000E+00 0.  1.
        -24    2    1    2    0    0 -0.32527313187E+02 -0.64058974035E+02 -0.13081200133E+03  0.16944977240E+03  0.80248784511E+02 0.  0.
         25    2    1    2    0    0 -0.83388772679E+02  0.73723544981E+02 -0.17403880219E+03  0.24150567780E+03  0.12508652704E+03 0.  0.
         24    2    1    2    0    0  0.11591608587E+03 -0.96645709460E+01  0.94286909267E+03  0.95279900935E+03  0.72759077869E+02 0.  0.
        -13    1    5    5    0    0  0.20032008948E+02 -0.17929570426E+02  0.76211898879E+02  0.80814629919E+02  0.00000000000E+00 0.  1.
         14    1    5    5    0    0  0.95884076918E+02  0.82649994805E+01  0.86665719379E+03  0.87198437943E+03  0.00000000000E+00 0. -1.
         13    1    3    3    0    0 -0.15051450825E+01  0.17383607778E+02 -0.39713155231E+02  0.43377297974E+02  0.00000000000E+00 0. -1.
        -14    1    3    3    0    0 -0.31022168104E+02 -0.81442581813E+02 -0.91098846100E+02  0.12607247442E+03  0.00000000000E+00 0.  1.
          5    1    4    4  501    0  0.65778195093E+01 -0.18353538868E+02  0.53699764654E+01  0.20650160912E+02  0.41800000000E+01 0. -1.
         -5    1    4    4    0  501 -0.89966592188E+02  0.92077083848E+02 -0.17940877866E+03  0.22085551689E+03  0.41800000000E+01 0. -1.
</event>
<event>
11    1  0.8039394E-009  0.1699858E+03  0.7561462E-02  0.1078044E+00
         22   -1    0    0    0    0  0.00000000000E+00  0.00000000000E+00  0.12752258229E+03  0.12752258229E+03  0.00000000000E+00 0. -1.
         22   -1    0    0    0    0 -0.00000000000E+00 -0.00000000000E+00 -0.14293376126E+04  0.14293376126E+04  0.00000000000E+00 0. -1.
         24    2    1    2    0    0 -0.25554780403E+02  0.11101962988E+03 -0.99208005029E+03  0.10018545000E+04  0.80692056637E+02 0.  0.
         25    2    1    2    0    0  0.69583107424E+02 -0.10497497211E+03 -0.39502511533E+03  0.43307627245E+03  0.12509461382E+03 0.  0.
        -24    2    1    2    0    0 -0.44028327021E+02 -0.60446577729E+01  0.85290135339E+02  0.12192942239E+03  0.74948951893E+02 0.  0.
        -11    1    3    3    0    0 -0.25449212306E+02 -0.26482883824E+01 -0.15633256241E+03  0.15841258128E+03  0.00000000000E+00 0.  1.
         12    1    3    3    0    0 -0.10556809727E+00  0.11366791826E+03 -0.83574748788E+03  0.84344191874E+03  0.00000000000E+00 0. -1.
         11    1    5    5    0    0 -0.38135286131E+02  0.23869785272E+02  0.18757326726E+02  0.48743245718E+02  0.00000000000E+00 0. -1.
        -12    1    5    5    0    0 -0.58930408906E+01 -0.29914443045E+02  0.66532808613E+02  0.73186176670E+02  0.00000000000E+00 0.  1.
          5    1    4    4  501    0  0.10443636674E+03 -0.94354778302E+02 -0.31645044640E+03  0.34636416718E+03  0.41800000000E+01 0.  1.
         -5    1    4    4    0  501 -0.34853259311E+02 -0.10620193807E+02 -0.78574668935E+02  0.86712105264E+02  0.41800000000E+01 0.  1.
</event>
<event>
11    1  0.8039394E-009  0.1316391E+03  0.7561462E-02  0.1117271E+00
         22   -1    0    0    0    0  0.00000000000E+00  0.00000000000E+00  0.13458563810E+04  0.13458563810E+04  0.00000000000E+00 0.  1.
         22   -1    0    0    0    0 -0.00000000000E+00 -0.00000000000E+00 -0.24132484967E+03  0.24132484967E+03  0.00000000000E+00 0.  1.
         24    2    1    2    0    0 -0.34082566807E+02 -0.20854179943E+02 -0.20387689748E+03  0.22278339854E+03  0.80437150351E+02 0.  0.
         25    2    1    2    0    0  0.40769758203E+02  0.51855497558E+02  0.16336974045E+03  0.21607385689E+03  0.12508826373E+03 0.  0.
        -24    2    1    2    0    0 -0.66871913960E+01 -0.31001317615E+02  0.11450386884E+04  0.11483239753E+04  0.80799468138E+02 0.  0.
        -11    1    3    3    0    0 -0.48471880849E+02 -0.40218550560E+02 -0.16917468565E+03  0.18051905524E+03  0.00000000000E+00 0.  1.
         12    1    3    3    0    0  0.14389314042E+02  0.19364370617E+02 -0.34702211833E+02  0.42264343294E+02  0.00000000000E+00 0. -1.
         11    1    5    5    0    0  0.14777164510E+02  0.22825613855E+02  0.26901475982E+03  0.27038549191E+03  0.00000000000E+00 0. -1.
        -12    1    5    5    0    0 -0.21464355906E+02 -0.53826931470E+02  0.87602392857E+03  0.87793848336E+03  0.00000000000E+00 0.  1.
          5    1    4    4  501    0 -0.14375010358E+02  0.78248838315E+02  0.83556633555E+02  0.11545001096E+03  0.41800000000E+01 0. -1.
         -5    1    4    4    0  501  0.55144768561E+02 -0.26393340756E+02  0.79813106900E+02  0.10062384593E+03  0.41800000000E+01 0. -1.
</event>
<event>
11    1  0.8039394E-009  0.1942693E+03  0.7561462E-02  0.1058652E+00
         22   -1    0    0    0    0  0.00000000000E+00  0.00000000000E+00  0.79298806569E+03  0.79298806569E+03  0.00000000000E+00 0.  1.
         22   -1    0    0    0    0 -0.00000000000E+00 -0.00000000000E+00 -0.71890075094E+03  0.71890075094E+03  0.00000000000E+00 0.  1.
         24    2    1    2    0    0 -0.13359787017E+03 -0.42880828644E+02 -0.54197850333E+03  0.56606606314E+03  0.83683531146E+02 0.  0.
         25    2    1    2    0    0  0.19326130600E+03  0.12961223916E+03 -0.48324798504E+02  0.26856139849E+03  0.12506267896E+03 0.  0.
        -24    2    1    2    0    0 -0.59663435834E+02 -0.86731410517E+02  0.66439061658E+03  0.67726135501E+03  0.78651054967E+02 0.  0.
        -13    1    3    3    0    0 -0.13271969831E+03 -0.30660799573E+02 -0.53478209792E+03  0.55185731417E+03  0.00000000000E+00 0.  1.
         14    1    3    3    0    0 -0.87817186274E+00 -0.12220029071E+02 -0.71964054074E+01  0.14208748963E+02  0.00000000000E+00 0. -1.
         11    1    5    5    0    0 -0.71097059883E+02 -0.48469443562E+02  0.35376460044E+03  0.36407893569E+03  0.00000000000E+00 0. -1.
        -12    1    5    5    0    0  0.11433624049E+02 -0.38261966956E+02  0.31062601614E+03  0.31318241932E+03  0.00000000000E+00 0.  1.
          5    1    4    4  501    0  0.49301877204E+02 -0.60237237219E+00  0.31473521973E+02  0.58643780008E+02  0.41800000000E+01 0. -1.
         -5    1    4    4    0  501  0.14395942880E+03  0.13021461153E+03 -0.79798320477E+02  0.20991761848E+03  0.41800000000E+01 0. -1.
</event>
<event>
11    1  0.8039394E-009  0.1264716E+03  0.7561462E-02  0.1123682E+00
         22   -1    0    0    0    0  0.00000000000E+00  0.00000000000E+00  0.19684765240E+03  0.19684765240E+03  0.00000000000E+00 0.  1.
         22   -1    0    0    0    0 -0.00000000000E+00 -0.00000000000E+00 -0.17596055743E+03  0.17596055743E+03  0.00000000000E+00 0.  1.
        -24    2    1    2    0    0 -0.13290223754E+02  0.17058066937E+01 -0.98731282380E+02  0.12492385743E+03  0.75356248650E+02 0.  0.
         25    2    1    2    0    0  0.19134802294E+02  0.14780198554E+02  0.40612678779E+02  0.13372530640E+03  0.12509385662E+03 0.  0.
         24    2    1    2    0    0 -0.58445785395E+01 -0.16486005248E+02  0.79005698572E+02  0.11415904601E+03  0.80526020086E+02 0.  0.
        -13    1    5    5    0    0 -0.55381890516E+00  0.20063105391E+02  0.74260934155E+02  0.76925426583E+02  0.00000000000E+00 0.  1.
         14    1    5    5    0    0 -0.52907596343E+01 -0.36549110639E+02  0.47447644167E+01  0.37233619424E+02  0.00000000000E+00 0. -1.
         13    1    3    3    0    0  0.24915954387E+02  0.13555752852E+02 -0.70417494502E+02  0.75915655502E+02  0.00000000000E+00 0. -1.
        -14    1    3    3    0    0 -0.38206178141E+02 -0.11849946158E+02 -0.28313787878E+02  0.49008201927E+02  0.00000000000E+00 0.  1.
          5    1    4    4  501    0  0.45517769606E+01 -0.26291916782E+02  0.73928226078E+02  0.78707296820E+02  0.41800000000E+01 0.  1.
         -5    1    4    4    0  501  0.14583025333E+02  0.41072115336E+02 -0.33315547299E+02  0.55018009577E+02  0.41800000000E+01 0.  1.
</event>
<event>
11    1  0.8039394E-009  0.1371761E+03  0.7561462E-02  0.1110753E+00
         22   -1    0    0    0    0  0.00000000000E+00  0.00000000000E+00  0.44487089693E+03  0.44487089693E+03  0.00000000000E+00 0.  1.
         22   -1    0    0    0    0 -0.00000000000E+00 -0.00000000000E+00 -0.40653202943E+03  0.40653202943E+03  0.00000000000E+00 0.  1.
         24    2    1    2    0    0  0.24920359520E+02  0.17295984181E+02 -0.23300533809E+03  0.24752926850E+03  0.77840065534E+02 0.  0.
         25    2    1    2    0    0 -0.50495992293E+02  0.33037740252E+02 -0.13042714711E+03  0.19051873063E+03  0.12507920890E+03 0.  0.
        -24    2    1    2    0    0  0.25575632773E+02 -0.50333724432E+02  0.40177135270E+03  0.41335492723E+03  0.79085265454E+02 0.  0.
        -11    1    3    3    0    0 -0.12796652972E+02  0.26755433612E+02 -0.17626815117E+03  0.17874582141E+03  0.00000000000E+00 0.  1.
         12    1    3    3    0    0  0.37717012493E+02 -0.94594494311E+01 -0.56737186916E+02  0.68783447094E+02  0.00000000000E+00 0. -1.
         13    1    5    5    0    0 -0.11946444257E+02  0.90405125673E+01  0.19016050390E+02  0.24208646602E+02  0.00000000000E+00 0. -1.
        -14    1    5    5    0    0  0.37522077030E+02 -0.59374237000E+02  0.38275530231E+03  0.38914628063E+03  0.00000000000E+00 0.  1.
          5    1    4    4  501    0 -0.57297497614E+02  0.31954101281E+02 -0.15301415730E+03  0.16653790126E+03  0.41800000000E+01 0. -1.
         -5    1    4    4    0  501  0.68015053207E+01  0.10836389708E+01  0.22587010189E+02  0.23980829371E+02  0.41800000000E+01 0. -1.
</event>
<event>
11    1  0.8039394E-009  0.1301196E+03  0.7561462E-02  0.1119122E+00
         22   -1    0    0    0    0  0.00000000000E+00  0.00000000000E+00  0.43981079288E+03  0.43981079288E+03  0.00000000000E+00 0.  1.
         22   -1    0    0    0    0 -0.00000000000E+00 -0.00000000000E+00 -0.91807722070E+03  0.91807722070E+03  0.00000000000E+00 0. -1.
        -24    2    1    2    0    0  0.17104600072E+02  0.31247252160E+02 -0.80779014310E+03  0.81618775431E+03  0.11121410379E+03 0.  0.
         25    2    1    2    0    0  0.79923083289E+01 -0.46374459325E+02 -0.58197714149E+02  0.14577181257E+03  0.12509188598E+03 0.  0.
         24    2    1    2    0    0 -0.25096908401E+02  0.15127207165E+02  0.38772142943E+03  0.39592844669E+03  0.74650792705E+02 0.  0.
        -11    1    5    5    0    0 -0.33688030399E+02 -0.32168041157E+01  0.36004175699E+03  0.36162867419E+03  0.00000000000E+00 0.  1.
         12    1    5    5    0    0  0.85911219982E+01  0.18344011281E+02  0.27679672437E+02  0.34299772496E+02  0.00000000000E+00 0. -1.
         11    1    3    3    0    0 -0.38152511023E+02  0.45748356292E+02 -0.39703084473E+03  0.40147480352E+03  0.00000000000E+00 0. -1.
        -12    1    3    3    0    0  0.55257111095E+02 -0.14501104132E+02 -0.41075929837E+03  0.41471295078E+03  0.00000000000E+00 0.  1.
          5    1    4    4  501    0  0.35484211568E+02 -0.41388511621E+02  0.23360906416E+02  0.59458746316E+02  0.41800000000E+01 0. -1.
         -5    1    4    4    0  501 -0.27491903240E+02 -0.49859477040E+01 -0.81558620565E+02  0.86313066257E+02  0.41800000000E+01 0. -1.
</event>
<event>
11    1  0.8039394E-009  0.1514427E+03  0.7561462E-02  0.1095414E+00
         22   -1    0    0    0    0  0.00000000000E+00  0.00000000000E+00  0.42266759457E+02  0.42266759457E+02  0.00000000000E+00 0. -1.
         22   -1    0    0    0    0 -0.00000000000E+00 -0.00000000000E+00 -0.22604081052E+04  0.22604081052E+04  0.00000000000E+00 0.  1.
        -24    2    1    2    0    0  0.68671790260E+02 -0.15725687163E+02 -0.12073304463E+04  0.12128727938E+04  0.91926576478E+02 0.  0.
         25    2    1    2    0    0 -0.12753029534E+03  0.30094030835E+02 -0.95892763718E+03  0.97588867145E+03  0.12508740465E+03 0.  0.
         24    2    1    2    0    0  0.58858505082E+02 -0.14368343672E+02 -0.51883262238E+02  0.11391339934E+03  0.81324146031E+02 0.  0.
        -13    1    5    5    0    0 -0.11740559791E+02 -0.27193341666E+02 -0.13750831300E+02  0.32655840773E+02  0.00000000000E+00 0.  1.
         14    1    5    5    0    0  0.70599064874E+02  0.12824997994E+02 -0.38132430938E+02  0.81257558564E+02  0.00000000000E+00 0. -1.
         13    1    3    3    0    0  0.45381618696E+02  0.17932534854E+01 -0.19882265166E+03  0.20394399694E+03  0.00000000000E+00 0. -1.
        -14    1    3    3    0    0  0.23290171564E+02 -0.17518940649E+02 -0.10085077946E+04  0.10089287969E+04  0.00000000000E+00 0.  1.
          5    1    4    4  501    0 -0.82752398951E+02  0.73678136283E+02 -0.46655938793E+03  0.47955350292E+03  0.41800000000E+01 0.  1.
         -5    1    4    4    0  501 -0.44777896391E+02 -0.43584105448E+02 -0.49236824925E+03  0.49633516853E+03  0.41800000000E+01 0.  1.
</event>
<event>
11    1  0.8039394E-009  0.1527828E+03  0.7561462E-02  0.1094069E+00
         22   -1    0    0    0    0  0.00000000000E+00  0.00000000000E+00  0.52461413742E+03  0.52461413742E+03  0.00000000000E+00 0.  1.
         22   -1    0    0    0    0 -0.00000000000E+00 -0.00000000000E+00 -0.34764325191E+03  0.34764325191E+03  0.00000000000E+00 0.  1.
         24    2    1    2    0    0 -0.33179309782E+02  0.66996188453E+02 -0.26309862595E+03  0.28429121297E+03  0.77532257337E+02 0.  0.
         25    2    1    2    0    0  0.16590621522E+02 -0.14519698748E+03  0.79259370269E+02  0.20805577983E+03  0.12509095032E+03 0.  0.
        -24    2    1    2    0    0  0.16588688260E+02  0.78200799024E+02  0.36081014119E+03  0.37991039653E+03  0.88076113985E+02 0.  0.
        -13    1    3    3    0    0 -0.33190890573E+00  0.45818551843E+02 -0.22532955944E+03  0.22994099290E+03  0.00000000000E+00 0.  1.
         14    1    3    3    0    0 -0.32847400876E+02  0.21177636610E+02 -0.37769066515E+02  0.54350220074E+02  0.00000000000E+00 0. -1.
         11    1    5    5    0    0  0.23069000952E+02 -0.12976191864E+02  0.10409720060E+03  0.10740943875E+03  0.00000000000E+00 0. -1.
        -12    1    5    5    0    0 -0.64803126926E+01  0.91176990888E+02  0.25671294060E+03  0.27250095778E+03  0.00000000000E+00 0.  1.
          5    1    4    4  501    0  0.45741970402E+02 -0.97171649918E+02  0.10117321196E+03  0.14760809132E+03  0.41800000000E+01 0. -1.
         -5    1    4    4    0  501 -0.29151348880E+02 -0.48025337559E+02 -0.21913841693E+02  0.60447688515E+02  0.41800000000E+01 0. -1.
</event>
<event>
11    1  0.8039394E-009  0.2181945E+03  0.7561462E-02  0.1042354E+00
         22   -1    0    0    0    0  0.00000000000E+00  0.00000000000E+00  0.15174329020E+04  0.15174329020E+04  0.00000000000E+00 0. -1.
         22   -1    0    0    0    0 -0.00000000000E+00 -0.00000000000E+00 -0.17794989992E+03  0.17794989992E+03  0.00000000000E+00 0. -1.
         24    2    1    2    0    0  0.56018209793E+01  0.19094645205E+03 -0.36360273385E+02  0.21074837141E+03  0.81245791414E+02 0.  0.
         25    2    1    2    0    0  0.14628839694E+02 -0.15280596160E+03  0.13337317203E+03  0.23874529731E+03  0.12508896482E+03 0.  0.
        -24    2    1    2    0    0 -0.20230660674E+02 -0.38140490451E+02  0.12424701035E+04  0.12458891332E+04  0.81509494323E+02 0.  0.
        -11    1    3    3    0    0  0.25532645000E+02  0.11550727016E+03  0.12074603797E+02  0.11891022445E+03  0.00000000000E+00 0.  1.
         12    1    3    3    0    0 -0.19930824021E+02  0.75439181891E+02 -0.48434877183E+02  0.91838146966E+02  0.00000000000E+00 0. -1.
         11    1    5    5    0    0 -0.21062958455E+02 -0.39532169606E+02  0.12432730135E+04  0.12440796706E+04  0.00000000000E+00 0. -1.
        -12    1    5    5    0    0  0.83229778119E+00  0.13916791550E+01 -0.80291005571E+00  0.18094626342E+01  0.00000000000E+00 0.  1.
          5    1    4    4  501    0 -0.20422957706E+02 -0.40384515572E+02 -0.16275362240E+02  0.48273865761E+02  0.41800000000E+01 0. -1.
         -5    1    4    4    0  501  0.35051797401E+02 -0.11242144603E+03  0.14964853427E+03  0.19047143155E+03  0.41800000000E+01 0. -1.
</event>
<event>
11    1  0.8039394E-009  0.1975590E+03  0.7561462E-02  0.1056263E+00
         22   -1    0    0    0    0  0.00000000000E+00  0.00000000000E+00  0.38161232452E+03  0.38161232452E+03  0.00000000000E+00 0.  1.
         22   -1    0    0    0    0 -0.00000000000E+00 -0.00000000000E+00 -0.20396696139E+04  0.20396696139E+04  0.00000000000E+00 0.  1.
        -24    2    1    2    0    0  0.34227543616E+02 -0.14694218712E+03 -0.18984392471E+04  0.19061551714E+04  0.81193788601E+02 0.  0.
         25    2    1    2    0    0 -0.42656101061E+02  0.21588501681E+03  0.10008965469E+01  0.25312977178E+03  0.12509115126E+03 0.  0.
         24    2    1    2    0    0  0.84285574447E+01 -0.68942829690E+02  0.23938106124E+03  0.26199699521E+03  0.80715417821E+02 0.  0.
        -13    1    5    5    0    0  0.42338977320E+02 -0.55782198183E+02  0.15266347068E+03  0.16795945318E+03  0.00000000000E+00 0.  1.
         14    1    5    5    0    0 -0.33910419876E+02 -0.13160631507E+02  0.86717590559E+02  0.94037542025E+02  0.00000000000E+00 0. -1.
         11    1    3    3    0    0 -0.88853657405E+00  0.10172391732E+02 -0.96661060331E+02  0.97198907582E+02  0.00000000000E+00 0. -1.
        -12    1    3    3    0    0  0.35116080190E+02 -0.15711457885E+03 -0.18017781868E+04  0.18089562638E+04  0.00000000000E+00 0.  1.
          5    1    4    4  501    0 -0.37153033220E+02  0.45038151322E+02  0.48114491206E+02  0.75771100137E+02  0.41800000000E+01 0. -1.
         -5    1    4    4    0  501 -0.55030678406E+01  0.17084686549E+03 -0.47113594659E+02  0.17735867164E+03  0.41800000000E+01 0. -1.
</event>
<event>
11    1  0.8039394E-009  0.3936622E+03  0.7561462E-02  0.9668645E-01
         22   -1    0    0    0    0  0.00000000000E+00  0.00000000000E+00  0.22706548810E+03  0.22706548810E+03  0.00000000000E+00 0.  1.
         22   -1    0    0    0    0 -0.00000000000E+00 -0.00000000000E+00 -0.21622885052E+04  0.21622885052E+04  0.00000000000E+00 0. -1.
        -24    2    1    2    0    0  0.50285210407E+02  0.31554147891E+03 -0.99244304888E+03  0.10456620306E+04  0.79817602965E+02 0.  0.
         25    2    1    2    0    0 -0.31285115539E+02 -0.49897215668E+03 -0.10078588463E+04  0.11319796640E+04  0.12508610645E+03 0.  0.
         24    2    1    2    0    0 -0.19000094867E+02  0.18343067777E+03  0.65078878013E+02  0.21171229873E+03  0.81111157791E+02 0.  0.
        -13    1    5    5    0    0 -0.38633389883E+01  0.74580352456E+02 -0.14439091210E+02  0.76063405890E+02  0.00000000000E+00 0.  1.
         14    1    5    5    0    0 -0.15136755879E+02  0.10885032532E+03  0.79517969224E+02  0.13564889284E+03  0.00000000000E+00 0. -1.
         11    1    3    3    0    0  0.51234653689E+02  0.10960029939E+03 -0.30810529248E+03  0.33100768363E+03  0.00000000000E+00 0. -1.
        -12    1    3    3    0    0 -0.94944328225E+00  0.20594117952E+03 -0.68433775640E+03  0.71465434700E+03  0.00000000000E+00 0.  1.
          5    1    4    4  501    0  0.96918845523E+00 -0.30687566310E+03 -0.48442388982E+03  0.57346106176E+03  0.41800000000E+01 0.  1.
         -5    1    4    4    0  501 -0.32254303995E+02 -0.19209649358E+03 -0.52343495644E+03  0.55851860219E+03  0.41800000000E+01 0.  1.
</event>
<event>
11    1  0.8039394E-009  0.2059757E+03  0.7561462E-02  0.1050377E+00
         22   -1    0    0    0    0  0.00000000000E+00  0.00000000000E+00  0.95462139615E+02  0.95462139615E+02  0.00000000000E+00 0.  1.
         22   -1    0    0    0    0 -0.00000000000E+00 -0.00000000000E+00 -0.19400553043E+04  0.19400553043E+04  0.00000000000E+00 0.  1.
         24    2    1    2    0    0  0.56587055785E+02  0.14080556013E+03 -0.12123487616E+04  0.12244228763E+04  0.79959737361E+02 0.  0.
         25    2    1    2    0    0 -0.11089773875E+03 -0.17702701092E+03 -0.65907821617E+03  0.70261554340E+03  0.12509051023E+03 0.  0.
        -24    2    1    2    0    0  0.54310682960E+02  0.36221450788E+02  0.26833813139E+02  0.10847902416E+03  0.82377189648E+02 0.  0.
        -13    1    3    3    0    0  0.13091570279E+02  0.10723012601E+03 -0.60284389616E+03  0.61244628522E+03  0.00000000000E+00 0.  1.
         14    1    3    3    0    0  0.43495485506E+02  0.33575434121E+02 -0.60950486549E+03  0.61197659113E+03  0.00000000000E+00 0. -1.
         13    1    5    5    0    0  0.21634163833E+02 -0.23045455172E+02 -0.76507674059E+01  0.32521751041E+02  0.00000000000E+00 0. -1.
        -14    1    5    5    0    0  0.32676519127E+02  0.59266905960E+02  0.34484580545E+02  0.75957273119E+02  0.00000000000E+00 0.  1.
          5    1    4    4  501    0 -0.10132402730E+03 -0.10562812071E+03 -0.27240121411E+03  0.30926324101E+03  0.41800000000E+01 0.  1.
         -5    1    4    4    0  501 -0.95737114421E+01 -0.71398890214E+02 -0.38667700206E+03  0.39335230239E+03  0.41800000000E+01 0.  1.
</event>
<event>
11    1  0.8039394E-009  0.1336639E+03  0.7561462E-02  0.1114847E+00
         22   -1    0    0    0    0  0.00000000000E+00  0.00000000000E+00  0.88537815773E+03  0.88537815773E+03  0.00000000000E+00 0.  1.
         22   -1    0    0    0    0 -0.00000000000E+00 -0.00000000000E+00 -0.80887807789E+02  0.80887807789E+02  0.00000000000E+00 0.  1.
        -24    2    1    2    0    0 -0.46502440510E+01  0.46532629029E+02 -0.21008916930E+02  0.95700640176E+02  0.80810442429E+02 0.  0.
         25    2    1    2    0    0  0.50292786037E+02 -0.41845996925E+02  0.24513250697E+03  0.28287566205E+03  0.12509293513E+03 0.  0.
         24    2    1    2    0    0 -0.45642541986E+02 -0.46866321039E+01  0.58036675990E+03  0.58768966330E+03  0.80301669902E+02 0.  0.
        -13    1    5    5    0    0  0.96613759395E+01  0.23288988529E+02  0.27136083576E+03  0.27252967243E+03  0.00000000000E+00 0.  1.
         14    1    5    5    0    0 -0.55303917925E+02 -0.27975620633E+02  0.30900592415E+03  0.31515999087E+03  0.00000000000E+00 0. -1.
         11    1    3    3    0    0 -0.30221943171E+02  0.94137834817E+01  0.17716903345E+02  0.36274975295E+02  0.00000000000E+00 0. -1.
        -12    1    3    3    0    0  0.25571699120E+02  0.37118845547E+02 -0.38725820275E+02  0.59425664882E+02  0.00000000000E+00 0.  1.
          5    1    4    4  501    0  0.49429383742E+02 -0.61680574963E+02  0.67320621553E+02  0.10391003701E+03  0.41800000000E+01 0. -1.
         -5    1    4    4    0  501  0.86340229521E+00  0.19834578038E+02  0.17781188542E+03  0.17896562504E+03  0.41800000000E+01 0. -1.
</event>
<event>
11    1  0.8039394E-009  0.1583742E+03  0.7561462E-02  0.1088616E+00
         22   -1    0    0    0    0  0.00000000000E+00  0.00000000000E+00  0.23184725720E+04  0.23184725720E+04  0.00000000000E+00 0. -1.
         22   -1    0    0    0    0 -0.00000000000E+00 -0.00000000000E+00 -0.13984362397E+03  0.13984362397E+03  0.00000000000E+00 0.  1.
         24    2    1    2    0    0 -0.21557063165E+02 -0.43474649947E+02 -0.87664654186E+02  0.12884518120E+03  0.81001462730E+02 0.  0.
         25    2    1    2    0    0  0.10389349901E+03 -0.86760252925E+01  0.19989846230E+03  0.25783215725E+03  0.12509553763E+03 0.  0.
        -24    2    1    2    0    0 -0.82336435847E+02  0.52150675240E+02  0.20663951399E+04  0.20716388575E+04  0.11045225238E+03 0.  0.
        -13    1    3    3    0    0 -0.48076033576E+02 -0.67188116937E+01 -0.38332101487E+02  0.61853030964E+02  0.00000000000E+00 0.  1.
         14    1    3    3    0    0  0.26518970411E+02 -0.36755838253E+02 -0.49332552699E+02  0.66992150235E+02  0.00000000000E+00 0. -1.
         13    1    5    5    0    0 -0.16848263083E+02 -0.19517037008E+01  0.13668349139E+04  0.13669401432E+04  0.00000000000E+00 0. -1.
        -14    1    5    5    0    0 -0.65488172764E+02  0.54102378940E+02  0.69956022594E+03  0.70469871427E+03  0.00000000000E+00 0.  1.
          5    1    4    4  501    0  0.12316288049E+03 -0.32779871742E+02  0.18098594056E+03  0.22139782791E+03  0.41800000000E+01 0. -1.
         -5    1    4    4    0  501 -0.19269381482E+02  0.24103846449E+02  0.18912521739E+02  0.36434329345E+02  0.41800000000E+01 0. -1.
</event>
<event>
11    1  0.8039394E-009  0.1737922E+03  0.7561462E-02  0.1074778E+00
         22   -1    0    0    0    0  0.00000000000E+00  0.00000000000E+00  0.23746775750E+04  0.23746775750E+04  0.00000000000E+00 0. -1.
         22   -1    0    0    0    0 -0.00000000000E+00 -0.00000000000E+00 -0.27761995855E+02  0.27761995855E+02  0.00000000000E+00 0. -1.
        -24    2    1    2    0    0  0.32288285461E+02 -0.10544266352E+02  0.14855678564E+03  0.17247053911E+03  0.80766660022E+02 0.  0.
         25    2    1    2    0    0 -0.41322854062E+02  0.12768171825E+03  0.67679738449E+03  0.70122181827E+03  0.12508852597E+03 0.  0.
         24    2    1    2    0    0  0.90345686005E+01 -0.11713745189E+03  0.15215614090E+04  0.15287472135E+04  0.90089484491E+02 0.  0.
        -13    1    5    5    0    0  0.10985780503E+02  0.83433553580E+01  0.50745971953E+02  0.52587570978E+02  0.00000000000E+00 0.  1.
         14    1    5    5    0    0 -0.19512119023E+01 -0.12548080725E+03  0.14708154371E+04  0.14761596425E+04  0.00000000000E+00 0. -1.
         11    1    3    3    0    0  0.38432671994E+01 -0.37732025739E+02  0.32576002323E+02  0.49996723858E+02  0.00000000000E+00 0. -1.
        -12    1    3    3    0    0  0.28445018262E+02  0.27187759387E+02  0.11598078331E+03  0.12247381525E+03  0.00000000000E+00 0.  1.
          5    1    4    4  501    0  0.20456268228E+02  0.29944830864E+00  0.18618972914E+02  0.27976546097E+02  0.41800000000E+01 0.  1.
         -5    1    4    4    0  501 -0.61779122290E+02  0.12738226994E+03  0.65817841157E+03  0.67324527217E+03  0.41800000000E+01 0.  1.
</event>
<event>
11    1  0.8039394E-009  0.1349474E+03  0.7561462E-02  0.1113335E+00
         22   -1    0    0    0    0  0.00000000000E+00  0.00000000000E+00  0.37345051998E+03  0.37345051998E+03  0.00000000000E+00 0.  1.
         22   -1    0    0    0    0 -0.00000000000E+00 -0.00000000000E+00 -0.17070873092E+03  0.17070873092E+03  0.00000000000E+00 0. -1.
         24    2    1    2    0    0 -0.35951968312E+02  0.39469668977E+02 -0.10616669318E+03  0.14282513165E+03  0.79229115205E+02 0.  0.
         25    2    1    2    0    0  0.48853400941E+02  0.34205202568E+01  0.84254047529E+02  0.15857299879E+03  0.12509315200E+03 0.  0.
        -24    2    1    2    0    0 -0.12901432629E+02 -0.42890189234E+02  0.22465443471E+03  0.24276112045E+03  0.80357521549E+02 0.  0.
        -13    1    3    3    0    0 -0.56609983590E+02  0.10176238127E+02 -0.79611698558E+02  0.98215419420E+02  0.00000000000E+00 0.  1.
         14    1    3    3    0    0  0.20658015278E+02  0.29293430850E+02 -0.26554994623E+02  0.44609712234E+02  0.00000000000E+00 0. -1.
         11    1    5    5    0    0  0.26070609397E+02 -0.96933586112E+01  0.27672067563E+02  0.39234948690E+02  0.00000000000E+00 0. -1.
        -12    1    5    5    0    0 -0.38972042026E+02 -0.33196830623E+02  0.19698236715E+03  0.20352617176E+03  0.00000000000E+00 0.  1.
          5    1    4    4  501    0  0.19896091730E+02 -0.60244537461E+02  0.48117129023E+02  0.79737000605E+02  0.41800000000E+01 0.  1.
         -5    1    4    4    0  501  0.28957309211E+02  0.63665057718E+02  0.36136918506E+02  0.78835998187E+02  0.41800000000E+01 0.  1.
</event>
<event>
11    1  0.8039394E-009  0.1549753E+03  0.7561462E-02  0.1091901E+00
         22   -1    0    0    0    0  0.00000000000E+00  0.00000000000E+00  0.20179235221E+03  0.20179235221E+03  0.00000000000E+00 0. -1.
         22   -1    0    0    0    0 -0.00000000000E+00 -0.00000000000E+00 -0.51434482452E+03  0.51434482452E+03  0.00000000000E+00 0. -1.
         24    2    1    2    0    0 -0.35825140635E+00  0.62705955440E+02 -0.30945020919E+03  0.32630201509E+03  0.82349304138E+02 0.  0.
         25    2    1    2    0    0  0.20618722423E+02 -0.14419186007E+03 -0.11879387533E+03  0.22577886933E+03  0.12509072226E+03 0.  0.
        -24    2    1    2    0    0 -0.20260471017E+02  0.81485904634E+02  0.11569161221E+03  0.16405629232E+03  0.80495208388E+02 0.  0.
        -11    1    3    3    0    0 -0.14685482269E+02  0.25425090390E+02 -0.23586969662E+02  0.37662232391E+02  0.00000000000E+00 0.  1.
         12    1    3    3    0    0  0.14327230863E+02  0.37280865051E+02 -0.28586323953E+03  0.28863978270E+03  0.00000000000E+00 0. -1.
         11    1    5    5    0    0  0.10021049822E+02  0.71729781564E+02  0.11005183855E+03  0.13174593038E+03  0.00000000000E+00 0. -1.
        -12    1    5    5    0    0 -0.30281520838E+02  0.97561230699E+01  0.56397736569E+01  0.32310361938E+02  0.00000000000E+00 0.  1.
          5    1    4    4  501    0  0.68981320117E+02 -0.91110631367E+02 -0.45468895981E+02  0.12306283994E+03  0.41800000000E+01 0. -1.
         -5    1    4    4    0  501 -0.48362597694E+02 -0.53081228707E+02 -0.73324979349E+02  0.10271602939E+03  0.41800000000E+01 0. -1.
</event>
<event>
11    1  0.8039394E-009  0.1348749E+03  0.7561462E-02  0.1113420E+00
         22   -1    0    0    0    0  0.00000000000E+00  0.00000000000E+00  0.98008182942E+03  0.98008182942E+03  0.00000000000E+00 0.  1.
         22   -1    0    0    0    0 -0.00000000000E+00 -0.00000000000E+00 -0.21212279063E+03  0.21212279063E+03  0.00000000000E+00 0. -1.
        -24    2    1    2    0    0  0.39101422316E+02 -0.32119202620E+02 -0.16845431777E+03  0.19312275519E+03  0.79743194016E+02 0.  0.
         25    2    1    2    0    0 -0.60456733306E+02  0.83267651463E+00  0.13732061797E+03  0.19534569626E+03  0.12508908415E+03 0.  0.
         24    2    1    2    0    0  0.21355310990E+02  0.31286526105E+02  0.79909273859E+03  0.80373616859E+03  0.77509533725E+02 0.  0.
        -11    1    5    5    0    0  0.24265971613E+02  0.52933385447E+02  0.42034432463E+03  0.42435849458E+03  0.00000000000E+00 0.  1.
         12    1    5    5    0    0 -0.29106606234E+01 -0.21646859341E+02  0.37874841396E+03  0.37937767402E+03  0.00000000000E+00 0. -1.
         13    1    3    3    0    0  0.32780248084E+02 -0.63903045392E+01 -0.16259375474E+03  0.16598828193E+03  0.00000000000E+00 0. -1.
        -14    1    3    3    0    0  0.63211742317E+01 -0.25728898081E+02 -0.58605630303E+01  0.27134473261E+02  0.00000000000E+00 0.  1.
          5    1    4    4  501    0 -0.29046003539E+02 -0.54256523129E+02  0.25541141351E+02  0.66762736052E+02  0.41800000000E+01 0. -1.
         -5    1    4    4    0  501 -0.31410729766E+02  0.55089199644E+02  0.11177947662E+03  0.12858296021E+03  0.41800000000E+01 0. -1.
</event>
<event>
11    1  0.8039394E-009  0.2085040E+03  0.7561462E-02  0.1048668E+00
         22   -1    0    0    0    0  0.00000000000E+00  0.00000000000E+00  0.23422273943E+03  0.23422273943E+03  0.00000000000E+00 0.  1.
         22   -1    0    0    0    0 -0.00000000000E+00 -0.00000000000E+00 -0.24727938478E+04  0.24727938478E+04  0.00000000000E+00 0.  1.
         24    2    1    2    0    0 -0.33336588864E+02  0.41301768272E+02 -0.22870021775E+04  0.22890155648E+04  0.79975818930E+02 0.  0.
         25    2    1    2    0    0  0.10132244250E+03  0.12024582304E+03 -0.28968284006E+02  0.20299982234E+03  0.12507786007E+03 0.  0.
        -24    2    1    2    0    0 -0.67985853632E+02 -0.16154759132E+03  0.77399353113E+02  0.21500120014E+03  0.97545659283E+02 0.  0.
        -11    1    3    3    0    0 -0.13234095270E+02  0.42660956183E+02 -0.52456874348E+03  0.52646696487E+03  0.00000000000E+00 0.  1.
         12    1    3    3    0    0 -0.20102493594E+02 -0.13591879112E+01 -0.17624334340E+04  0.17625485999E+04  0.00000000000E+00 0. -1.
         11    1    5    5    0    0  0.99022156835E+01 -0.96000056705E+02  0.21541359759E+02  0.98884250228E+02  0.00000000000E+00 0. -1.
        -12    1    5    5    0    0 -0.77888069316E+02 -0.65547534611E+02  0.55857993353E+02  0.11611694991E+03  0.00000000000E+00 0.  1.
          5    1    4    4  501    0 -0.70120939594E+01 -0.88647390001E+01  0.23518480456E+02  0.26426206353E+02  0.41800000000E+01 0. -1.
         -5    1    4    4    0  501  0.10833453646E+03  0.12911056204E+03 -0.52486764462E+02  0.17657361599E+03  0.41800000000E+01 0. -1.
</event>
<event>
11    1  0.8039394E-009  0.1494681E+03  0.7561462E-02  0.1097423E+00
         22   -1    0    0    0    0  0.00000000000E+00  0.00000000000E+00  0.14907071132E+03  0.14907071132E+03  0.00000000000E+00 0. -1.
         22   -1    0    0    0    0 -0.00000000000E+00 -0.00000000000E+00 -0.55523962839E+03  0.55523962839E+03  0.00000000000E+00 0.  1.
         24    2    1    2    0    0 -0.31748464838E+02  0.35771918132E+02 -0.32304287876E+03  0.33603047341E+03  0.79197111021E+02 0.  0.
         25    2    1    2    0    0 -0.51652647911E+02 -0.11388761745E+02 -0.17363575376E+03  0.22044208719E+03  0.12509052278E+03 0.  0.
        -24    2    1    2    0    0  0.83401112749E+02 -0.24383156387E+02  0.90509715456E+02  0.14783777912E+03  0.78190257827E+02 0.  0.
        -13    1    3    3    0    0 -0.54721054705E+02  0.95726277634E+01 -0.23171780748E+03  0.23828380418E+03  0.00000000000E+00 0.  1.
         14    1    3    3    0    0  0.22972589867E+02  0.26199290369E+02 -0.91325071279E+02  0.97746669228E+02  0.00000000000E+00 0. -1.
         11    1    5    5    0    0  0.91013861347E+02 -0.36877183256E+02  0.89990250758E+02  0.13319795356E+03  0.00000000000E+00 0. -1.
        -12    1    5    5    0    0 -0.76127485987E+01  0.12494026869E+02  0.51946469833E+00  0.14639825553E+02  0.00000000000E+00 0.  1.
          5    1    4    4  501    0  0.10762827368E+02 -0.10728727331E+02 -0.15410005730E+03  0.15490398349E+03  0.41800000000E+01 0.  1.
         -5    1    4    4    0  501 -0.62415475279E+02 -0.66003441455E+00 -0.19535696461E+02  0.65538103695E+02  0.41800000000E+01 0.  1.
</event>
<event>
11    1  0.8039394E-009  0.1500359E+03  0.7561462E-02  0.1096842E+00
         22   -1    0    0    0    0  0.00000000000E+00  0.00000000000E+00  0.12416432070E+03  0.12416432070E+03  0.00000000000E+00 0. -1.
         22   -1    0    0    0    0 -0.00000000000E+00 -0.00000000000E+00 -0.13932122871E+04  0.13932122871E+04  0.00000000000E+00 0. -1.
        -24    2    1    2    0    0  0.47564678142E+02 -0.68126967688E+02 -0.12056549726E+04  0.12109327422E+04  0.76488632300E+02 0.  0.
         25    2    1    2    0    0 -0.77674539838E+02  0.40746529117E+02 -0.12541899353E+03  0.19769146602E+03  0.12513344087E+03 0.  0.
         24    2    1    2    0    0  0.30109861696E+02  0.27380438570E+02  0.62025999697E+02  0.10875239960E+03  0.79520862627E+02 0.  0.
        -11    1    5    5    0    0  0.25461355688E+02 -0.23311595894E+02  0.99435694779E+01  0.35924722831E+02  0.00000000000E+00 0.  1.
         12    1    5    5    0    0  0.46485060086E+01  0.50692034464E+02  0.52082430219E+02  0.72827676770E+02  0.00000000000E+00 0. -1.
         13    1    3    3    0    0  0.28188890699E+02 -0.19132045014E+02 -0.90880881502E+03  0.90944714577E+03  0.00000000000E+00 0. -1.
        -14    1    3    3    0    0  0.19375787443E+02 -0.48994922673E+02 -0.29684615757E+03  0.30148559642E+03  0.00000000000E+00 0.  1.
          5    1    4    4  501    0 -0.10710143929E+03  0.51225884177E+02 -0.11256415416E+03  0.16365503570E+03  0.41800000000E+01 0. -1.
         -5    1    4    4    0  501  0.29426899450E+02 -0.10479355059E+02 -0.12854839370E+02  0.34036430320E+02  0.41800000000E+01 0. -1.
</event>
<event>
11    1  0.8039394E-009  0.1668012E+03  0.7561462E-02  0.1080849E+00
         22   -1    0    0    0    0  0.00000000000E+00  0.00000000000E+00  0.61230676541E+03  0.61230676541E+03  0.00000000000E+00 0. -1.
         22   -1    0    0    0    0 -0.00000000000E+00 -0.00000000000E+00 -0.68041734971E+02  0.68041734971E+02  0.00000000000E+00 0.  1.
        -24    2    1    2    0    0  0.42712456657E+02 -0.21200541781E+02  0.72092349101E+02  0.11731629282E+03  0.79322057692E+02 0.  0.
         25    2    1    2    0    0  0.62336924123E+02 -0.59571685070E+02  0.21851775399E+03  0.26614394637E+03  0.12509162086E+03 0.  0.
         24    2    1    2    0    0 -0.10504938078E+03  0.80772226851E+02  0.25365492735E+03  0.29688826119E+03  0.79008179528E+02 0.  0.
        -11    1    5    5    0    0 -0.95303355499E+02  0.72608139097E+02  0.14774960405E+03  0.19022254580E+03  0.00000000000E+00 0.  1.
         12    1    5    5    0    0 -0.97460252814E+01  0.81640877546E+01  0.10590532330E+03  0.10666571540E+03  0.00000000000E+00 0. -1.
         11    1    3    3    0    0  0.13258131080E+02  0.69854421432E+00  0.78881030558E+02  0.79990518098E+02  0.00000000000E+00 0. -1.
        -12    1    3    3    0    0  0.29454325576E+02 -0.21899085995E+02 -0.67886814568E+01  0.37325774721E+02  0.00000000000E+00 0.  1.
          5    1    4    4  501    0 -0.44939628805E+01  0.85175527594E+01  0.14563058757E+03  0.14600850949E+03  0.41800000000E+01 0.  1.
         -5    1    4    4    0  501  0.66830887004E+02 -0.68089237830E+02  0.72887166422E+02  0.12013543688E+03  0.41800000000E+01 0.  1.
</event>
<event>
11    1  0.8039394E-009  0.1283215E+03  0.7561462E-02  0.1121349E+00
         22   -1    0    0    0    0  0.00000000000E+00  0.00000000000E+00  0.17531592148E+03  0.17531592148E+03  0.00000000000E+00 0. -1.
         22   -1    0    0    0    0 -0.00000000000E+00 -0.00000000000E+00 -0.13693101452E+04  0.13693101452E+04  0.00000000000E+00 0. -1.
         24    2    1    2    0    0 -0.21445042603E+02  0.18452173434E+02 -0.12105420439E+04  0.12140259149E+04  0.87444322459E+02 0.  0.
         25    2    1    2    0    0  0.40257333270E+02 -0.48346594849E+01 -0.11475740504E+03  0.17453055617E+03  0.12509047210E+03 0.  0.
        -24    2    1    2    0    0 -0.18812290667E+02 -0.13617513949E+02  0.13130522521E+03  0.15606959558E+03  0.81100662942E+02 0.  0.
        -11    1    3    3    0    0 -0.40998750304E+02 -0.20137427928E+02 -0.46768869012E+03  0.46991395424E+03  0.00000000000E+00 0.  1.
         12    1    3    3    0    0  0.19553707701E+02  0.38589601362E+02 -0.74285335375E+03  0.74411196066E+03  0.00000000000E+00 0. -1.
         13    1    5    5    0    0 -0.25843582857E+02 -0.42694268536E+01  0.13940319125E+03  0.14184275981E+03  0.00000000000E+00 0. -1.
        -14    1    5    5    0    0  0.70312921896E+01 -0.93480870953E+01 -0.80979660321E+01  0.14226835771E+02  0.00000000000E+00 0.  1.
          5    1    4    4  501    0  0.19285135886E+02 -0.62896616428E+02 -0.79648731890E+02  0.10338904060E+03  0.41800000000E+01 0.  1.
         -5    1    4    4    0  501  0.20972197385E+02  0.58061956943E+02 -0.35108673151E+02  0.71141515570E+02  0.41800000000E+01 0.  1.
</event>
<event>
11    1  0.8039394E-009  0.1774801E+03  0.7561462E-02  0.1071700E+00
         22   -1    0    0    0    0  0.00000000000E+00  0.00000000000E+00  0.33987529749E+04  0.33987529749E+04  0.00000000000E+00 0.  1.
         22   -1    0    0    0    0 -0.00000000000E+00 -0.00000000000E+00 -0.11902962959E+04  0.11902962959E+04  0.00000000000E+00 0.  1.
        -24    2    1    2    0    0  0.56352448317E+02 -0.11017278830E+03 -0.10581579803E+04  0.10685849900E+04  0.82836754533E+02 0.  0.
         25    2    1    2    0    0 -0.10792075418E+03  0.12533845222E+03 -0.41049138810E+02  0.21139919926E+03  0.12509185771E+03 0.  0.
         24    2    1    2    0    0  0.51568305863E+02 -0.15165663915E+02  0.33076637981E+04  0.33090650815E+04  0.79891333543E+02 0.  0.
        -13    1    5    5    0    0  0.30711613493E+02  0.65133890409E+01  0.29415199329E+04  0.29416874652E+04  0.00000000000E+00 0.  1.
         14    1    5    5    0    0  0.20856692370E+02 -0.21679052956E+02  0.36614386524E+03  0.36737761637E+03  0.00000000000E+00 0. -1.
         13    1    3    3    0    0 -0.13730624002E+02 -0.34989486065E+02 -0.15035483421E+03  0.15498183874E+03  0.00000000000E+00 0. -1.
        -14    1    3    3    0    0  0.70083072319E+02 -0.75183302236E+02 -0.90780314605E+03  0.91360315123E+03  0.00000000000E+00 0.  1.
          5    1    4    4  501    0 -0.31900790002E+02 -0.46223388622E+01  0.30568357033E+02  0.44619763234E+02  0.41800000000E+01 0. -1.
         -5    1    4    4    0  501 -0.76019964178E+02  0.12996079108E+03 -0.71617495843E+02  0.16677943603E+03  0.41800000000E+01 0. -1.
</event>
<event>
11    1  0.8039394E-009  0.1404646E+03  0.7561462E-02  0.1107041E+00
         22   -1    0    0    0    0  0.00000000000E+00  0.00000000000E+00  0.13705831930E+03  0.13705831930E+03  0.00000000000E+00 0. -1.
         22   -1    0    0    0    0 -0.00000000000E+00 -0.00000000000E+00 -0.82433565314E+03  0.82433565314E+03  0.00000000000E+00 0. -1.
        -24    2    1    2    0    0 -0.62780516474E+01 -0.43703824414E+02 -0.53314970647E+03  0.54091456201E+03  0.79940701090E+02 0.  0.
         25    2    1    2    0    0 -0.57511019461E+02  0.49030729273E+02 -0.24212238729E+03  0.28281104198E+03  0.12508918926E+03 0.  0.
         24    2    1    2    0    0  0.63789071109E+02 -0.53269048593E+01  0.87994759921E+02  0.13766836845E+03  0.84333151188E+02 0.  0.
        -13    1    5    5    0    0  0.46922339303E+02  0.15016282135E+02  0.37874829141E+01  0.49411938655E+02  0.00000000000E+00 0.  1.
         14    1    5    5    0    0  0.16866731806E+02 -0.20343186994E+02  0.84207277007E+02  0.88256429793E+02  0.00000000000E+00 0. -1.
         11    1    3    3    0    0  0.20162406325E+02 -0.56722812002E+02 -0.30642639634E+03  0.31228374342E+03  0.00000000000E+00 0. -1.
        -12    1    3    3    0    0 -0.26440457973E+02  0.13018987588E+02 -0.22672331012E+03  0.22863081859E+03  0.00000000000E+00 0.  1.
          5    1    4    4  501    0 -0.10175573391E+02 -0.36601102828E+02 -0.28070212354E+02  0.47419323526E+02  0.41800000000E+01 0. -1.
         -5    1    4    4    0  501 -0.47335446070E+02  0.85631832102E+02 -0.21405217493E+03  0.23539171846E+03  0.41800000000E+01 0. -1.
</event>
<event>
11    1  0.8039394E-009  0.6650672E+03  0.7561462E-02  0.9085428E-01
         22   -1    0    0    0    0  0.00000000000E+00  0.00000000000E+00  0.13058040525E+04  0.13058040525E+04  0.00000000000E+00 0.  1.
         22   -1    0    0    0    0 -0.00000000000E+00 -0.00000000000E+00 -0.46167289727E+03  0.46167289727E+03  0.00000000000E+00 0. -1.
        -24    2    1    2    0    0  0.70009438929E+02 -0.98826751061E+01 -0.28770495717E+02  0.10913995969E+03  0.78005131692E+02 0.  0.
         25    2    1    2    0    0  0.59775113520E+03 -0.97133762534E+02  0.96987838926E+02  0.62593600875E+03  0.12509140136E+03 0.  0.
         24    2    1    2    0    0 -0.66776057413E+03  0.10701643764E+03  0.77591381204E+03  0.10324009813E+04  0.80329572912E+02 0.  0.
        -11    1    5    5    0    0 -0.63167910144E+03  0.93853474029E+02  0.75429963036E+03  0.98832934498E+03  0.00000000000E+00 0.  1.
         12    1    5    5    0    0 -0.36081472687E+02  0.13162963610E+02  0.21614181676E+02  0.44071636364E+02  0.00000000000E+00 0. -1.
         11    1    3    3    0    0  0.74310186642E+02  0.18249729645E+02 -0.24607987998E+02  0.80377917018E+02  0.00000000000E+00 0. -1.
        -12    1    3    3    0    0 -0.43007477128E+01 -0.28132404751E+02 -0.41625077188E+01  0.28762042669E+02  0.00000000000E+00 0.  1.
          5    1    4    4  501    0  0.50552774916E+03 -0.12691633017E+03  0.76903671821E+02  0.52687541902E+03  0.41800000000E+01 0. -1.
         -5    1    4    4    0  501  0.92223386043E+02  0.29782567641E+02  0.20084167106E+02  0.99060589726E+02  0.41800000000E+01 0. -1.
</event>
<event>
11    1  0.8039394E-009  0.1371926E+03  0.7561462E-02  0.1110734E+00
         22   -1    0    0    0    0  0.00000000000E+00  0.00000000000E+00  0.54788281122E+03  0.54788281122E+03  0.00000000000E+00 0.  1.
         22   -1    0    0    0    0 -0.00000000000E+00 -0.00000000000E+00 -0.23282145446E+04  0.23282145446E+04  0.00000000000E+00 0.  1.
        -24    2    1    2    0    0 -0.42873439209E+02  0.42142088729E+02 -0.20345268710E+04  0.20370124491E+04  0.80660036460E+02 0.  0.
         25    2    1    2    0    0  0.29447192787E+01 -0.17175321225E+02 -0.27411457732E+03  0.30181184156E+03  0.12509165910E+03 0.  0.
         24    2    1    2    0    0  0.39928719930E+02 -0.24966767504E+02  0.52830971498E+03  0.53727306515E+03  0.85636145620E+02 0.  0.
        -13    1    5    5    0    0  0.28432374239E+02 -0.40512906413E+02  0.14016336404E+03  0.14864543084E+03  0.00000000000E+00 0.  1.
         14    1    5    5    0    0  0.11496345691E+02  0.15546138909E+02  0.38814635094E+03  0.38862763430E+03  0.00000000000E+00 0. -1.
         13    1    3    3    0    0 -0.72510763627E+01  0.30733104893E+02 -0.23675386037E+03  0.23885035534E+03  0.00000000000E+00 0. -1.
        -14    1    3    3    0    0 -0.35622362846E+02  0.11408983836E+02 -0.17977730107E+04  0.17981620938E+04  0.00000000000E+00 0.  1.
          5    1    4    4  501    0 -0.38190085783E+02  0.17520196933E+01 -0.24458946984E+03  0.24759449385E+03  0.41800000000E+01 0.  1.
         -5    1    4    4    0  501  0.41134805061E+02 -0.18927340918E+02 -0.29525107479E+02  0.54217347716E+02  0.41800000000E+01 0.  1.
</event>
<event>
11    1  0.8039394E-009  0.1333261E+03  0.7561462E-02  0.1115248E+00
         22   -1    0    0    0    0  0.00000000000E+00  0.00000000000E+00  0.59625816136E+03  0.59625816136E+03  0.00000000000E+00 0.  1.
         22   -1    0    0    0    0 -0.00000000000E+00 -0.00000000000E+00 -0.59902540863E+03  0.59902540863E+03  0.00000000000E+00 0.  1.
        -24    2    1    2    0    0 -0.41973843441E+01  0.22877618469E-01 -0.55835192301E+03  0.56410347527E+03  0.80238658593E+02 0.  0.
         25    2    1    2    0    0  0.66043431296E+01  0.46006697920E+02  0.10190307479E+03  0.16790840737E+03  0.12509501594E+03 0.  0.
         24    2    1    2    0    0 -0.24069587856E+01 -0.46029575538E+02  0.45368160095E+03  0.46327168734E+03  0.81664839315E+02 0.  0.
        -13    1    5    5    0    0  0.21365656626E+02 -0.49472751874E+02  0.40906967747E+03  0.41260398142E+03  0.00000000000E+00 0.  1.
         14    1    5    5    0    0 -0.23772615412E+02  0.34431763362E+01  0.44611923481E+02  0.50667705923E+02  0.00000000000E+00 0. -1.
         13    1    3    3    0    0 -0.34042726782E+02 -0.23286685426E+02 -0.24153143684E+03  0.24502777791E+03  0.00000000000E+00 0. -1.
        -14    1    3    3    0    0  0.29845342438E+02  0.23309563045E+02 -0.31682048617E+03  0.31907569737E+03  0.00000000000E+00 0.  1.
          5    1    4    4  501    0  0.55947124492E+02 -0.11032479188E+02  0.35253241229E+02  0.67171867274E+02  0.41800000000E+01 0. -1.
         -5    1    4    4    0  501 -0.49342781362E+02  0.57039177108E+02  0.66649833556E+02  0.10073654010E+03  0.41800000000E+01 0. -1.
</event>
<event>
11    1  0.8039394E-009  0.1856448E+03  0.7561462E-02  0.1065166E+00
         22   -1    0    0    0    0  0.00000000000E+00  0.00000000000E+00  0.14052494082E+04  0.14052494082E+04  0.00000000000E+00 0.  1.
         22   -1    0    0    0    0 -0.00000000000E+00 -0.00000000000E+00 -0.31964945452E+03  0.31964945452E+03  0.00000000000E+00 0. -1.
         24    2    1    2    0    0  0.59522595900E+02  0.30158928213E+02 -0.24301914794E+03  0.26556939877E+03  0.83763350721E+02 0.  0.
         25    2    1    2    0    0 -0.19180658193E+03 -0.19793421861E+02  0.15899542652E+03  0.27947815226E+03  0.12508775925E+03 0.  0.
        -24    2    1    2    0    0  0.13228398603E+03 -0.10365506353E+02  0.11696236751E+04  0.11798513117E+04  0.80144118167E+02 0.  0.
        -11    1    3    3    0    0  0.47633407837E+02 -0.22345084658E+02 -0.13468598002E+03  0.14459791687E+03  0.00000000000E+00 0.  1.
         12    1    3    3    0    0  0.11889188063E+02  0.52504012871E+02 -0.10833316792E+03  0.12097148190E+03  0.00000000000E+00 0. -1.
         11    1    5    5    0    0  0.11124975383E+03 -0.39339196299E+02  0.95487297627E+03  0.96213641491E+03  0.00000000000E+00 0. -1.
        -12    1    5    5    0    0  0.21034232203E+02  0.28973689946E+02  0.21475069883E+03  0.21771489678E+03  0.00000000000E+00 0.  1.
          5    1    4    4  501    0 -0.16056595237E+03  0.30712926045E+02  0.14445031748E+03  0.21819274852E+03  0.41800000000E+01 0.  1.
         -5    1    4    4    0  501 -0.31240629559E+02 -0.50506347905E+02  0.14545109036E+02  0.61285403734E+02  0.41800000000E+01 0.  1.
</event>
<event>
11    1  0.8039394E-009  0.1636093E+03  0.7561462E-02  0.1083731E+00
         22   -1    0    0    0    0  0.00000000000E+00  0.00000000000E+00  0.54586389387E+02  0.54586389387E+02  0.00000000000E+00 0. -1.
         22   -1    0    0    0    0 -0.00000000000E+00 -0.00000000000E+00 -0.20244897893E+04  0.20244897893E+04  0.00000000000E+00 0. -1.
        -24    2    1    2    0    0 -0.13212400610E+02  0.94333472027E+02 -0.15326257747E+04  0.15382138886E+04  0.89926805743E+02 0.  0.
         25    2    1    2    0    0  0.11412828681E+03 -0.57908728262E+02 -0.30061277560E+03  0.34984928531E+03  0.12509114645E+03 0.  0.
         24    2    1    2    0    0 -0.10091588620E+03 -0.36424743765E+02 -0.13666484963E+03  0.19101300477E+03  0.79359365054E+02 0.  0.
        -11    1    5    5    0    0 -0.91993409129E+02 -0.54150009656E+02 -0.87609074168E+02  0.13809547692E+03  0.00000000000E+00 0.  1.
         12    1    5    5    0    0 -0.89224770727E+01  0.17725265890E+02 -0.49055775463E+02  0.52917527855E+02  0.00000000000E+00 0. -1.
         11    1    3    3    0    0 -0.25600473775E+02  0.65265461291E+02 -0.14045273759E+04  0.14062759737E+04  0.00000000000E+00 0. -1.
        -12    1    3    3    0    0  0.12388073165E+02  0.29068010736E+02 -0.12809839882E+03  0.13193791489E+03  0.00000000000E+00 0.  1.
          5    1    4    4  501    0  0.83849077649E+02 -0.94386081793E+02 -0.25161251808E+03  0.28154170546E+03  0.41800000000E+01 0. -1.
         -5    1    4    4    0  501  0.30279209163E+02  0.36477353532E+02 -0.49000257523E+02  0.68307579854E+02  0.41800000000E+01 0. -1.
</event>
<event>
11    1  0.8039394E-009  0.1921858E+03  0.7561462E-02  0.1060191E+00
         22   -1    0    0    0    0  0.00000000000E+00  0.00000000000E+00  0.14292858315E+04  0.14292858315E+04  0.00000000000E+00 0.  1.
         22   -1    0    0    0    0 -0.00000000000E+00 -0.00000000000E+00 -0.63547666162E+02  0.63547666162E+02  0.00000000000E+00 0. -1.
        -24    2    1    2    0    0 -0.19875895886E+03  0.76765554904E+02  0.44473452781E+03  0.49961837852E+03  0.80197567151E+02 0.  0.
         25    2    1    2    0    0  0.91538561779E+02  0.47762047496E+02  0.25259533874E+03  0.30018718543E+03  0.12508964655E+03 0.  0.
         24    2    1    2    0    0  0.10722039708E+03 -0.12452760240E+03  0.66840829878E+03  0.69302793370E+03  0.80713850753E+02 0.  0.
        -13    1    5    5    0    0  0.10719573959E+02  0.82242511236E+01  0.11515859154E+03  0.11594847467E+03  0.00000000000E+00 0.  1.
         14    1    5    5    0    0  0.96500823123E+02 -0.13275185352E+03  0.55324970723E+03  0.57707945903E+03  0.00000000000E+00 0. -1.
         13    1    3    3    0    0 -0.11314591873E+03  0.44257649668E+02  0.16248666055E+03  0.20288581355E+03  0.00000000000E+00 0. -1.
        -14    1    3    3    0    0 -0.85613040126E+02  0.32507905236E+02  0.28224786726E+03  0.29673256497E+03  0.00000000000E+00 0.  1.
          5    1    4    4  501    0  0.89212435728E+02 -0.11725802453E+02  0.91524708729E+02  0.12841572271E+03  0.41800000000E+01 0. -1.
         -5    1    4    4    0  501  0.23261260501E+01  0.59487849949E+02  0.16107063001E+03  0.17177146272E+03  0.41800000000E+01 0. -1.
</event>
<event>
11    1  0.8039394E-009  0.1415700E+03  0.7561462E-02  0.1105818E+00
         22   -1    0    0    0    0  0.00000000000E+00  0.00000000000E+00  0.21842781930E+02  0.21842781930E+02  0.00000000000E+00 0. -1.
         22   -1    0    0    0    0 -0.00000000000E+00 -0.00000000000E+00 -0.33226923920E+04  0.33226923920E+04  0.00000000000E+00 0. -1.
        -24    2    1    2    0    0 -0.54332257419E+02  0.37223965630E+02 -0.25905594290E+04  0.25927069892E+04  0.82424261574E+02 0.  0.
         25    2    1    2    0    0  0.64186472408E+02 -0.29412053562E+02 -0.58769197174E+03  0.60499199683E+03  0.12509392647E+03 0.  0.
         24    2    1    2    0    0 -0.98542149889E+01 -0.78119120674E+01 -0.12259820938E+03  0.14683618795E+03  0.79827398958E+02 0.  0.
        -13    1    5    5    0    0 -0.13997816196E+02  0.25770610586E+02 -0.10434857186E+03  0.10839136348E+03  0.00000000000E+00 0.  1.
         14    1    5    5    0    0  0.41436012073E+01 -0.33582522654E+02 -0.18249637526E+02  0.38444824471E+02  0.00000000000E+00 0. -1.
         11    1    3    3    0    0 -0.26797971118E+02  0.15623700836E+02 -0.22752474016E+04  0.22754588482E+04  0.00000000000E+00 0. -1.
        -12    1    3    3    0    0 -0.27534286301E+02  0.21600264794E+02 -0.31531202737E+03  0.31724814099E+03  0.00000000000E+00 0.  1.
          5    1    4    4  501    0 -0.19254658086E+02 -0.44957635332E+02 -0.33047896314E+03  0.33410439732E+03  0.41800000000E+01 0.  1.
         -5    1    4    4    0  501  0.83441130494E+02  0.15545581770E+02 -0.25721300860E+03  0.27088759950E+03  0.41800000000E+01 0.  1.
</event>
<event>
11    1  0.8039394E-009  0.1323646E+03  0.7561462E-02  0.1116397E+00
         22   -1    0    0    0    0  0.00000000000E+00  0.00000000000E+00  0.15101294396E+03  0.15101294396E+03  0.00000000000E+00 0.  1.
         22   -1    0    0    0    0 -0.00000000000E+00 -0.00000000000E+00 -0.49118146060E+03  0.49118146060E+03  0.00000000000E+00 0. -1.
         24    2    1    2    0    0  0.13494620823E+02 -0.51629393604E+02 -0.33519911674E+03  0.34970705188E+03  0.84195458318E+02 0.  0.
         25    2    1    2    0    0  0.22764475176E+02  0.36786626555E+01 -0.94925160837E+02  0.15871335550E+03  0.12508952460E+03 0.  0.
        -24    2    1    2    0    0 -0.36259095999E+02  0.47950730948E+02  0.89955760927E+02  0.13377399718E+03  0.78673049739E+02 0.  0.
        -11    1    3    3    0    0  0.27111102172E+02  0.15338062178E+02 -0.11535063811E+03  0.11948237411E+03  0.00000000000E+00 0.  1.
         12    1    3    3    0    0 -0.13616481350E+02 -0.66967455782E+02 -0.21984847863E+03  0.23022467777E+03  0.00000000000E+00 0. -1.
         13    1    5    5    0    0  0.21676618260E+02  0.41657303746E+01  0.62162753202E+01  0.22931881030E+02  0.00000000000E+00 0. -1.
        -14    1    5    5    0    0 -0.57935714259E+02  0.43785000574E+02  0.83739485607E+02  0.11084211615E+03  0.00000000000E+00 0.  1.
          5    1    4    4  501    0 -0.95951878944E+01 -0.13192555839E+02 -0.11542564136E+03  0.11664759853E+03  0.41800000000E+01 0. -1.
         -5    1    4    4    0  501  0.32359663070E+02  0.16871218495E+02  0.20500480523E+02  0.42065756967E+02  0.41800000000E+01 0. -1.
</event>
<event>
11    1  0.8039394E-009  0.1361592E+03  0.7561462E-02  0.1111925E+00
         22   -1    0    0    0    0  0.00000000000E+00  0.00000000000E+00  0.25846368872E+03  0.25846368872E+03  0.00000000000E+00 0.  1.
         22   -1    0    0    0    0 -0.00000000000E+00 -0.00000000000E+00 -0.14351103405E+04  0.14351103405E+04  0.00000000000E+00 0.  1.
        -24    2    1    2    0    0  0.55410997439E+01 -0.25756645515E+01 -0.13038246359E+04  0.13064241118E+04  0.82145851868E+02 0.  0.
         25    2    1    2    0    0  0.35922833022E+02  0.37149020815E+02 -0.80648990325E+02  0.15755257448E+03  0.12509218362E+03 0.  0.
         24    2    1    2    0    0 -0.41463932766E+02 -0.34573356264E+02  0.20782697439E+03  0.22959734297E+03  0.81291536666E+02 0.  0.
        -13    1    5    5    0    0 -0.39158898991E+02  0.44367899122E+01  0.17241320751E+03  0.17685988409E+03  0.00000000000E+00 0.  1.
         14    1    5    5    0    0 -0.23050337753E+01 -0.39010146176E+02  0.35413766874E+02  0.52737458884E+02  0.00000000000E+00 0. -1.
         11    1    3    3    0    0  0.13161240353E+02  0.17773781720E+02 -0.10056003064E+03  0.10296332030E+03  0.00000000000E+00 0. -1.
        -12    1    3    3    0    0 -0.76201406089E+01 -0.20349446272E+02 -0.12032646052E+04  0.12034607915E+04  0.00000000000E+00 0.  1.
          5    1    4    4  501    0 -0.29783302294E+02 -0.20279403893E+02  0.32581328059E+01  0.36419598394E+02  0.41800000000E+01 0. -1.
         -5    1    4    4    0  501  0.65706135317E+02  0.57428424708E+02 -0.83907123131E+02  0.12113297608E+03  0.41800000000E+01 0. -1.
</event>
<event>
11    1  0.8039394E-009  0.1176608E+04  0.7561462E-02  0.8527080E-01
         22   -1    0    0    0    0  0.00000000000E+00  0.00000000000E+00  0.94491688289E+03  0.94491688289E+03  0.00000000000E+00 0. -1.
         22   -1    0    0    0    0 -0.00000000000E+00 -0.00000000000E+00 -0.23249153172E+04  0.23249153172E+04  0.00000000000E+00 0. -1.
         24    2    1    2    0    0  0.69963475570E+03 -0.75377613659E+03 -0.10107811257E+04  0.14441574515E+04  0.79025345845E+02 0.  0.
         25    2    1    2    0    0 -0.11255988943E+04  0.59027168569E+03 -0.80812066649E+02  0.12796761108E+04  0.12508726896E+03 0.  0.
        -24    2    1    2    0    0  0.42596413857E+03  0.16350445090E+03 -0.28840524193E+03  0.54599863768E+03  0.82205693043E+02 0.  0.
        -13    1    3    3    0    0  0.30415379175E+03 -0.33395181887E+03 -0.38970106483E+03  0.59657377271E+03  0.00000000000E+00 0.  1.
         14    1    3    3    0    0  0.39548096395E+03 -0.41982431772E+03 -0.62108006088E+03  0.84758367883E+03  0.00000000000E+00 0. -1.
         13    1    5    5    0    0  0.40371766752E+03  0.14987844649E+03 -0.29105966848E+03  0.51977613874E+03  0.00000000000E+00 0. -1.
        -14    1    5    5    0    0  0.22246471051E+02  0.13626004411E+02  0.26544265529E+01  0.26222498942E+02  0.00000000000E+00 0.  1.
          5    1    4    4  501    0 -0.45779234846E+03  0.26709072426E+03  0.23073546800E+02  0.53052912291E+03  0.41800000000E+01 0. -1.
         -5    1    4    4    0  501 -0.66780654581E+03  0.32318096143E+03 -0.10388561345E+03  0.74914698794E+03  0.41800000000E+01 0. -1.
</event>
<event>
11    1  0.8039394E-009  0.1268735E+03  0.7561462E-02  0.1123171E+00
         22   -1    0    0    0    0  0.00000000000E+00  0.00000000000E+00  0.14697384675E+04  0.14697384675E+04  0.00000000000E+00 0.  1.
         22   -1    0    0    0    0 -0.00000000000E+00 -0.00000000000E+00 -0.12504691931E+03  0.12504691931E+03  0.00000000000E+00 0. -1.
         24    2    1    2    0    0  0.10408779033E+02 -0.24681347400E+01 -0.87997986948E+02  0.11930979403E+03  0.79854535716E+02 0.  0.
         25    2    1    2    0    0 -0.29616328988E+02  0.96549132118E+01  0.18703909006E+03  0.22716232883E+03  0.12509499644E+03 0.  0.
        -24    2    1    2    0    0  0.19207549955E+02 -0.71867784718E+01  0.12456504450E+04  0.12483132639E+04  0.78869473883E+02 0.  0.
        -13    1    3    3    0    0  0.98614674261E+01  0.29866152139E+02 -0.71792101268E+01  0.32261070060E+02  0.00000000000E+00 0.  1.
         14    1    3    3    0    0  0.54731160714E+00 -0.32334286879E+02 -0.80818776821E+02  0.87048723970E+02  0.00000000000E+00 0. -1.
         13    1    5    5    0    0 -0.23735318285E+02 -0.21722443935E+02  0.33698407100E+03  0.33851660818E+03  0.00000000000E+00 0. -1.
        -14    1    5    5    0    0  0.42942868240E+02  0.14535665463E+02  0.90866637404E+03  0.90979665575E+03  0.00000000000E+00 0.  1.
          5    1    4    4  501    0 -0.14051483309E+02  0.67265542847E+02  0.93025240931E+02  0.11572927585E+03  0.41800000000E+01 0. -1.
         -5    1    4    4    0  501 -0.15564845679E+02 -0.57610629635E+02  0.94013849134E+02  0.11143305298E+03  0.41800000000E+01 0. -1.
</event>
<event>
11    1  0.8039394E-009  0.1539491E+03  0.7561462E-02  0.1092911E+00
         22   -1    0    0    0    0  0.00000000000E+00  0.00000000000E+00  0.67156733773E+03  0.67156733773E+03  0.00000000000E+00 0. -1.
         22   -1    0    0    0    0 -0.00000000000E+00 -0.00000000000E+00 -0.48825846724E+03  0.48825846724E+03  0.00000000000E+00 0. -1.
        -24    2    1    2    0    0  0.69384337486E+02 -0.59637313788E+02 -0.44721954698E+03  0.46360773590E+03  0.80969216951E+02 0.  0.
         25    2    1    2    0    0 -0.24928958180E+02  0.53446681320E+02  0.13908608110E+03  0.19613777993E+03  0.12508832903E+03 0.  0.
         24    2    1    2    0    0 -0.44455379306E+02  0.61906324674E+01  0.49144233638E+03  0.50008028915E+03  0.80932817407E+02 0.  0.
        -11    1    5    5    0    0  0.23168342231E+02 -0.39176487187E+01  0.15376630574E+03  0.15555126754E+03  0.00000000000E+00 0.  1.
         12    1    5    5    0    0 -0.67623721538E+02  0.10108281186E+02  0.33767603065E+03  0.34452902162E+03  0.00000000000E+00 0. -1.
         13    1    3    3    0    0  0.75194870881E+02 -0.68526281029E+02 -0.43762851723E+03  0.44929816257E+03  0.00000000000E+00 0. -1.
        -14    1    3    3    0    0 -0.58105333948E+01  0.88889672416E+01 -0.95910297557E+01  0.14309573324E+02  0.00000000000E+00 0.  1.
          5    1    4    4  501    0 -0.60953980073E+02  0.15302515541E+02  0.12755262839E+03  0.14225575587E+03  0.41800000000E+01 0. -1.
         -5    1    4    4    0  501  0.36025021893E+02  0.38144165779E+02  0.11533452708E+02  0.53882024059E+02  0.41800000000E+01 0. -1.
</event>
<event>
11    1  0.8039394E-009  0.1642518E+03  0.7561462E-02  0.1083145E+00
         22   -1    0    0    0    0  0.00000000000E+00  0.00000000000E+00  0.21125269075E+04  0.21125269075E+04  0.00000000000E+00 0. -1.
         22   -1    0    0    0    0 -0.00000000000E+00 -0.00000000000E+00 -0.34362219492E+02  0.34362219492E+02  0.00000000000E+00 0. -1.
        -24    2    1    2    0    0  0.71882845280E+02 -0.33765946335E+02  0.30179551879E+03  0.32197215285E+03  0.79235405434E+02 0.  0.
         25    2    1    2    0    0 -0.12961615980E+03  0.54979240892E+02  0.37349313785E+03  0.41829205277E+03  0.12509217233E+03 0.  0.
         24    2    1    2    0    0  0.57733314522E+02 -0.21213294558E+02  0.14028760314E+04  0.14066249214E+04  0.82154552879E+02 0.  0.
        -13    1    5    5    0    0 -0.14314678416E+02  0.13800882505E+02  0.42872196472E+03  0.42918282516E+03  0.00000000000E+00 0.  1.
         14    1    5    5    0    0  0.72047992938E+02 -0.35014177063E+02  0.97415406668E+03  0.97744209624E+03  0.00000000000E+00 0. -1.
         11    1    3    3    0    0  0.78125699872E+02 -0.73436258957E+00  0.19746487696E+03  0.21235946389E+03  0.00000000000E+00 0. -1.
        -12    1    3    3    0    0 -0.62428545929E+01 -0.33031583745E+02  0.10433064183E+03  0.10961268897E+03  0.00000000000E+00 0.  1.
          5    1    4    4  501    0  0.21666673977E+02  0.22728119380E+02  0.43413841133E+02  0.53742405730E+02  0.41800000000E+01 0. -1.
         -5    1    4    4    0  501 -0.15128283378E+03  0.32251121513E+02  0.33007929672E+03  0.36454964704E+03  0.41800000000E+01 0. -1.
</event>
<event>
11    1  0.8039394E-009  0.1326654E+03  0.7561462E-02  0.1116037E+00
         22   -1    0    0    0    0  0.00000000000E+00  0.00000000000E+00  0.17437204051E+02  0.17437204051E+02  0.00000000000E+00 0.  1.
         22   -1    0    0    0    0 -0.00000000000E+00 -0.00000000000E+00 -0.26862519280E+04  0.26862519280E+04  0.00000000000E+00 0. -1.
        -24    2    1    2    0    0 -0.34309348685E+02 -0.30854464089E+02 -0.18870866458E+04  0.18895016151E+04  0.83613489065E+02 0.  0.
         25    2    1    2    0    0  0.35195312592E+02  0.97252644869E+01 -0.61429370145E+03  0.62796304058E+03  0.12509011913E+03 0.  0.
         24    2    1    2    0    0 -0.88596390688E+00  0.21129199603E+02 -0.16743437671E+03  0.18622447632E+03  0.78727740146E+02 0.  0.
        -13    1    5    5    0    0 -0.34283730197E+02  0.10683668102E-02 -0.39390320439E+02  0.52220412691E+02  0.00000000000E+00 0.  1.
         14    1    5    5    0    0  0.33397766290E+02  0.21128131236E+02 -0.12804405627E+03  0.13400406363E+03  0.00000000000E+00 0. -1.
         13    1    3    3    0    0  0.10711146688E+02 -0.40947652475E+02 -0.12643042988E+04  0.12650125686E+04  0.00000000000E+00 0. -1.
        -14    1    3    3    0    0 -0.45020495374E+02  0.10093188385E+02 -0.62278234702E+03  0.62448904652E+03  0.00000000000E+00 0.  1.
          5    1    4    4  501    0  0.61052781687E+02  0.46346425234E+02 -0.26875833807E+03  0.27950661882E+03  0.41800000000E+01 0. -1.
         -5    1    4    4    0  501 -0.25857469095E+02 -0.36621160747E+02 -0.34553536338E+03  0.34845642176E+03  0.41800000000E+01 0. -1.
</event>
<event>
11    1  0.8039394E-009  0.1292603E+03  0.7561462E-02  0.1120181E+00
         22   -1    0    0    0    0  0.00000000000E+00  0.00000000000E+00  0.11565934888E+04  0.11565934888E+04  0.00000000000E+00 0. -1.
         22   -1    0    0    0    0 -0.00000000000E+00 -0.00000000000E+00 -0.39361058570E+03  0.39361058570E+03  0.00000000000E+00 0.  1.
         24    2    1    2    0    0 -0.25677259070E+02 -0.18565466338E+02 -0.34245149416E+03  0.35318949809E+03  0.80410183019E+02 0.  0.
         25    2    1    2    0    0  0.42934774194E+02  0.24799371333E+02  0.57595531301E+02  0.14636639795E+03  0.12508986197E+03 0.  0.
        -24    2    1    2    0    0 -0.17257515124E+02 -0.62339049951E+01  0.10478388660E+04  0.10506481785E+04  0.74556170080E+02 0.  0.
        -11    1    3    3    0    0 -0.33274755019E+02  0.25127068441E+00 -0.32417931245E+03  0.32588264617E+03  0.00000000000E+00 0.  1.
         12    1    3    3    0    0  0.75974959492E+01 -0.18816737022E+02 -0.18272181711E+02  0.27306851912E+02  0.00000000000E+00 0. -1.
         11    1    5    5    0    0 -0.12055530560E+02  0.14218847766E+02  0.96445451889E+03  0.96463466165E+03  0.00000000000E+00 0. -1.
        -12    1    5    5    0    0 -0.52019845642E+01 -0.20452752762E+02  0.83384347111E+02  0.86013516857E+02  0.00000000000E+00 0.  1.
          5    1    4    4  501    0  0.36368505776E+02  0.40372218578E+02 -0.26420963229E+02  0.60565038952E+02  0.41800000000E+01 0. -1.
         -5    1    4    4    0  501  0.65662684182E+01 -0.15572847245E+02  0.84016494530E+02  0.85801358995E+02  0.41800000000E+01 0. -1.
</event>
<event>
11    1  0.8039394E-009  0.1620611E+03  0.7561462E-02  0.1085155E+00
         22   -1    0    0    0    0  0.00000000000E+00  0.00000000000E+00  0.23061519341E+03  0.23061519341E+03  0.00000000000E+00 0. -1.
         22   -1    0    0    0    0 -0.00000000000E+00 -0.00000000000E+00 -0.31617498181E+03  0.31617498181E+03  0.00000000000E+00 0. -1.
        -24    2    1    2    0    0 -0.10051364525E+03 -0.31254616842E+02 -0.20537553935E+03  0.24416069872E+03  0.79721331390E+02 0.  0.
         25    2    1    2    0    0  0.74782175445E+02  0.67682982911E+02  0.12132520846E+02  0.16114459009E+03  0.12508805265E+03 0.  0.
         24    2    1    2    0    0  0.25731469810E+02 -0.36428366069E+02  0.10768323011E+03  0.14148488641E+03  0.80206986242E+02 0.  0.
        -11    1    5    5    0    0  0.44589878255E+02 -0.31315400424E+02  0.31718268655E+02  0.63047284739E+02  0.00000000000E+00 0.  1.
         12    1    5    5    0    0 -0.18858408446E+02 -0.51129656453E+01  0.75964961454E+02  0.78437601668E+02  0.00000000000E+00 0. -1.
         13    1    3    3    0    0 -0.44306329832E+02 -0.35047156032E+01 -0.16186386728E+03  0.16785483438E+03  0.00000000000E+00 0. -1.
        -14    1    3    3    0    0 -0.56207315423E+02 -0.27749901239E+02 -0.43511672073E+02  0.76305864338E+02  0.00000000000E+00 0.  1.
          5    1    4    4  501    0  0.56333666120E+01 -0.25527166543E+02 -0.27750568582E+02  0.38352803127E+02  0.41800000000E+01 0. -1.
         -5    1    4    4    0  501  0.69148808833E+02  0.93210149454E+02  0.39883089428E+02  0.12279178697E+03  0.41800000000E+01 0. -1.
</event>
<event>
11    1  0.8039394E-009  0.2481541E+03  0.7561462E-02  0.1024887E+00
         22   -1    0    0    0    0  0.00000000000E+00  0.00000000000E+00  0.80606604875E+03  0.80606604875E+03  0.00000000000E+00 0.  1.
         22   -1    0    0    0    0 -0.00000000000E+00 -0.00000000000E+00 -0.11119851405E+04  0.11119851405E+04  0.00000000000E+00 0.  1.
        -24    2    1    2    0    0 -0.16464290407E+03 -0.20073288321E+03 -0.76290341272E+03  0.80977814031E+03  0.79486119063E+02 0.  0.
         25    2    1    2    0    0  0.80997487033E+02  0.13244706513E+03 -0.28855981445E+03  0.35073853231E+03  0.12509170063E+03 0.  0.
         24    2    1    2    0    0  0.83645417036E+02  0.68285818083E+02  0.74554413546E+03  0.75753451659E+03  0.79768271662E+02 0.  0.
        -13    1    5    5    0    0  0.32329306563E+01  0.47108411478E+02  0.36291064481E+03  0.36596965775E+03  0.00000000000E+00 0.  1.
         14    1    5    5    0    0  0.80412486380E+02  0.21177406606E+02  0.38263349065E+03  0.39156485884E+03  0.00000000000E+00 0. -1.
         11    1    3    3    0    0 -0.40610007880E+02 -0.66054432144E+01 -0.11516842149E+03  0.12229705609E+03  0.00000000000E+00 0. -1.
        -12    1    3    3    0    0 -0.12403289619E+03 -0.19412744000E+03 -0.64773499123E+03  0.68748108422E+03  0.00000000000E+00 0.  1.
          5    1    4    4  501    0 -0.31579039444E+02  0.35310462627E+02 -0.98594750828E+02  0.10946443164E+03  0.41800000000E+01 0.  1.
         -5    1    4    4    0  501  0.11257652648E+03  0.97136602503E+02 -0.18996506362E+03  0.24127410068E+03  0.41800000000E+01 0.  1.
</event>
<event>
11    1  0.8039394E-009  0.1704669E+03  0.7561462E-02  0.1077626E+00
         22   -1    0    0    0    0  0.00000000000E+00  0.00000000000E+00  0.30413875453E+03  0.30413875453E+03  0.00000000000E+00 0. -1.
         22   -1    0    0    0    0 -0.00000000000E+00 -0.00000000000E+00 -0.12714267140E+04  0.12714267140E+04  0.00000000000E+00 0. -1.
         24    2    1    2    0    0  0.48633339200E+02 -0.12307299906E+02 -0.11466851432E+04  0.11506620175E+04  0.81360860782E+02 0.  0.
         25    2    1    2    0    0  0.40647499575E+02 -0.73036132298E+02 -0.44808431188E+02  0.15697050679E+03  0.12508176787E+03 0.  0.
        -24    2    1    2    0    0 -0.89280838775E+02  0.85343432203E+02  0.22420561490E+03  0.26793294421E+03  0.79153870716E+02 0.  0.
        -13    1    3    3    0    0  0.37589325383E+01 -0.13997314608E+02 -0.32650595785E+02  0.35722762984E+02  0.00000000000E+00 0.  1.
         14    1    3    3    0    0  0.44874406661E+02  0.16900147025E+01 -0.11140345474E+04  0.11149392545E+04  0.00000000000E+00 0. -1.
         11    1    5    5    0    0 -0.65449415248E+02  0.47980683892E+02  0.20336891040E+03  0.21896274957E+03  0.00000000000E+00 0. -1.
        -12    1    5    5    0    0 -0.23831423527E+02  0.37362748311E+02  0.20836704500E+02  0.48970194640E+02  0.00000000000E+00 0.  1.
          5    1    4    4  501    0 -0.14408937899E+02 -0.89397083416E+02 -0.40313725389E+02  0.99207483939E+02  0.41800000000E+01 0.  1.
         -5    1    4    4    0  501  0.55056437474E+02  0.16360951119E+02 -0.44947057985E+01  0.57763022852E+02  0.41800000000E+01 0.  1.
</event>
<event>
11    1  0.8039394E-009  0.1498117E+03  0.7561462E-02  0.1097071E+00
         22   -1    0    0    0    0  0.00000000000E+00  0.00000000000E+00  0.72530502859E+03  0.72530502859E+03  0.00000000000E+00 0.  1.
         22   -1    0    0    0    0 -0.00000000000E+00 -0.00000000000E+00 -0.80538368686E+03  0.80538368686E+03  0.00000000000E+00 0. -1.
         24    2    1    2    0    0  0.17089374067E+02  0.84471340630E+02 -0.66465396128E+03  0.67505564602E+03  0.80670830428E+02 0.  0.
         25    2    1    2    0    0 -0.62864362935E+02 -0.39752649258E+02 -0.91469162235E+02  0.17189311211E+03  0.12509369729E+03 0.  0.
        -24    2    1    2    0    0  0.45774988869E+02 -0.44718691372E+02  0.67604446525E+03  0.68373995731E+03  0.79806636751E+02 0.  0.
        -11    1    3    3    0    0 -0.34425700893E+01 -0.14856201103E+01  0.73725045215E+00  0.38212424892E+01  0.00000000000E+00 0.  1.
         12    1    3    3    0    0  0.20531944156E+02  0.85956960740E+02 -0.66539121173E+03  0.67123440353E+03  0.00000000000E+00 0. -1.
         13    1    5    5    0    0 -0.13761733007E+02 -0.13397714668E+02  0.42554188134E+02  0.46687717672E+02  0.00000000000E+00 0. -1.
        -14    1    5    5    0    0  0.59536721875E+02 -0.31320976704E+02  0.63349027711E+03  0.63705223964E+03  0.00000000000E+00 0.  1.
          5    1    4    4  501    0 -0.60365823868E+02  0.35457193331E+02 -0.45967743000E+02  0.83855536768E+02  0.41800000000E+01 0.  1.
         -5    1    4    4    0  501 -0.24985390674E+01 -0.75209842589E+02 -0.45501419235E+02  0.88037575342E+02  0.41800000000E+01 0.  1.
</event>
<event>
11    1  0.8039394E-009  0.1346509E+03  0.7561462E-02  0.1113683E+00
         22   -1    0    0    0    0  0.00000000000E+00  0.00000000000E+00  0.91702685367E+02  0.91702685367E+02  0.00000000000E+00 0.  1.
         22   -1    0    0    0    0 -0.00000000000E+00 -0.00000000000E+00 -0.13228107191E+04  0.13228107191E+04  0.00000000000E+00 0.  1.
         24    2    1    2    0    0 -0.52349281018E+02  0.14960264497E+02 -0.11097712774E+04  0.11140364468E+04  0.80750603579E+02 0.  0.
         25    2    1    2    0    0  0.34632415823E+01  0.62589820364E+01 -0.15405260696E+03  0.19857307978E+03  0.12509154010E+03 0.  0.
        -24    2    1    2    0    0  0.48886039435E+02 -0.21219246534E+02  0.32715850636E+02  0.10190387785E+03  0.80460997774E+02 0.  0.
        -11    1    3    3    0    0 -0.63816098628E+02  0.35822012118E+02 -0.87864866611E+03  0.88169109639E+03  0.00000000000E+00 0.  1.
         12    1    3    3    0    0  0.11466817611E+02 -0.20861747621E+02 -0.23112261130E+03  0.23234535045E+03  0.00000000000E+00 0. -1.
         11    1    5    5    0    0 -0.17083875598E+01  0.15113075932E+02 -0.16557580342E+02  0.22482818305E+02  0.00000000000E+00 0. -1.
        -12    1    5    5    0    0  0.50594426995E+02 -0.36332322466E+02  0.49273430978E+02  0.79421059544E+02  0.00000000000E+00 0.  1.
          5    1    4    4  501    0  0.49524732446E+02  0.28005621317E+01 -0.14225920499E+03  0.15071727199E+03  0.41800000000E+01 0. -1.
         -5    1    4    4    0  501 -0.46061490863E+02  0.34584199047E+01 -0.11793401963E+02  0.47855807784E+02  0.41800000000E+01 0. -1.
</event>
<event>
11    1  0.1459207E-008  0.1549304E+03  0.7561462E-02  0.1091945E+00
         22   -1    0    0    0    0  0.00000000000E+00  0.00000000000E+00  0.31723657512E+03  0.31723657512E+03  0.00000000000E+00 0. -1.
         22   -1    0    0    0    0 -0.00000000000E+00 -0.00000000000E+00 -0.25523742931E+04  0.25523742931E+04  0.00000000000E+00 0. -1.
         24    2    1    2    0    0  0.46720378992E+02  0.49456203175E+02 -0.16417111794E+04  0.16450443086E+04  0.79539115198E+02 0.  0.
         25    2    1    2    0    0 -0.13128481202E+03 -0.81922068520E+02 -0.88560979571E+03  0.90768830863E+03  0.12508568343E+03 0.  0.
        -24    2    1    2    0    0  0.84564433029E+02  0.32465865344E+02  0.29218325712E+03  0.31687825099E+03  0.82677653964E+02 0.  0.
        -11    1    3    3    0    0 -0.12230764952E+02  0.10333202313E+02 -0.85710745298E+03  0.85725699335E+03  0.00000000000E+00 0.  1.
         12    1    3    3    0    0  0.58951143943E+02  0.39123000862E+02 -0.78460372640E+03  0.78778731524E+03  0.00000000000E+00 0. -1.
         13    1    5    5    0    0  0.95842526561E+02  0.39991477677E+02  0.28004238228E+03  0.29867849614E+03  0.00000000000E+00 0. -1.
        -14    1    5    5    0    0 -0.11278093533E+02 -0.75256123327E+01  0.12140874836E+02  0.18199754847E+02  0.00000000000E+00 0.  1.
          5    1    4    4  501    0 -0.12598158876E+03 -0.10101277125E+03 -0.86000736957E+03  0.87504576382E+03  0.41800000000E+01 0. -1.
         -5    1    4    4    0  501 -0.53032232564E+01  0.19090702733E+02 -0.25602426130E+02  0.32642544807E+02  0.41800000000E+01 0. -1.
</event>
<event>
11    1  0.8039394E-009  0.1385179E+03  0.7561462E-02  0.1109225E+00
         22   -1    0    0    0    0  0.00000000000E+00  0.00000000000E+00  0.60471631372E+03  0.60471631372E+03  0.00000000000E+00 0. -1.
         22   -1    0    0    0    0 -0.00000000000E+00 -0.00000000000E+00 -0.48147772386E+03  0.48147772386E+03  0.00000000000E+00 0.  1.
        -24    2    1    2    0    0 -0.18850673139E+02 -0.57565249676E+02 -0.38774037011E+03  0.40085669685E+03  0.81696945770E+02 0.  0.
         25    2    1    2    0    0  0.43793415968E+02  0.37625306471E+02 -0.26984752900E+02  0.14039004444E+03  0.12509061004E+03 0.  0.
         24    2    1    2    0    0 -0.24942742829E+02  0.19939943205E+02  0.53796371287E+03  0.54494729628E+03  0.80887932378E+02 0.  0.
        -13    1    5    5    0    0 -0.29047039493E+02  0.14890331862E+02  0.73314599988E+02  0.80252620254E+02  0.00000000000E+00 0.  1.
         14    1    5    5    0    0  0.41042966640E+01  0.50496113436E+01  0.46464911289E+03  0.46469467603E+03  0.00000000000E+00 0. -1.
         13    1    3    3    0    0  0.30703847095E+02 -0.10509461801E+02 -0.15116290883E+03  0.15460724440E+03  0.00000000000E+00 0. -1.
        -14    1    3    3    0    0 -0.49554520234E+02 -0.47055787875E+02 -0.23657746128E+03  0.24624945245E+03  0.00000000000E+00 0.  1.
          5    1    4    4  501    0  0.72946432144E+02  0.72895621941E+01 -0.53169986376E+02  0.90657815607E+02  0.41800000000E+01 0.  1.
         -5    1    4    4    0  501 -0.29153016176E+02  0.30335744277E+02  0.26185233475E+02  0.49732228838E+02  0.41800000000E+01 0.  1.
</event>
<event>
11    1  0.8039394E-009  0.1474540E+03  0.7561462E-02  0.1099509E+00
         22   -1    0    0    0    0  0.00000000000E+00  0.00000000000E+00  0.25987036064E+03  0.25987036064E+03  0.00000000000E+00 0.  1.
         22   -1    0    0    0    0 -0.00000000000E+00 -0.00000000000E+00 -0.29961848490E+03  0.29961848490E+03  0.00000000000E+00 0.  1.
        -24    2    1    2    0    0  0.60415734685E+02  0.49984906621E+02 -0.23343689284E+03  0.26014348723E+03  0.83864766877E+02 0.  0.
         25    2    1    2    0    0 -0.58234373929E+02 -0.46489776788E+02  0.10313614395E+03  0.17842849170E+03  0.12508845194E+03 0.  0.
         24    2    1    2    0    0 -0.21813607560E+01 -0.34951298336E+01  0.90552624627E+02  0.12091686661E+03  0.80025849176E+02 0.  0.
        -11    1    5    5    0    0 -0.10456397984E+02 -0.27417948797E+02  0.90984629398E+02  0.95599597079E+02  0.00000000000E+00 0.  1.
         12    1    5    5    0    0  0.82750372284E+01  0.23922818964E+02 -0.43200477098E+00  0.25317269529E+02  0.00000000000E+00 0. -1.
         13    1    3    3    0    0  0.54804429904E+02  0.59094199390E+02 -0.11064665989E+03  0.13688803192E+03  0.00000000000E+00 0. -1.
        -14    1    3    3    0    0  0.56113047807E+01 -0.91092927682E+01 -0.12279023295E+03  0.12325545531E+03  0.00000000000E+00 0.  1.
          5    1    4    4  501    0  0.23069664404E+02 -0.58471040703E+02  0.50575929506E+02  0.80786564861E+02  0.41800000000E+01 0.  1.
         -5    1    4    4    0  501 -0.81304038333E+02  0.11981263915E+02  0.52560214440E+02  0.97641926836E+02  0.41800000000E+01 0.  1.
</event>
<event>
11    1  0.8039394E-009  0.4957374E+03  0.7561462E-02  0.9403097E-01
         22   -1    0    0    0    0  0.00000000000E+00  0.00000000000E+00  0.12613868800E+04  0.12613868800E+04  0.00000000000E+00 0.  1.
         22   -1    0    0    0    0 -0.00000000000E+00 -0.00000000000E+00 -0.54407584661E+03  0.54407584661E+03  0.00000000000E+00 0.  1.
         24    2    1    2    0    0  0.53588555929E+02 -0.36687637724E+02 -0.72885292036E+01  0.10447041328E+03  0.81506002877E+02 0.  0.
         25    2    1    2    0    0  0.90612288828E+02  0.49190560421E+03 -0.27926030037E+03  0.58635819605E+03  0.12509159988E+03 0.  0.
        -24    2    1    2    0    0 -0.14420084476E+03 -0.45521796649E+03  0.10038598630E+04  0.11146341173E+04  0.81592342119E+02 0.  0.
        -13    1    3    3    0    0  0.16013308676E+02 -0.47871794531E+02 -0.30433803274E+02  0.58943626866E+02  0.00000000000E+00 0.  1.
         14    1    3    3    0    0  0.37575247253E+02  0.11184156807E+02  0.23145274071E+02  0.45526786416E+02  0.00000000000E+00 0. -1.
         13    1    5    5    0    0 -0.11747662833E+02 -0.90945267329E+01  0.66129309904E+02  0.67777604169E+02  0.00000000000E+00 0. -1.
        -14    1    5    5    0    0 -0.13245318192E+03 -0.44612343976E+03  0.93773055309E+03  0.10468565131E+04  0.00000000000E+00 0.  1.
          5    1    4    4  501    0  0.55709546141E+02  0.63641592998E+02 -0.31560275603E+02  0.90373277503E+02  0.41800000000E+01 0. -1.
         -5    1    4    4    0  501  0.34902742687E+02  0.42826401122E+03 -0.24770002477E+03  0.49598491854E+03  0.41800000000E+01 0. -1.
</event>
<event>
11    1  0.8039394E-009  0.1606547E+03  0.7561462E-02  0.1086463E+00
         22   -1    0    0    0    0  0.00000000000E+00  0.00000000000E+00  0.17763527523E+03  0.17763527523E+03  0.00000000000E+00 0.  1.
         22   -1    0    0    0    0 -0.00000000000E+00 -0.00000000000E+00 -0.25268620364E+04  0.25268620364E+04  0.00000000000E+00 0. -1.
         24    2    1    2    0    0 -0.54560478343E+02 -0.85316663840E+02 -0.12415581942E+04  0.12480709092E+04  0.77191100063E+02 0.  0.
         25    2    1    2    0    0  0.15074712608E+03  0.11024251204E+03 -0.12471320298E+04  0.12672265918E+04  0.12508728011E+03 0.  0.
        -24    2    1    2    0    0 -0.96186647736E+02 -0.24925848202E+02  0.13946346286E+03  0.18919981061E+03  0.80457080187E+02 0.  0.
        -11    1    3    3    0    0  0.13040042742E+00 -0.34959068712E+02 -0.15153092156E+03  0.15551132974E+03  0.00000000000E+00 0.  1.
         12    1    3    3    0    0 -0.54690878770E+02 -0.50357595128E+02 -0.10900272726E+04  0.10925595794E+04  0.00000000000E+00 0. -1.
         13    1    5    5    0    0 -0.17374045720E+02 -0.67199295057E+01 -0.85725437506E+01  0.20506180132E+02  0.00000000000E+00 0. -1.
        -14    1    5    5    0    0 -0.78812602016E+02 -0.18205918696E+02  0.14803600661E+03  0.16869363048E+03  0.00000000000E+00 0.  1.
          5    1    4    4  501    0  0.54825434099E+02  0.27515103684E+02 -0.14054455719E+03  0.15340519584E+03  0.41800000000E+01 0. -1.
         -5    1    4    4    0  501  0.95921691979E+02  0.82727408358E+02 -0.11065874726E+04  0.11138213960E+04  0.41800000000E+01 0. -1.
</event>
<event>
11    1  0.8039394E-009  0.1362931E+03  0.7561462E-02  0.1111770E+00
         22   -1    0    0    0    0  0.00000000000E+00  0.00000000000E+00  0.23587927736E+03  0.23587927736E+03  0.00000000000E+00 0. -1.
         22   -1    0    0    0    0 -0.00000000000E+00 -0.00000000000E+00 -0.11529133318E+04  0.11529133318E+04  0.00000000000E+00 0. -1.
        -24    2    1    2    0    0  0.53743809176E+02 -0.40835463187E+01 -0.10964343038E+04  0.11014490445E+04  0.90092966698E+02 0.  0.
         25    2    1    2    0    0 -0.67721084419E+02  0.23370531445E+01  0.12314897281E+03  0.18816050180E+03  0.12508836013E+03 0.  0.
         24    2    1    2    0    0  0.13977275243E+02  0.17464931743E+01  0.56251276593E+02  0.99183062856E+02  0.80465268144E+02 0.  0.
        -13    1    5    5    0    0  0.37282065650E+00 -0.19807760115E+02  0.68209800253E+02  0.71028608367E+02  0.00000000000E+00 0.  1.
         14    1    5    5    0    0  0.13604454586E+02  0.21554253289E+02 -0.11958523659E+02  0.28154454489E+02  0.00000000000E+00 0. -1.
         11    1    3    3    0    0  0.36110650089E+02  0.38010259517E+02 -0.77754163158E+03  0.77930722293E+03  0.00000000000E+00 0. -1.
        -12    1    3    3    0    0  0.17633159087E+02 -0.42093805835E+02 -0.31889267223E+03  0.32214182155E+03  0.00000000000E+00 0.  1.
          5    1    4    4  501    0 -0.33473331814E+02 -0.18831118132E+02 -0.17054801311E+02  0.42230481889E+02  0.41800000000E+01 0.  1.
         -5    1    4    4    0  501 -0.34247752605E+02  0.21168171277E+02  0.14020377412E+03  0.14593001991E+03  0.41800000000E+01 0.  1.
</event>
<event>
11    1  0.8039394E-009  0.1442293E+03  0.7561462E-02  0.1102926E+00
         22   -1    0    0    0    0  0.00000000000E+00  0.00000000000E+00  0.60695659129E+03  0.60695659129E+03  0.00000000000E+00 0.  1.
         22   -1    0    0    0    0 -0.00000000000E+00 -0.00000000000E+00 -0.20654760915E+03  0.20654760915E+03  0.00000000000E+00 0. -1.
        -24    2    1    2    0    0  0.30237579351E+02 -0.44173556743E+02 -0.97870562382E+02  0.13863635439E+03  0.82315110743E+02 0.  0.
         25    2    1    2    0    0  0.40181043902E+01  0.10526203634E+03 -0.55871340891E+00  0.16353519661E+03  0.12508879611E+03 0.  0.
         24    2    1    2    0    0 -0.34255683741E+02 -0.61088479593E+02  0.49883825793E+03  0.51133264944E+03  0.87841997909E+02 0.  0.
        -13    1    5    5    0    0 -0.58833423773E+02 -0.57328588324E+02  0.30357638020E+03  0.31449412937E+03  0.00000000000E+00 0.  1.
         14    1    5    5    0    0  0.24577740032E+02 -0.37598912689E+01  0.19526187773E+03  0.19683852007E+03  0.00000000000E+00 0. -1.
         13    1    3    3    0    0  0.13153763422E+01 -0.49277406372E+02 -0.97513428983E+02  0.10926509884E+03  0.00000000000E+00 0. -1.
        -14    1    3    3    0    0  0.28922203009E+02  0.51038496287E+01 -0.35713339922E+00  0.29371255543E+02  0.00000000000E+00 0.  1.
          5    1    4    4  501    0 -0.12801572174E+02  0.12893573153E+03 -0.15586610385E+02  0.13057073921E+03  0.41800000000E+01 0.  1.
         -5    1    4    4    0  501  0.16819676565E+02 -0.23673695192E+02  0.15027896977E+02  0.32964457395E+02  0.41800000000E+01 0.  1.
</event>
<event>
11    1  0.8039394E-009  0.2307587E+03  0.7561462E-02  0.1034680E+00
         22   -1    0    0    0    0  0.00000000000E+00  0.00000000000E+00  0.25036776334E+03  0.25036776334E+03  0.00000000000E+00 0.  1.
         22   -1    0    0    0    0 -0.00000000000E+00 -0.00000000000E+00 -0.61015767254E+03  0.61015767254E+03  0.00000000000E+00 0.  1.
         24    2    1    2    0    0 -0.18913124736E+03  0.35306260098E+02 -0.46814149971E+03  0.51106864137E+03  0.70834537567E+02 0.  0.
         25    2    1    2    0    0  0.20206614685E+03 -0.27750844925E+02  0.36884011039E+02  0.24209160306E+03  0.12508827646E+03 0.  0.
        -24    2    1    2    0    0 -0.12934899487E+02 -0.75554151724E+01  0.71467579468E+02  0.10736519144E+03  0.78710059678E+02 0.  0.
        -13    1    3    3    0    0 -0.17303880050E+03  0.15001942818E+02 -0.35783552374E+03  0.39776091665E+03  0.00000000000E+00 0.  1.
         14    1    3    3    0    0 -0.16092446862E+02  0.20304317279E+02 -0.11030597597E+03  0.11330772472E+03  0.00000000000E+00 0. -1.
         13    1    5    5    0    0  0.19393368957E+02  0.99239425872E+01 -0.51533911731E+01  0.22386264462E+02  0.00000000000E+00 0. -1.
        -14    1    5    5    0    0 -0.32328268443E+02 -0.17479357760E+02  0.76620970641E+02  0.84978926977E+02  0.00000000000E+00 0.  1.
          5    1    4    4  501    0 -0.44446334852E+01  0.77354397260E+01 -0.22246596476E+02  0.24330541493E+02  0.41800000000E+01 0.  1.
         -5    1    4    4    0  501  0.20651078033E+03 -0.35486284652E+02  0.59130607515E+02  0.21776106157E+03  0.41800000000E+01 0.  1.
</event>
<event>
11    1  0.8039394E-009  0.1322441E+03  0.7561462E-02  0.1116542E+00
         22   -1    0    0    0    0  0.00000000000E+00  0.00000000000E+00  0.35802436159E+03  0.35802436159E+03  0.00000000000E+00 0. -1.
         22   -1    0    0    0    0 -0.00000000000E+00 -0.00000000000E+00 -0.19192315860E+03  0.19192315860E+03  0.00000000000E+00 0.  1.
         24    2    1    2    0    0 -0.31206932489E+02  0.23559191567E+02 -0.11943150036E+03  0.14976026796E+03  0.81457635853E+02 0.  0.
         25    2    1    2    0    0  0.84882219110E+01  0.18768160375E+02  0.33172266961E+02  0.13104275818E+03  0.12509001327E+03 0.  0.
        -24    2    1    2    0    0  0.22718710578E+02 -0.42327351943E+02  0.25236043639E+03  0.26914449406E+03  0.80282154261E+02 0.  0.
        -13    1    3    3    0    0 -0.44524482685E+00  0.19808204733E+02 -0.11701071217E+03  0.11867632443E+03  0.00000000000E+00 0.  1.
         14    1    3    3    0    0 -0.30761687662E+02  0.37509868342E+01 -0.24207881920E+01  0.31083943532E+02  0.00000000000E+00 0. -1.
         11    1    5    5    0    0 -0.18656200640E+02 -0.33681785923E+02  0.18964883765E+03  0.19351795304E+03  0.00000000000E+00 0. -1.
        -12    1    5    5    0    0  0.41374911218E+02 -0.86455660198E+01  0.62711598740E+02  0.75626541020E+02  0.00000000000E+00 0.  1.
          5    1    4    4  501    0  0.41773517032E+02  0.52109792809E+02  0.46990403702E+02  0.81768133596E+02  0.41800000000E+01 0. -1.
         -5    1    4    4    0  501 -0.33285295121E+02 -0.33341632433E+02 -0.13818136741E+02  0.49274624581E+02  0.41800000000E+01 0. -1.
</event>
<event>
11    1  0.1118104E-008  0.1524352E+03  0.7561462E-02  0.1094416E+00
         22   -1    0    0    0    0  0.00000000000E+00  0.00000000000E+00  0.40356049397E+03  0.40356049397E+03  0.00000000000E+00 0. -1.
         22   -1    0    0    0    0 -0.00000000000E+00 -0.00000000000E+00 -0.80552783992E+03  0.80552783992E+03  0.00000000000E+00 0.  1.
        -24    2    1    2    0    0  0.94706915189E+01 -0.38358885656E+01 -0.68738867201E+03  0.69196282159E+03  0.78771517780E+02 0.  0.
         25    2    1    2    0    0  0.30039329134E+02 -0.74511610478E+02 -0.53269471175E+02  0.15794811637E+03  0.12512245807E+03 0.  0.
         24    2    1    2    0    0 -0.39510020653E+02  0.78347499043E+02  0.33869079724E+03  0.35917739593E+03  0.81225447201E+02 0.  0.
        -13    1    5    5    0    0  0.72053021757E+01  0.19638539914E+01 -0.13123487820E+01  0.75825695690E+01  0.00000000000E+00 0.  1.
         14    1    5    5    0    0 -0.46715322829E+02  0.76383645052E+02  0.34000314602E+03  0.35159482636E+03  0.00000000000E+00 0. -1.
         13    1    3    3    0    0 -0.20614612898E+02  0.28310326004E+02 -0.27121099682E+03  0.27346268780E+03  0.00000000000E+00 0. -1.
        -14    1    3    3    0    0  0.30085304416E+02 -0.32146214569E+02 -0.41617767520E+03  0.41850013379E+03  0.00000000000E+00 0.  1.
          5    1    4    4  501    0  0.11021382592E+02  0.32025925813E+02 -0.33567351485E+02  0.47868259673E+02  0.41800000000E+01 0. -1.
         -5    1    4    4    0  501  0.19017946542E+02 -0.10653753629E+03 -0.19702119689E+02  0.11007985669E+03  0.41800000000E+01 0. -1.
</event>
<event>
11    1  0.8039394E-009  0.1287901E+03  0.7561462E-02  0.1120765E+00
         22   -1    0    0    0    0  0.00000000000E+00  0.00000000000E+00  0.25850961300E+03  0.25850961300E+03  0.00000000000E+00 0. -1.
         22   -1    0    0    0    0 -0.00000000000E+00 -0.00000000000E+00 -0.33435919360E+03  0.33435919360E+03  0.00000000000E+00 0. -1.
         24    2    1    2    0    0  0.24957938554E+02  0.18427336185E+02 -0.28028787905E+03  0.29306185907E+03  0.79758966158E+02 0.  0.
         25    2    1    2    0    0 -0.11474822996E+02 -0.24466990964E+02  0.79110697100E+02  0.15045383961E+03  0.12509016848E+03 0.  0.
        -24    2    1    2    0    0 -0.13483115558E+02  0.60396547788E+01  0.12532760135E+03  0.14935310792E+03  0.79881608340E+02 0.  0.
        -13    1    3    3    0    0  0.10206424961E+02 -0.30317971166E+02 -0.74733076994E+02  0.81291963214E+02  0.00000000000E+00 0.  1.
         14    1    3    3    0    0  0.14751513593E+02  0.48745307351E+02 -0.20555480206E+03  0.21176989586E+03  0.00000000000E+00 0. -1.
         11    1    5    5    0    0 -0.16580343889E+02 -0.83969165129E+01  0.13189166275E+03  0.13319469476E+03  0.00000000000E+00 0. -1.
        -12    1    5    5    0    0  0.30972283310E+01  0.14436571292E+02 -0.65640613937E+01  0.16158413164E+02  0.00000000000E+00 0.  1.
          5    1    4    4  501    0 -0.38106328535E+01  0.49313900638E+02  0.50582937667E+02  0.70869511794E+02  0.41800000000E+01 0.  1.
         -5    1    4    4    0  501 -0.76641901426E+01 -0.73780891602E+02  0.28527759433E+02  0.79584327819E+02  0.41800000000E+01 0.  1.
</event>
<event>
11    1  0.8039394E-009  0.3892540E+03  0.7561462E-02  0.9682007E-01
         22   -1    0    0    0    0  0.00000000000E+00  0.00000000000E+00  0.15347517496E+04  0.15347517496E+04  0.00000000000E+00 0. -1.
         22   -1    0    0    0    0 -0.00000000000E+00 -0.00000000000E+00 -0.13526580278E+03  0.13526580278E+03  0.00000000000E+00 0. -1.
         24    2    1    2    0    0 -0.19460455505E+02  0.19723145293E+02  0.22969753112E+02  0.88148686820E+02  0.80466574683E+02 0.  0.
         25    2    1    2    0    0  0.24630777861E+03  0.27246606414E+03  0.55303874927E+03  0.67557697494E+03  0.12508842058E+03 0.  0.
        -24    2    1    2    0    0 -0.22684732311E+03 -0.29218920944E+03  0.82347744447E+03  0.90629189066E+03  0.80097736616E+02 0.  0.
        -11    1    3    3    0    0  0.26274795497E+02  0.28228896866E+02  0.94796329599E+01  0.39712704991E+02  0.00000000000E+00 0.  1.
         12    1    3    3    0    0 -0.45735251002E+02 -0.85057515722E+01  0.13490120152E+02  0.48435981829E+02  0.00000000000E+00 0. -1.
         11    1    5    5    0    0 -0.21508831613E+03 -0.29034027039E+03  0.75770042447E+03  0.83944647810E+03  0.00000000000E+00 0. -1.
        -12    1    5    5    0    0 -0.11759006977E+02 -0.18489390483E+01  0.65777020000E+02  0.66845412563E+02  0.00000000000E+00 0.  1.
          5    1    4    4  501    0  0.22987392131E+02  0.10233546562E+03  0.11944974003E+03  0.15901786225E+03  0.41800000000E+01 0. -1.
         -5    1    4    4    0  501  0.22332038648E+03  0.17013059852E+03  0.43358900924E+03  0.51655911269E+03  0.41800000000E+01 0. -1.
</event>
<event>
11    1  0.8039394E-009  0.2036018E+03  0.7561462E-02  0.1052005E+00
         22   -1    0    0    0    0  0.00000000000E+00  0.00000000000E+00  0.61872552046E+03  0.61872552046E+03  0.00000000000E+00 0. -1.
         22   -1    0    0    0    0 -0.00000000000E+00 -0.00000000000E+00 -0.44737220076E+03  0.44737220076E+03  0.00000000000E+00 0. -1.
         24    2    1    2    0    0  0.11047614717E+03 -0.29655341043E+02 -0.32737307940E+03  0.35608967977E+03  0.80884538535E+02 0.  0.
         25    2    1    2    0    0 -0.13453850210E+03  0.17958677107E+03  0.99667561409E+02  0.27556106024E+03  0.12509299833E+03 0.  0.
        -24    2    1    2    0    0  0.24062354922E+02 -0.14993143003E+03  0.39905883769E+03  0.43444698121E+03  0.80235858010E+02 0.  0.
        -11    1    3    3    0    0  0.28751573948E+02 -0.26143893565E+02 -0.34359257910E+02  0.51872100202E+02  0.00000000000E+00 0.  1.
         12    1    3    3    0    0  0.81724573226E+02 -0.35114474785E+01 -0.29301382149E+03  0.30421757957E+03  0.00000000000E+00 0. -1.
         13    1    5    5    0    0  0.16744836669E+02 -0.57319496517E+02  0.26301999926E+03  0.26971361524E+03  0.00000000000E+00 0. -1.
        -14    1    5    5    0    0  0.73175182530E+01 -0.92611933513E+02  0.13603883843E+03  0.16473336597E+03  0.00000000000E+00 0.  1.
          5    1    4    4  501    0 -0.70671714499E+02  0.25330871651E+02 -0.98717444166E+01  0.75835796473E+02  0.41800000000E+01 0. -1.
         -5    1    4    4    0  501 -0.63866787597E+02  0.15425589942E+03  0.10953930583E+03  0.19972526376E+03  0.41800000000E+01 0. -1.
</event>
<event>
11    1  0.8039394E-009  0.1607856E+03  0.7561462E-02  0.1086341E+00
         22   -1    0    0    0    0  0.00000000000E+00  0.00000000000E+00  0.34933838909E+04  0.34933838909E+04  0.00000000000E+00 0.  1.
         22   -1    0    0    0    0 -0.00000000000E+00 -0.00000000000E+00 -0.34989306516E+03  0.34989306516E+03  0.00000000000E+00 0.  1.
        -24    2    1    2    0    0 -0.52337146865E+02 -0.85818751284E+02 -0.32110768454E+03  0.34677499971E+03  0.83897081845E+02 0.  0.
         25    2    1    2    0    0  0.20939641319E+02  0.12948062580E+03  0.52669511555E+03  0.55701034307E+03  0.12509626895E+03 0.  0.
         24    2    1    2    0    0  0.31397505546E+02 -0.43661874516E+02  0.29379033947E+04  0.29394916132E+04  0.80264718752E+02 0.  0.
        -11    1    5    5    0    0 -0.53472245669E+01 -0.52525662611E+02  0.21872745434E+04  0.21879116679E+04  0.00000000000E+00 0.  1.
         12    1    5    5    0    0  0.36744730113E+02  0.88637880954E+01  0.75062885127E+03  0.75157994537E+03  0.00000000000E+00 0. -1.
         11    1    3    3    0    0 -0.73106365545E-01  0.55213676891E+01  0.28068976315E+01  0.61943135223E+01  0.00000000000E+00 0. -1.
        -12    1    3    3    0    0 -0.52264040500E+02 -0.91340118973E+02 -0.32391458217E+03  0.34058068619E+03  0.00000000000E+00 0.  1.
          5    1    4    4  501    0  0.23013885410E+02  0.15278847924E+03  0.41589596258E+03  0.44369007472E+03  0.41800000000E+01 0. -1.
         -5    1    4    4    0  501 -0.20742440906E+01 -0.23307853445E+02  0.11079915297E+03  0.11332026835E+03  0.41800000000E+01 0. -1.
</event>
<event>
11    1  0.8039394E-009  0.1424946E+03  0.7561462E-02  0.1104804E+00
         22   -1    0    0    0    0  0.00000000000E+00  0.00000000000E+00  0.29787069111E+03  0.29787069111E+03  0.00000000000E+00 0. -1.
         22   -1    0    0    0    0 -0.00000000000E+00 -0.00000000000E+00 -0.18153570413E+04  0.18153570413E+04  0.00000000000E+00 0. -1.
        -24    2    1    2    0    0  0.17331008018E+02 -0.67497711845E+02 -0.12034814952E+04  0.12081858143E+04  0.80554004658E+02 0.  0.
         25    2    1    2    0    0  0.16619873881E+02  0.67554191127E+02 -0.59460358241E+03  0.61158890233E+03  0.12509107201E+03 0.  0.
         24    2    1    2    0    0 -0.33950881899E+02 -0.56479282327E-01  0.28059872742E+03  0.29345301576E+03  0.78907294090E+02 0.  0.
        -11    1    5    5    0    0  0.12551686115E+02  0.23316807485E+02  0.45344617125E+02  0.52510500263E+02  0.00000000000E+00 0.  1.
         12    1    5    5    0    0 -0.46502568014E+02 -0.23373286767E+02  0.23525411029E+03  0.24094251550E+03  0.00000000000E+00 0. -1.
         11    1    3    3    0    0 -0.76056566626E+01 -0.22177844736E+02 -0.90158799275E+03  0.90189279379E+03  0.00000000000E+00 0. -1.
        -12    1    3    3    0    0  0.24936664681E+02 -0.45319867109E+02 -0.30189350241E+03  0.30629302048E+03  0.00000000000E+00 0.  1.
          5    1    4    4  501    0 -0.12945203772E+02  0.87889780545E+02 -0.25489975486E+03  0.26996953393E+03  0.41800000000E+01 0. -1.
         -5    1    4    4    0  501  0.29565077653E+02 -0.20335589418E+02 -0.33970382755E+03  0.34161936840E+03  0.41800000000E+01 0. -1.
</event>
<event>
11    1  0.8039394E-009  0.1421613E+03  0.7561462E-02  0.1105169E+00
         22   -1    0    0    0    0  0.00000000000E+00  0.00000000000E+00  0.23375331206E+03  0.23375331206E+03  0.00000000000E+00 0. -1.
         22   -1    0    0    0    0 -0.00000000000E+00 -0.00000000000E+00 -0.13438147898E+04  0.13438147898E+04  0.00000000000E+00 0. -1.
         24    2    1    2    0    0  0.67654945162E+01  0.64041299007E+00 -0.98790968321E+03  0.98982096864E+03  0.61105038555E+02 0.  0.
         25    2    1    2    0    0 -0.42823609809E+02 -0.57584673281E+02 -0.32630318903E+03  0.35674828812E+03  0.12508282755E+03 0.  0.
        -24    2    1    2    0    0  0.36058115292E+02  0.56944260291E+02  0.20415139452E+03  0.23099884508E+03  0.84497562591E+02 0.  0.
        -13    1    3    3    0    0 -0.87423437476E+01 -0.22527342127E+02 -0.73170905667E+03  0.73210795197E+03  0.00000000000E+00 0.  1.
         14    1    3    3    0    0  0.15507838264E+02  0.23167755117E+02 -0.25620062653E+03  0.25771301667E+03  0.00000000000E+00 0. -1.
         13    1    5    5    0    0  0.21374795163E+02 -0.83291797903E+01  0.89058966331E+01  0.24608374572E+02  0.00000000000E+00 0. -1.
        -14    1    5    5    0    0  0.14683320130E+02  0.65273440081E+02  0.19524549789E+03  0.20639047051E+03  0.00000000000E+00 0.  1.
          5    1    4    4  501    0 -0.87284079027E+02 -0.35282548920E+02 -0.20869241134E+03  0.22898332616E+03  0.41800000000E+01 0.  1.
         -5    1    4    4    0  501  0.44460469218E+02 -0.22302124361E+02 -0.11761077769E+03  0.12776496195E+03  0.41800000000E+01 0.  1.
</event>
<event>
11    1  0.8789692E-009  0.1535658E+03  0.7561462E-02  0.1093290E+00
         22   -1    0    0    0    0  0.00000000000E+00  0.00000000000E+00  0.93013570693E+03  0.93013570693E+03  0.00000000000E+00 0.  1.
         22   -1    0    0    0    0 -0.00000000000E+00 -0.00000000000E+00 -0.11682613229E+04  0.11682613229E+04  0.00000000000E+00 0.  1.
        -24    2    1    2    0    0 -0.98767783916E+01  0.12863551816E+02 -0.10064478060E+04  0.10099620800E+04  0.82602633752E+02 0.  0.
         25    2    1    2    0    0 -0.50820388608E+02  0.52885284905E+02 -0.12235823688E+03  0.18973341707E+03  0.12509063179E+03 0.  0.
         24    2    1    2    0    0  0.60697167000E+02 -0.65748836721E+02  0.89068042698E+03  0.89870153271E+03  0.79660317991E+02 0.  0.
        -13    1    5    5    0    0  0.21454642261E+02 -0.29495399466E+02  0.69208599876E+03  0.69304639812E+03  0.00000000000E+00 0.  1.
         14    1    5    5    0    0  0.39242524738E+02 -0.36253437255E+02  0.19859442822E+03  0.20565513459E+03  0.00000000000E+00 0. -1.
         13    1    3    3    0    0 -0.39183723380E+02  0.14109099864E+02 -0.29672768194E+03  0.29963602605E+03  0.00000000000E+00 0. -1.
        -14    1    3    3    0    0  0.29306944989E+02 -0.12455480481E+01 -0.70972012408E+03  0.71032605396E+03  0.00000000000E+00 0.  1.
          5    1    4    4  501    0 -0.65240839202E+02  0.14522020023E+02 -0.71113150567E+01  0.67344631317E+02  0.41800000000E+01 0. -1.
         -5    1    4    4    0  501  0.14420450594E+02  0.38363264882E+02 -0.11524692182E+03  0.12238878575E+03  0.41800000000E+01 0. -1.
</event>
<event>
11    1  0.8039394E-009  0.1641290E+03  0.7561462E-02  0.1083257E+00
         22   -1    0    0    0    0  0.00000000000E+00  0.00000000000E+00  0.19260678180E+04  0.19260678180E+04  0.00000000000E+00 0. -1.
         22   -1    0    0    0    0 -0.00000000000E+00 -0.00000000000E+00 -0.24639775900E+03  0.24639775900E+03  0.00000000000E+00 0.  1.
        -24    2    1    2    0    0 -0.10731776178E+03 -0.98212256355E+01 -0.21383435288E+03  0.25269286204E+03  0.80715510212E+02 0.  0.
         25    2    1    2    0    0  0.71912678302E+02 -0.35960973144E+02  0.47219166413E+03  0.49505313352E+03  0.12509201591E+03 0.  0.
         24    2    1    2    0    0  0.35405083479E+02  0.45782198779E+02  0.14213127478E+04  0.14247195815E+04  0.79664478775E+02 0.  0.
        -11    1    5    5    0    0  0.88595009877E+01 -0.21352080762E+01  0.16582545990E+02  0.18921699258E+02  0.00000000000E+00 0.  1.
         12    1    5    5    0    0  0.26545582491E+02  0.47917406856E+02  0.14047302018E+04  0.14057978822E+04  0.00000000000E+00 0. -1.
         11    1    3    3    0    0 -0.87963464183E+02 -0.78177550137E+01 -0.85590793205E+02  0.12298159296E+03  0.00000000000E+00 0. -1.
        -12    1    3    3    0    0 -0.19354297599E+02 -0.20034706218E+01 -0.12824355967E+03  0.12971126908E+03  0.00000000000E+00 0.  1.
          5    1    4    4  501    0 -0.32749113434E+01 -0.56240180246E+02  0.30977438590E+03  0.31488303460E+03  0.41800000000E+01 0.  1.
         -5    1    4    4    0  501  0.75187589646E+02  0.20279207102E+02  0.16241727823E+03  0.18017009892E+03  0.41800000000E+01 0.  1.
</event>
<event>
11    1  0.8039394E-009  0.1384308E+03  0.7561462E-02  0.1109323E+00
         22   -1    0    0    0    0  0.00000000000E+00  0.00000000000E+00  0.11331483379E+04  0.11331483379E+04  0.00000000000E+00 0. -1.
         22   -1    0    0    0    0 -0.00000000000E+00 -0.00000000000E+00 -0.46066473053E+03  0.46066473053E+03  0.00000000000E+00 0.  1.
        -24    2    1    2    0    0  0.13845945286E+02 -0.38175160987E+02 -0.41878099438E+03  0.42822904072E+03  0.79709076894E+02 0.  0.
         25    2    1    2    0    0 -0.62267423281E+02  0.27217238803E+01  0.10628573192E+03  0.17557801711E+03  0.12508534487E+03 0.  0.
         24    2    1    2    0    0  0.48421477995E+02  0.35453437107E+02  0.98497886980E+03  0.99000601056E+03  0.79542072265E+02 0.  0.
        -11    1    5    5    0    0  0.20836539448E+02  0.18433997016E+02  0.84863902064E+02  0.89307645226E+02  0.00000000000E+00 0.  1.
         12    1    5    5    0    0  0.27584938547E+02  0.17019440091E+02  0.90011496774E+03  0.90069836533E+03  0.00000000000E+00 0. -1.
         13    1    3    3    0    0  0.43705902550E+02 -0.97009392893E+01 -0.27594554853E+03  0.27955367981E+03  0.00000000000E+00 0. -1.
        -14    1    3    3    0    0 -0.29859957264E+02 -0.28474221698E+02 -0.14283544585E+03  0.14867536090E+03  0.00000000000E+00 0.  1.
          5    1    4    4  501    0  0.14040784753E+01 -0.42403251379E+02 -0.12413259896E+01  0.42649976015E+02  0.41800000000E+01 0. -1.
         -5    1    4    4    0  501 -0.63671501756E+02  0.45124975259E+02  0.10752705791E+03  0.13292804110E+03  0.41800000000E+01 0. -1.
</event>
<event>
11    1  0.8039394E-009  0.1800680E+03  0.7561462E-02  0.1069588E+00
         22   -1    0    0    0    0  0.00000000000E+00  0.00000000000E+00  0.68147350021E+03  0.68147350021E+03  0.00000000000E+00 0.  1.
         22   -1    0    0    0    0 -0.00000000000E+00 -0.00000000000E+00 -0.17986222086E+04  0.17986222086E+04  0.00000000000E+00 0.  1.
        -24    2    1    2    0    0  0.46252116684E+02 -0.84708750572E+01 -0.16091503056E+04  0.16117237185E+04  0.77959121940E+02 0.  0.
         25    2    1    2    0    0 -0.16785163641E+03 -0.29887348103E+02 -0.11662048529E+03  0.24148477020E+03  0.12508849358E+03 0.  0.
         24    2    1    2    0    0  0.12159951973E+03  0.38358223160E+02  0.60862208255E+03  0.62688722007E+03  0.79428904326E+02 0.  0.
        -11    1    5    5    0    0  0.10504764831E+03  0.52898216503E+01  0.52531567755E+03  0.53574205707E+03  0.00000000000E+00 0.  1.
         12    1    5    5    0    0  0.16551871420E+02  0.33068401510E+02  0.83306404996E+02  0.91145163005E+02  0.00000000000E+00 0. -1.
         11    1    3    3    0    0 -0.68023297957E+01 -0.16089739011E+02 -0.10176601467E+04  0.10178100636E+04  0.00000000000E+00 0. -1.
        -12    1    3    3    0    0  0.53054446479E+02  0.76188639535E+01 -0.59149015895E+03  0.59391365493E+03  0.00000000000E+00 0.  1.
          5    1    4    4  501    0 -0.75256634026E+02 -0.76705266955E+02 -0.56084001006E+02  0.12128539282E+03  0.41800000000E+01 0.  1.
         -5    1    4    4    0  501 -0.92595002382E+02  0.46817918852E+02 -0.60536484281E+02  0.12019937737E+03  0.41800000000E+01 0.  1.
</event>
<event>
11    1  0.8039394E-009  0.2008888E+03  0.7561462E-02  0.1053897E+00
         22   -1    0    0    0    0  0.00000000000E+00  0.00000000000E+00  0.86328845710E+03  0.86328845710E+03  0.00000000000E+00 0.  1.
         22   -1    0    0    0    0 -0.00000000000E+00 -0.00000000000E+00 -0.82624078678E+03  0.82624078678E+03  0.00000000000E+00 0.  1.
        -24    2    1    2    0    0 -0.15276716545E+03 -0.42305219335E+02 -0.78010862738E+03  0.80013162881E+03  0.80706966769E+02 0.  0.
         25    2    1    2    0    0  0.11964943547E+03  0.38841322663E+02  0.20480734480E+03  0.27095778500E+03  0.12508971586E+03 0.  0.
         24    2    1    2    0    0  0.33117729988E+02  0.34638966718E+01  0.61234895290E+03  0.61843983007E+03  0.79923717880E+02 0.  0.
        -11    1    5    5    0    0  0.23410157600E+02  0.37777823743E+02  0.45166693930E+03  0.45384823840E+03  0.00000000000E+00 0.  1.
         12    1    5    5    0    0  0.97075723887E+01 -0.34313927071E+02  0.16068201360E+03  0.16459159166E+03  0.00000000000E+00 0. -1.
         13    1    3    3    0    0 -0.60830561922E+02 -0.57349340570E+02 -0.41395177825E+03  0.42230957703E+03  0.00000000000E+00 0. -1.
        -14    1    3    3    0    0 -0.91936603532E+02  0.15044121235E+02 -0.36615684913E+03  0.37782205179E+03  0.00000000000E+00 0.  1.
          5    1    4    4  501    0  0.32970822964E+01  0.59001809743E+02  0.67760844953E+02  0.90006048760E+02  0.41800000000E+01 0.  1.
         -5    1    4    4    0  501  0.11635235317E+03 -0.20160487080E+02  0.13704649985E+03  0.18095173624E+03  0.41800000000E+01 0.  1.
</event>
<event>
11    1  0.8039394E-009  0.1545165E+03  0.7561462E-02  0.1092351E+00
         22   -1    0    0    0    0  0.00000000000E+00  0.00000000000E+00  0.12242657955E+04  0.12242657955E+04  0.00000000000E+00 0. -1.
         22   -1    0    0    0    0 -0.00000000000E+00 -0.00000000000E+00 -0.49393439857E+03  0.49393439857E+03  0.00000000000E+00 0.  1.
         24    2    1    2    0    0  0.51885309830E+02  0.27497664985E+02 -0.39861128771E+03  0.41565301347E+03  0.10211886193E+03 0.  0.
         25    2    1    2    0    0  0.32123776571E+02 -0.65094195233E+02 -0.20990127786E+02  0.14614126133E+03  0.12508993375E+03 0.  0.
        -24    2    1    2    0    0 -0.84009086401E+02  0.37596530248E+02  0.11499328124E+04  0.11564059192E+04  0.80362624010E+02 0.  0.
        -13    1    3    3    0    0  0.62533031075E+02  0.22127270089E+02 -0.39823510919E+03  0.40372168415E+03  0.00000000000E+00 0.  1.
         14    1    3    3    0    0 -0.10647721246E+02  0.53703948964E+01 -0.37617851289E+00  0.11931329320E+02  0.00000000000E+00 0. -1.
         11    1    5    5    0    0 -0.43972674978E+02 -0.11250491771E+02  0.76331531841E+03  0.76466361561E+03  0.00000000000E+00 0. -1.
        -12    1    5    5    0    0 -0.40036411423E+02  0.48847022019E+02  0.38661749399E+03  0.39174230364E+03  0.00000000000E+00 0.  1.
          5    1    4    4  501    0 -0.45830473990E+02 -0.55223942948E+01 -0.89410164576E+01  0.47205331905E+02  0.41800000000E+01 0. -1.
         -5    1    4    4    0  501  0.77954250561E+02 -0.59571800939E+02 -0.12049111329E+02  0.98935929426E+02  0.41800000000E+01 0. -1.
</event>
<event>
11    1  0.8039394E-009  0.1282892E+03  0.7561462E-02  0.1121389E+00
         22   -1    0    0    0    0  0.00000000000E+00  0.00000000000E+00  0.35958987253E+04  0.35958987253E+04  0.00000000000E+00 0. -1.
         22   -1    0    0    0    0 -0.00000000000E+00 -0.00000000000E+00 -0.32138029806E+02  0.32138029806E+02  0.00000000000E+00 0. -1.
         24    2    1    2    0    0 -0.26655002517E+02  0.10539278278E+02  0.75221905513E+02  0.11520679255E+03  0.82417864776E+02 0.  0.
         25    2    1    2    0    0  0.32941484352E+02  0.14620872895E+02  0.35272889834E+03  0.37598497830E+03  0.12509243331E+03 0.  0.
        -24    2    1    2    0    0 -0.62864818344E+01 -0.25160151173E+02  0.31358098917E+04  0.31368449843E+04  0.76290403440E+02 0.  0.
        -13    1    3    3    0    0  0.12931802047E+02  0.22970709406E+02  0.68208856533E+02  0.73125461396E+02  0.00000000000E+00 0.  1.
         14    1    3    3    0    0 -0.39586804565E+02 -0.12431431129E+02  0.70130489807E+01  0.42081331152E+02  0.00000000000E+00 0. -1.
         11    1    5    5    0    0  0.13163136609E+02 -0.48450070951E+02  0.19140190094E+04  0.19146773738E+04  0.00000000000E+00 0. -1.
        -12    1    5    5    0    0 -0.19449618444E+02  0.23289919779E+02  0.12217908823E+04  0.12221676105E+04  0.00000000000E+00 0.  1.
          5    1    4    4  501    0  0.20050823461E+02 -0.34988156470E+02  0.33362734394E+02  0.52504771792E+02  0.41800000000E+01 0.  1.
         -5    1    4    4    0  501  0.12890660890E+02  0.49609029365E+02  0.31936616394E+03  0.32348020651E+03  0.41800000000E+01 0.  1.
</event>
<event>
11    1  0.8039394E-009  0.2591692E+03  0.7561462E-02  0.1019125E+00
         22   -1    0    0    0    0  0.00000000000E+00  0.00000000000E+00  0.87505402076E+03  0.87505402076E+03  0.00000000000E+00 0. -1.
         22   -1    0    0    0    0 -0.00000000000E+00 -0.00000000000E+00 -0.55524702931E+03  0.55524702931E+03  0.00000000000E+00 0.  1.
         24    2    1    2    0    0  0.16143274102E+02  0.78133023335E+02 -0.32485123193E+03  0.34399141805E+03  0.80227166032E+02 0.  0.
         25    2    1    2    0    0 -0.20987046212E+03 -0.18751231066E+03 -0.84744331397E+02  0.31943033952E+03  0.12509061748E+03 0.  0.
        -24    2    1    2    0    0  0.19372718802E+03  0.10937928732E+03  0.72940255479E+03  0.76687929250E+03  0.81127741624E+02 0.  0.
        -11    1    3    3    0    0  0.21162942945E+02  0.71823886528E+02 -0.13832182542E+03  0.15728785146E+03  0.00000000000E+00 0.  1.
         12    1    3    3    0    0 -0.50196688427E+01  0.63091368066E+01 -0.18652940651E+03  0.18670356659E+03  0.00000000000E+00 0. -1.
         11    1    5    5    0    0  0.14328453727E+03  0.79362445801E+02  0.63441618212E+03  0.65521961857E+03  0.00000000000E+00 0. -1.
        -12    1    5    5    0    0  0.50442650747E+02  0.30016841521E+02  0.94986372669E+02  0.11165967393E+03  0.00000000000E+00 0.  1.
          5    1    4    4  501    0 -0.24544640420E+02 -0.68903460038E+02  0.19651230704E+02  0.75853605364E+02  0.41800000000E+01 0. -1.
         -5    1    4    4    0  501 -0.18532582170E+03 -0.11860885062E+03 -0.10439556210E+03  0.24357673415E+03  0.41800000000E+01 0. -1.
</event>
<event>
11    1  0.8039394E-009  0.1545668E+03  0.7561462E-02  0.1092302E+00
         22   -1    0    0    0    0  0.00000000000E+00  0.00000000000E+00  0.96122498787E+03  0.96122498787E+03  0.00000000000E+00 0. -1.
         22   -1    0    0    0    0 -0.00000000000E+00 -0.00000000000E+00 -0.42463445185E+03  0.42463445185E+03  0.00000000000E+00 0. -1.
         24    2    1    2    0    0  0.30068800465E+02  0.34202291494E+01 -0.35771356681E+03  0.36812730098E+03  0.81503884081E+02 0.  0.
         25    2    1    2    0    0  0.61656915443E+02 -0.17685006868E+02  0.28625575693E+02  0.14345879785E+03  0.12508664360E+03 0.  0.
        -24    2    1    2    0    0 -0.91725715907E+02  0.14264777719E+02  0.86567852713E+03  0.87427334089E+03  0.79608237150E+02 0.  0.
        -13    1    3    3    0    0  0.16677935517E+02 -0.57504330408E+01 -0.10490047893E+02  0.20524670961E+02  0.00000000000E+00 0.  1.
         14    1    3    3    0    0  0.13390864947E+02  0.91706621901E+01 -0.34722351891E+03  0.34760263002E+03  0.00000000000E+00 0. -1.
         13    1    5    5    0    0 -0.90895346392E+02  0.36133005911E+02  0.62573456450E+03  0.63333348508E+03  0.00000000000E+00 0. -1.
        -14    1    5    5    0    0 -0.83036951557E+00 -0.21868228192E+02  0.23994396262E+03  0.24093985581E+03  0.00000000000E+00 0.  1.
          5    1    4    4  501    0  0.94689740108E+02  0.11844960789E+02  0.25393487397E+02  0.98836994997E+02  0.41800000000E+01 0. -1.
         -5    1    4    4    0  501 -0.33032824666E+02 -0.29529967657E+02  0.32320882958E+01  0.44621802854E+02  0.41800000000E+01 0. -1.
</event>
<event>
11    1  0.8039394E-009  0.1404084E+03  0.7561462E-02  0.1107103E+00
         22   -1    0    0    0    0  0.00000000000E+00  0.00000000000E+00  0.11342531379E+04  0.11342531379E+04  0.00000000000E+00 0. -1.
         22   -1    0    0    0    0 -0.00000000000E+00 -0.00000000000E+00 -0.12921751173E+03  0.12921751173E+03  0.00000000000E+00 0.  1.
         24    2    1    2    0    0  0.20869469446E+02 -0.31476382406E+02 -0.72990433421E+02  0.11974777432E+03  0.87095514691E+02 0.  0.
         25    2    1    2    0    0  0.13012107522E+02  0.83843545014E+02  0.16070033236E+03  0.22061546167E+03  0.12509008804E+03 0.  0.
        -24    2    1    2    0    0 -0.33881576968E+02 -0.52367162608E+02  0.91732572719E+03  0.92310741359E+03  0.82161586429E+02 0.  0.
        -13    1    3    3    0    0  0.13271656389E+02  0.16254385767E+01 -0.83212756286E+02  0.84280138364E+02  0.00000000000E+00 0.  1.
         14    1    3    3    0    0  0.75978130564E+01 -0.33101820983E+02  0.10222322865E+02  0.35467635957E+02  0.00000000000E+00 0. -1.
         11    1    5    5    0    0 -0.58215110365E+02 -0.18986830349E+02  0.59602481808E+03  0.59916198359E+03  0.00000000000E+00 0. -1.
        -12    1    5    5    0    0  0.24333533398E+02 -0.33380332260E+02  0.32130090910E+03  0.32394543000E+03  0.00000000000E+00 0.  1.
          5    1    4    4  501    0  0.18128119150E+02  0.85580276955E+02  0.34340319736E+02  0.94070943799E+02  0.41800000000E+01 0. -1.
         -5    1    4    4    0  501 -0.51160116277E+01 -0.17367319410E+01  0.12636001263E+03  0.12654451787E+03  0.41800000000E+01 0. -1.
</event>
<event>
11    1  0.8039394E-009  0.1690556E+03  0.7561462E-02  0.1078856E+00
         22   -1    0    0    0    0  0.00000000000E+00  0.00000000000E+00  0.58426143917E+03  0.58426143917E+03  0.00000000000E+00 0.  1.
         22   -1    0    0    0    0 -0.00000000000E+00 -0.00000000000E+00 -0.79438183322E+03  0.79438183322E+03  0.00000000000E+00 0. -1.
        -24    2    1    2    0    0  0.11273473385E+03  0.57283775855E+01 -0.72391395004E+03  0.73699204110E+03  0.79774225513E+02 0.  0.
         25    2    1    2    0    0 -0.13135415655E+03 -0.24197549920E+01  0.76941884669E+02  0.19704674979E+03  0.12509036066E+03 0.  0.
         24    2    1    2    0    0  0.18619422702E+02 -0.33086225935E+01  0.43685167132E+03  0.44460448149E+03  0.80474420436E+02 0.  0.
        -13    1    5    5    0    0  0.43301239349E+02  0.19591309838E+01  0.37921815942E+03  0.38168736940E+03  0.00000000000E+00 0.  1.
         14    1    5    5    0    0 -0.24681816647E+02 -0.52677535773E+01  0.57633511901E+02  0.62917112098E+02  0.00000000000E+00 0. -1.
         13    1    3    3    0    0  0.11154408234E+03  0.18387307557E+02 -0.70617659272E+03  0.71516820084E+03  0.00000000000E+00 0. -1.
        -14    1    3    3    0    0  0.11906515017E+01 -0.12658929971E+02 -0.17737357319E+02  0.21823840259E+02  0.00000000000E+00 0.  1.
          5    1    4    4  501    0  0.23523413725E+01 -0.30999305200E+02 -0.12328450547E+02  0.33703909650E+02  0.41800000000E+01 0.  1.
         -5    1    4    4    0  501 -0.13370649792E+03  0.28579550208E+02  0.89270335216E+02  0.16334284014E+03  0.41800000000E+01 0.  1.
</event>
<event>
11    1  0.8039394E-009  0.1350814E+03  0.7561462E-02  0.1113179E+00
         22   -1    0    0    0    0  0.00000000000E+00  0.00000000000E+00  0.37330772793E+03  0.37330772793E+03  0.00000000000E+00 0. -1.
         22   -1    0    0    0    0 -0.00000000000E+00 -0.00000000000E+00 -0.42857101165E+03  0.42857101165E+03  0.00000000000E+00 0.  1.
         24    2    1    2    0    0  0.53938395771E+02 -0.17189963517E+01 -0.32415136647E+03  0.33811498435E+03  0.79594778552E+02 0.  0.
         25    2    1    2    0    0 -0.31547185096E+02  0.48493105230E+01 -0.46981228883E+02  0.13738000989E+03  0.12508913042E+03 0.  0.
        -24    2    1    2    0    0 -0.22391210675E+02 -0.31303141713E+01  0.31586931163E+03  0.32638374533E+03  0.79004822656E+02 0.  0.
        -13    1    3    3    0    0  0.70858561190E+02  0.30570368418E+01 -0.29983050267E+03  0.30810487094E+03  0.00000000000E+00 0.  1.
         14    1    3    3    0    0 -0.16920165419E+02 -0.47760331935E+01 -0.24320863804E+02  0.30010113413E+02  0.00000000000E+00 0. -1.
         13    1    5    5    0    0 -0.40786532958E+02  0.16954967018E+02  0.10718273591E+03  0.11592735248E+03  0.00000000000E+00 0. -1.
        -14    1    5    5    0    0  0.18395322284E+02 -0.20085281189E+02  0.20868657573E+03  0.21045639285E+03  0.00000000000E+00 0.  1.
          5    1    4    4  501    0  0.83890309340E+01 -0.52724895432E+02 -0.39997238825E+02  0.66839673488E+02  0.41800000000E+01 0.  1.
         -5    1    4    4    0  501 -0.39936216030E+02  0.57574205955E+02 -0.69839900586E+01  0.70540336399E+02  0.41800000000E+01 0.  1.
</event>
<event>
11    1  0.8039394E-009  0.1849798E+03  0.7561462E-02  0.1065684E+00
         22   -1    0    0    0    0  0.00000000000E+00  0.00000000000E+00  0.83280558648E+03  0.83280558648E+03  0.00000000000E+00 0.  1.
         22   -1    0    0    0    0 -0.00000000000E+00 -0.00000000000E+00 -0.22922313189E+03  0.22922313189E+03  0.00000000000E+00 0. -1.
         24    2    1    2    0    0 -0.73873789809E+02  0.60052691867E+02 -0.16501952436E+03  0.20561080674E+03  0.77334971435E+02 0.  0.
         25    2    1    2    0    0  0.18824730016E+03 -0.35399841147E+02  0.39109948331E+03  0.45309613256E+03  0.12508838764E+03 0.  0.
        -24    2    1    2    0    0 -0.11437351035E+03 -0.24652850720E+02  0.37750249564E+03  0.40332177907E+03  0.80444144237E+02 0.  0.
        -13    1    3    3    0    0 -0.12295157814E+02 -0.41839283517E+01 -0.84850660409E+02  0.85838864939E+02  0.00000000000E+00 0.  1.
         14    1    3    3    0    0 -0.61578631995E+02  0.64236620218E+02 -0.80168863950E+02  0.11977194180E+03  0.00000000000E+00 0. -1.
         11    1    5    5    0    0 -0.65982100067E+02 -0.52257763826E+02  0.19211841476E+03  0.20974745934E+03  0.00000000000E+00 0. -1.
        -12    1    5    5    0    0 -0.48391410282E+02  0.27604913106E+02  0.18538408088E+03  0.19357431974E+03  0.00000000000E+00 0.  1.
          5    1    4    4  501    0  0.52266584742E+02  0.45849084104E+02  0.13572130716E+03  0.15255058181E+03  0.41800000000E+01 0.  1.
         -5    1    4    4    0  501  0.13598071542E+03 -0.81248925251E+02  0.25537817615E+03  0.30054555075E+03  0.41800000000E+01 0.  1.
</event>
<event>
11    1  0.8039394E-009  0.2306688E+03  0.7561462E-02  0.1034733E+00
         22   -1    0    0    0    0  0.00000000000E+00  0.00000000000E+00  0.14556104545E+04  0.14556104545E+04  0.00000000000E+00 0.  1.
         22   -1    0    0    0    0 -0.00000000000E+00 -0.00000000000E+00 -0.50122722964E+03  0.50122722964E+03  0.00000000000E+00 0. -1.
         24    2    1    2    0    0 -0.18844708805E+03 -0.44804802745E+02 -0.42678035948E+03  0.47685453290E+03  0.87914702786E+02 0.  0.
         25    2    1    2    0    0  0.19577301575E+03  0.19391490710E+02  0.23831503293E+03  0.33337965804E+03  0.12507932631E+03 0.  0.
        -24    2    1    2    0    0 -0.73259276959E+01  0.25413312035E+02  0.11428485514E+04  0.11466034932E+04  0.88866492644E+02 0.  0.
        -11    1    3    3    0    0 -0.79132910503E+02 -0.63810130124E+02 -0.19645887059E+03  0.22120089978E+03  0.00000000000E+00 0.  1.
         12    1    3    3    0    0 -0.10931417755E+03  0.19005327379E+02 -0.23032148889E+03  0.25565363312E+03  0.00000000000E+00 0. -1.
         13    1    5    5    0    0  0.10514093824E+02  0.13315383944E+02  0.38831858780E+02  0.42376395255E+02  0.00000000000E+00 0. -1.
        -14    1    5    5    0    0 -0.17840021519E+02  0.12097928091E+02  0.11040166926E+04  0.11042270979E+04  0.00000000000E+00 0.  1.
          5    1    4    4  501    0  0.13543198552E+03 -0.45890749721E+02  0.13111853568E+03  0.19405495719E+03  0.41800000000E+01 0. -1.
         -5    1    4    4    0  501  0.60341030230E+02  0.65282240430E+02  0.10719649725E+03  0.13932470085E+03  0.41800000000E+01 0. -1.
</event>
<event>
11    1  0.8039394E-009  0.1397944E+03  0.7561462E-02  0.1107788E+00
         22   -1    0    0    0    0  0.00000000000E+00  0.00000000000E+00  0.21893046811E+04  0.21893046811E+04  0.00000000000E+00 0.  1.
         22   -1    0    0    0    0 -0.00000000000E+00 -0.00000000000E+00 -0.38623749685E+03  0.38623749685E+03  0.00000000000E+00 0. -1.
         24    2    1    2    0    0 -0.47590832784E+02  0.40461616272E+02 -0.32520486478E+03  0.34078631864E+03  0.80467888885E+02 0.  0.
         25    2    1    2    0    0  0.58342883715E+02 -0.26343424264E+02  0.41707360616E+02  0.14657793315E+03  0.12509084089E+03 0.  0.
        -24    2    1    2    0    0 -0.10752050931E+02 -0.14118192008E+02  0.20865646884E+04  0.20881779262E+04  0.80124418323E+02 0.  0.
        -13    1    3    3    0    0 -0.60604797017E+02  0.24123064437E+02 -0.14049377816E+03  0.15489791916E+03  0.00000000000E+00 0.  1.
         14    1    3    3    0    0  0.13013964233E+02  0.16338551835E+02 -0.18471108662E+03  0.18588839948E+03  0.00000000000E+00 0. -1.
         11    1    5    5    0    0 -0.26116925206E+02 -0.41079776754E+02  0.10186696529E+04  0.10198320957E+04  0.00000000000E+00 0. -1.
        -12    1    5    5    0    0  0.15364874275E+02  0.26961584746E+02  0.10678950356E+04  0.10683458304E+04  0.00000000000E+00 0.  1.
          5    1    4    4  501    0  0.96175534851E+02 -0.11435107743E+02  0.42118829064E+02  0.10569750874E+03  0.41800000000E+01 0. -1.
         -5    1    4    4    0  501 -0.37832651137E+02 -0.14908316520E+02 -0.41146844806E+00  0.40880424408E+02  0.41800000000E+01 0. -1.
</event>
<event>
11    1  0.8039394E-009  0.1471420E+03  0.7561462E-02  0.1099835E+00
         22   -1    0    0    0    0  0.00000000000E+00  0.00000000000E+00  0.31973813411E+03  0.31973813411E+03  0.00000000000E+00 0.  1.
         22   -1    0    0    0    0 -0.00000000000E+00 -0.00000000000E+00 -0.45844155973E+03  0.45844155973E+03  0.00000000000E+00 0.  1.
        -24    2    1    2    0    0 -0.60933849129E+01  0.40576489702E+01 -0.37700729014E+03  0.38509750228E+03  0.78179252916E+02 0.  0.
         25    2    1    2    0    0 -0.58768166991E+02  0.40614035178E+02  0.17337854685E+02  0.14509187208E+03  0.12509137794E+03 0.  0.
         24    2    1    2    0    0  0.64861551904E+02 -0.44671684148E+02  0.22096600984E+03  0.24799031948E+03  0.80440293208E+02 0.  0.
        -13    1    5    5    0    0  0.67507579208E+02 -0.63783233653E+02  0.17445575957E+03  0.19763700614E+03  0.00000000000E+00 0.  1.
         14    1    5    5    0    0 -0.26460273041E+01  0.19111549505E+02  0.46510250261E+02  0.50353313340E+02  0.00000000000E+00 0. -1.
         13    1    3    3    0    0 -0.10957239072E+02  0.17980059512E+02 -0.24595143210E+02  0.32376916124E+02  0.00000000000E+00 0. -1.
        -14    1    3    3    0    0  0.48638541593E+01 -0.13922410542E+02 -0.35241214693E+03  0.35272058616E+03  0.00000000000E+00 0.  1.
          5    1    4    4  501    0  0.38059859212E+02  0.16203948383E+02 -0.71599263530E+01  0.42188360620E+02  0.41800000000E+01 0. -1.
         -5    1    4    4    0  501 -0.96828026203E+02  0.24410086795E+02  0.24497781038E+02  0.10290351146E+03  0.41800000000E+01 0. -1.
</event>
<event>
11    1  0.8039394E-009  0.1986327E+03  0.7561462E-02  0.1055495E+00
         22   -1    0    0    0    0  0.00000000000E+00  0.00000000000E+00  0.73628137012E+03  0.73628137012E+03  0.00000000000E+00 0. -1.
         22   -1    0    0    0    0 -0.00000000000E+00 -0.00000000000E+00 -0.96577052256E+03  0.96577052256E+03  0.00000000000E+00 0. -1.
         24    2    1    2    0    0 -0.13788021036E+03 -0.11439584280E+02 -0.59001259492E+03  0.61127848434E+03  0.80029411812E+02 0.  0.
         25    2    1    2    0    0  0.21975501665E+03  0.78769329758E+02 -0.30945868541E+03  0.40732204719E+03  0.12509875100E+03 0.  0.
        -24    2    1    2    0    0 -0.81874806284E+02 -0.67329745477E+02  0.66998212789E+03  0.68345136114E+03  0.83623757505E+02 0.  0.
        -11    1    3    3    0    0 -0.67358293172E+02 -0.11190356695E+02 -0.13989071672E+03  0.15566559146E+03  0.00000000000E+00 0.  1.
         12    1    3    3    0    0 -0.70521917191E+02 -0.24922758493E+00 -0.45012187821E+03  0.45561289288E+03  0.00000000000E+00 0. -1.
         13    1    5    5    0    0 -0.13208333285E+02 -0.56807283904E+02  0.41874312365E+03  0.42278520690E+03  0.00000000000E+00 0. -1.
        -14    1    5    5    0    0 -0.68666472999E+02 -0.10522461573E+02  0.25123900424E+03  0.26066615424E+03  0.00000000000E+00 0.  1.
          5    1    4    4  501    0  0.14922937440E+03 -0.11372254658E+02 -0.18885254011E+03  0.24100101383E+03  0.41800000000E+01 0. -1.
         -5    1    4    4    0  501  0.70525642248E+02  0.90141584415E+02 -0.12060614530E+03  0.16632103336E+03  0.41800000000E+01 0. -1.
</event>
<event>
11    1  0.8039394E-009  0.1495128E+03  0.7561462E-02  0.1097378E+00
         22   -1    0    0    0    0  0.00000000000E+00  0.00000000000E+00  0.61339591897E+03  0.61339591897E+03  0.00000000000E+00 0. -1.
         22   -1    0    0    0    0 -0.00000000000E+00 -0.00000000000E+00 -0.56862530078E+03  0.56862530078E+03  0.00000000000E+00 0.  1.
        -24    2    1    2    0    0  0.28252387507E+02 -0.39678715700E+02 -0.52791138727E+03  0.53652546177E+03  0.82441133218E+02 0.  0.
         25    2    1    2    0    0  0.42358609041E+02 -0.19789125762E+02  0.12904069626E+03  0.18570005056E+03  0.12508855354E+03 0.  0.
         24    2    1    2    0    0 -0.70610996547E+02  0.59467841462E+02  0.44364130920E+03  0.45979570742E+03  0.77923965039E+02 0.  0.
        -13    1    5    5    0    0 -0.30178722553E+01  0.81058715242E+01  0.57367166529E+00  0.86684373041E+01  0.00000000000E+00 0.  1.
         14    1    5    5    0    0 -0.67593124292E+02  0.51361969938E+02  0.44306763754E+03  0.45112727012E+03  0.00000000000E+00 0. -1.
         13    1    3    3    0    0  0.26351206654E+02 -0.52124502349E+02 -0.19952954656E+03  0.20790235638E+03  0.00000000000E+00 0. -1.
        -14    1    3    3    0    0  0.19011808526E+01  0.12445786649E+02 -0.32838184070E+03  0.32862310539E+03  0.00000000000E+00 0.  1.
          5    1    4    4  501    0  0.21448955651E+02  0.52792545782E+02  0.45864489893E+02  0.73267553676E+02  0.41800000000E+01 0.  1.
         -5    1    4    4    0  501  0.20909653390E+02 -0.72581671544E+02  0.83176206367E+02  0.11243249688E+03  0.41800000000E+01 0.  1.
</event>
<event>
11    1  0.8039394E-009  0.1323797E+03  0.7561462E-02  0.1116379E+00
         22   -1    0    0    0    0  0.00000000000E+00  0.00000000000E+00  0.23364983952E+03  0.23364983952E+03  0.00000000000E+00 0.  1.
         22   -1    0    0    0    0 -0.00000000000E+00 -0.00000000000E+00 -0.35005878422E+03  0.35005878422E+03  0.00000000000E+00 0. -1.
        -24    2    1    2    0    0 -0.20562824484E+02  0.38414481872E+02 -0.22801435926E+03  0.24588951786E+03  0.81071602893E+02 0.  0.
         25    2    1    2    0    0 -0.24431835900E+02 -0.28112779602E+02 -0.59244947625E+02  0.14333946157E+03  0.12509594095E+03 0.  0.
         24    2    1    2    0    0  0.44994660383E+02 -0.10301702270E+02  0.17085036218E+03  0.19447964431E+03  0.80633995677E+02 0.  0.
        -11    1    5    5    0    0  0.46020301427E+02 -0.26635874797E+02  0.16996620214E+03  0.17808943776E+03  0.00000000000E+00 0.  1.
         12    1    5    5    0    0 -0.10256410438E+01  0.16334172527E+02  0.88416003706E+00  0.16390206547E+02  0.00000000000E+00 0. -1.
         11    1    3    3    0    0  0.15409387733E+02  0.13188136971E+02 -0.17867836792E+03  0.17982584728E+03  0.00000000000E+00 0. -1.
        -12    1    3    3    0    0 -0.35972212217E+02  0.25226344902E+02 -0.49335991338E+02  0.66063670577E+02  0.00000000000E+00 0.  1.
          5    1    4    4  501    0  0.38630589755E+02  0.16215013608E+02  0.56612302400E+01  0.42482597131E+02  0.41800000000E+01 0. -1.
         -5    1    4    4    0  501 -0.63062425655E+02 -0.44327793210E+02 -0.64906177865E+02  0.10085686444E+03  0.41800000000E+01 0. -1.
</event>
<event>
11    1  0.8039394E-009  0.1452180E+03  0.7561462E-02  0.1101868E+00
         22   -1    0    0    0    0  0.00000000000E+00  0.00000000000E+00  0.94776491936E+03  0.94776491936E+03  0.00000000000E+00 0. -1.
         22   -1    0    0    0    0 -0.00000000000E+00 -0.00000000000E+00 -0.24017340128E+03  0.24017340128E+03  0.00000000000E+00 0.  1.
         24    2    1    2    0    0  0.34446805121E+02  0.64498831465E+02 -0.19555927502E+03  0.22319601929E+03  0.78907232480E+02 0.  0.
         25    2    1    2    0    0 -0.16211425248E+01 -0.93585176781E+02  0.19111046691E+03  0.24684075109E+03  0.12508530058E+03 0.  0.
        -24    2    1    2    0    0 -0.32825662597E+02  0.29086345317E+02  0.71204032619E+03  0.71790155026E+03  0.80359630032E+02 0.  0.
        -13    1    3    3    0    0  0.58167381232E+02  0.36813590486E+02 -0.14839302631E+03  0.16358231854E+03  0.00000000000E+00 0.  1.
         14    1    3    3    0    0 -0.23720576111E+02  0.27685240979E+02 -0.47166248714E+02  0.59613700748E+02  0.00000000000E+00 0. -1.
         11    1    5    5    0    0 -0.34196393255E+02  0.53652247508E+02  0.41558615011E+03  0.42042812125E+03  0.00000000000E+00 0. -1.
        -12    1    5    5    0    0  0.13707306585E+01 -0.24565902191E+02  0.29645417608E+03  0.29747342901E+03  0.00000000000E+00 0.  1.
          5    1    4    4  501    0  0.10396257887E+02  0.29611562106E+02  0.48948313721E+02  0.58295253705E+02  0.41800000000E+01 0.  1.
         -5    1    4    4    0  501 -0.12017400412E+02 -0.12319673889E+03  0.14216215319E+03  0.18854549739E+03  0.41800000000E+01 0.  1.
</event>
<event>
11    1  0.8039394E-009  0.6859201E+03  0.7561462E-02  0.9053315E-01
         22   -1    0    0    0    0  0.00000000000E+00  0.00000000000E+00  0.78332152524E+03  0.78332152524E+03  0.00000000000E+00 0. -1.
         22   -1    0    0    0    0 -0.00000000000E+00 -0.00000000000E+00 -0.27648008851E+04  0.27648008851E+04  0.00000000000E+00 0. -1.
         24    2    1    2    0    0  0.30040805415E+03 -0.61275094720E+03 -0.25141332028E+04  0.26064142853E+04  0.82588998429E+02 0.  0.
         25    2    1    2    0    0 -0.22900935512E+03  0.54505613292E+03  0.29602776515E+03  0.67291350287E+03  0.12509465153E+03 0.  0.
        -24    2    1    2    0    0 -0.71398699025E+02  0.67694814279E+02  0.23662607779E+03  0.26879462222E+03  0.81106634363E+02 0.  0.
        -13    1    3    3    0    0 -0.28189506830E+01 -0.21134845479E+02 -0.54494020526E+02  0.58516890292E+02  0.00000000000E+00 0.  1.
         14    1    3    3    0    0  0.30322700483E+03 -0.59161610172E+03 -0.24596391823E+04  0.25478973950E+04  0.00000000000E+00 0. -1.
         11    1    5    5    0    0 -0.69543737697E+02  0.35088212742E+02  0.92093765328E+02  0.12061830598E+03  0.00000000000E+00 0. -1.
        -12    1    5    5    0    0 -0.18549613276E+01  0.32606601537E+02  0.14453231247E+03  0.14817631623E+03  0.00000000000E+00 0.  1.
          5    1    4    4  501    0 -0.15794082970E+03  0.43690253992E+03  0.27999733534E+03  0.54244365170E+03  0.41800000000E+01 0. -1.
         -5    1    4    4    0  501 -0.71068525422E+02  0.10815359300E+03  0.16030429808E+02  0.13046985117E+03  0.41800000000E+01 0. -1.
</event>
<event>
11    1  0.8039394E-009  0.1468551E+03  0.7561462E-02  0.1100136E+00
         22   -1    0    0    0    0  0.00000000000E+00  0.00000000000E+00  0.93127314727E+03  0.93127314727E+03  0.00000000000E+00 0. -1.
         22   -1    0    0    0    0 -0.00000000000E+00 -0.00000000000E+00 -0.16320120991E+03  0.16320120991E+03  0.00000000000E+00 0. -1.
         24    2    1    2    0    0  0.35667620940E+02 -0.67972977583E+02 -0.11848663573E+03  0.16290747225E+03  0.81285034314E+02 0.  0.
         25    2    1    2    0    0 -0.16468005017E+02  0.81475299248E+02  0.26326106948E+03  0.30307244627E+03  0.12504838026E+03 0.  0.
        -24    2    1    2    0    0 -0.19199615924E+02 -0.13502321665E+02  0.62329750361E+03  0.62849443867E+03  0.77165688576E+02 0.  0.
        -13    1    3    3    0    0  0.38478967232E+02 -0.14252327411E+02 -0.96373771462E+02  0.10474570913E+03  0.00000000000E+00 0.  1.
         14    1    3    3    0    0 -0.28113462918E+01 -0.53720650172E+02 -0.22112864268E+02  0.58161763118E+02  0.00000000000E+00 0. -1.
         13    1    5    5    0    0  0.16427108456E+02 -0.44954632721E+01  0.48794723751E+03  0.48824437086E+03  0.00000000000E+00 0. -1.
        -14    1    5    5    0    0 -0.35626724380E+02 -0.90068583927E+01  0.13535026610E+03  0.14025006781E+03  0.00000000000E+00 0.  1.
          5    1    4    4  501    0  0.20734368999E+02  0.37126060915E+02  0.23438573346E+03  0.23824861575E+03  0.41800000000E+01 0.  1.
         -5    1    4    4    0  501 -0.37202374015E+02  0.44349238333E+02  0.28875336027E+02  0.64823830523E+02  0.41800000000E+01 0.  1.
</event>
<event>
11    1  0.8039394E-009  0.1406858E+03  0.7561462E-02  0.1106795E+00
         22   -1    0    0    0    0  0.00000000000E+00  0.00000000000E+00  0.13763842206E+03  0.13763842206E+03  0.00000000000E+00 0. -1.
         22   -1    0    0    0    0 -0.00000000000E+00 -0.00000000000E+00 -0.23115386636E+03  0.23115386636E+03  0.00000000000E+00 0.  1.
        -24    2    1    2    0    0  0.59082184371E+02 -0.48812034584E+02 -0.46002536731E+02  0.12144956735E+03  0.82221924044E+02 0.  0.
         25    2    1    2    0    0 -0.63445929030E+02 -0.82838216671E+01 -0.18479071094E+02  0.14171578163E+03  0.12509148285E+03 0.  0.
         24    2    1    2    0    0  0.43637446588E+01  0.57095856251E+02 -0.29033836479E+02  0.10562693944E+03  0.83875548323E+02 0.  0.
        -11    1    5    5    0    0 -0.14882418246E+02 -0.16977899546E+02 -0.16754426249E+02  0.28114875863E+02  0.00000000000E+00 0.  1.
         12    1    5    5    0    0  0.19246162905E+02  0.74073755798E+02 -0.12279410230E+02  0.77512063578E+02  0.00000000000E+00 0. -1.
         13    1    3    3    0    0 -0.30869524728E+01  0.73397835897E+01  0.15566181866E+02  0.17484499323E+02  0.00000000000E+00 0. -1.
        -14    1    3    3    0    0  0.62169136844E+02 -0.56151818174E+02 -0.61568718597E+02  0.10396506803E+03  0.00000000000E+00 0.  1.
          5    1    4    4  501    0 -0.29208810654E+02  0.17721822357E+02 -0.67870827590E+02  0.76099535119E+02  0.41800000000E+01 0.  1.
         -5    1    4    4    0  501 -0.34237118376E+02 -0.26005644024E+02  0.49391756497E+02  0.65616246507E+02  0.41800000000E+01 0.  1.
</event>
<event>
11    1  0.8399432E-009  0.2043688E+03  0.7561462E-02  0.1051477E+00
         22   -1    0    0    0    0  0.00000000000E+00  0.00000000000E+00  0.30336531724E+03  0.30336531724E+03  0.00000000000E+00 0.  1.
         22   -1    0    0    0    0 -0.00000000000E+00 -0.00000000000E+00 -0.18019689982E+04  0.18019689982E+04  0.00000000000E+00 0.  1.
        -24    2    1    2    0    0 -0.16078212914E+02 -0.40632408073E+02 -0.84067043516E+03  0.84570666270E+03  0.81138629954E+02 0.  0.
         25    2    1    2    0    0 -0.14570548758E+03  0.29521457252E+02 -0.92040823292E+03  0.94069136003E+03  0.12508922437E+03 0.  0.
         24    2    1    2    0    0  0.16178370050E+03  0.11110950821E+02  0.26247498716E+03  0.31893629268E+03  0.80807307398E+02 0.  0.
        -11    1    5    5    0    0  0.14902831126E+03  0.48342654597E+01  0.17322009496E+03  0.22855635843E+03  0.00000000000E+00 0.  1.
         12    1    5    5    0    0  0.12755389235E+02  0.62766853614E+01  0.89254892198E+02  0.90379934250E+02  0.00000000000E+00 0. -1.
         11    1    3    3    0    0 -0.34471288202E+02 -0.16823150490E+02 -0.16633457041E+03  0.17069996314E+03  0.00000000000E+00 0. -1.
        -12    1    3    3    0    0  0.18393075288E+02 -0.23809257584E+02 -0.67433586475E+03  0.67500669956E+03  0.00000000000E+00 0.  1.
          5    1    4    4  501    0 -0.34457360709E+02 -0.14130711296E+02 -0.52047021612E+02  0.64135415859E+02  0.41800000000E+01 0. -1.
         -5    1    4    4    0  501 -0.11124812687E+03  0.43652168549E+02 -0.86836121131E+03  0.87655594417E+03  0.41800000000E+01 0. -1.
</event>
<event>
11    1  0.8039394E-009  0.2306356E+03  0.7561462E-02  0.1034752E+00
         22   -1    0    0    0    0  0.00000000000E+00  0.00000000000E+00  0.14036018461E+03  0.14036018461E+03  0.00000000000E+00 0.  1.
         22   -1    0    0    0    0 -0.00000000000E+00 -0.00000000000E+00 -0.16259547164E+04  0.16259547164E+04  0.00000000000E+00 0.  1.
         24    2    1    2    0    0 -0.18763041718E+03  0.72520526003E+02 -0.13385552864E+04  0.13560146897E+04  0.81124496621E+02 0.  0.
         25    2    1    2    0    0  0.14251808463E+03 -0.73621457433E+02 -0.21607284623E+03  0.29675925965E+03  0.12508820834E+03 0.  0.
        -24    2    1    2    0    0  0.45112332544E+02  0.11009314294E+01  0.69033600849E+02  0.11354095160E+03  0.78035729289E+02 0.  0.
        -13    1    3    3    0    0 -0.15082664208E+03  0.26357516513E+02 -0.10803413516E+04  0.10911374023E+04  0.00000000000E+00 0.  1.
         14    1    3    3    0    0 -0.36803775094E+02  0.46163009490E+02 -0.25821393473E+03  0.26487728742E+03  0.00000000000E+00 0. -1.
         11    1    5    5    0    0  0.34565032083E+02  0.37993934089E+02  0.34126900972E+02  0.61667867163E+02  0.00000000000E+00 0. -1.
        -12    1    5    5    0    0  0.10547300460E+02 -0.36893002660E+02  0.34906699877E+02  0.51873084433E+02  0.00000000000E+00 0.  1.
          5    1    4    4  501    0  0.12680376873E+03 -0.47375253638E+02 -0.22672909059E+03  0.26409688249E+03  0.41800000000E+01 0. -1.
         -5    1    4    4    0  501  0.15714315909E+02 -0.26246203795E+02  0.10656244357E+02  0.32662377163E+02  0.41800000000E+01 0. -1.
</event>
<event>
11    1  0.8039394E-009  0.1726106E+03  0.7561462E-02  0.1075782E+00
         22   -1    0    0    0    0  0.00000000000E+00  0.00000000000E+00  0.11041422399E+03  0.11041422399E+03  0.00000000000E+00 0.  1.
         22   -1    0    0    0    0 -0.00000000000E+00 -0.00000000000E+00 -0.29457276239E+04  0.29457276239E+04  0.00000000000E+00 0. -1.
        -24    2    1    2    0    0 -0.11811368703E+03  0.20084898447E+02 -0.27194011014E+04  0.27232284703E+04  0.80477979499E+02 0.  0.
         25    2    1    2    0    0  0.10758391661E+03  0.19651854723E+02 -0.16180524525E+03  0.23192337208E+03  0.12508804347E+03 0.  0.
         24    2    1    2    0    0  0.10529770423E+02 -0.39736753170E+02  0.45892946733E+02  0.10099000548E+03  0.80018329332E+02 0.  0.
        -11    1    5    5    0    0  0.12932054066E+02 -0.54324829751E+02  0.58996530670E+02  0.81234326371E+02  0.00000000000E+00 0.  1.
         12    1    5    5    0    0 -0.24022836431E+01  0.14588076581E+02 -0.13103583936E+02  0.19755679108E+02  0.00000000000E+00 0. -1.
         11    1    3    3    0    0 -0.11277805139E+03  0.38659410028E+02 -0.25384965736E+04  0.25412946096E+04  0.00000000000E+00 0. -1.
        -12    1    3    3    0    0 -0.53356356405E+01 -0.18574511581E+02 -0.18090452779E+03  0.18193386068E+03  0.00000000000E+00 0.  1.
          5    1    4    4  501    0  0.13094340300E+02  0.42726743576E+02 -0.21607957636E+01  0.44935262354E+02  0.41800000000E+01 0.  1.
         -5    1    4    4    0  501  0.94489576310E+02 -0.23074888852E+02 -0.15964444949E+03  0.18698810973E+03  0.41800000000E+01 0.  1.
</event>
<event>
11    1  0.8039394E-009  0.1286236E+03  0.7561462E-02  0.1120972E+00
         22   -1    0    0    0    0  0.00000000000E+00  0.00000000000E+00  0.25757662015E+03  0.25757662015E+03  0.00000000000E+00 0. -1.
         22   -1    0    0    0    0 -0.00000000000E+00 -0.00000000000E+00 -0.21477108128E+03  0.21477108128E+03  0.00000000000E+00 0.  1.
         24    2    1    2    0    0  0.18195781776E+02 -0.49813903703E+01 -0.13634034360E+03  0.15950370266E+03  0.80602984706E+02 0.  0.
         25    2    1    2    0    0 -0.23542125048E+02  0.31660535692E+02  0.40919473823E+02  0.13740077846E+03  0.12509176396E+03 0.  0.
        -24    2    1    2    0    0  0.53463432724E+01 -0.26679145322E+02  0.13822640865E+03  0.17544322031E+03  0.10456301126E+03 0.  0.
        -13    1    3    3    0    0 -0.12190698703E+02 -0.36557111771E+02 -0.71876749226E+02  0.81555518730E+02  0.00000000000E+00 0.  1.
         14    1    3    3    0    0  0.30386480479E+02  0.31575721401E+02 -0.64463594374E+02  0.77948183927E+02  0.00000000000E+00 0. -1.
         11    1    5    5    0    0  0.34557790997E+02  0.28227954450E+02  0.71023240148E+02  0.83877046754E+02  0.00000000000E+00 0. -1.
        -12    1    5    5    0    0 -0.29211447724E+02 -0.54907099772E+02  0.67203168505E+02  0.91566173561E+02  0.00000000000E+00 0.  1.
          5    1    4    4  501    0  0.24675428789E+02 -0.31792138035E+02  0.40991691688E+02  0.57596944487E+02  0.41800000000E+01 0.  1.
         -5    1    4    4    0  501 -0.48217553838E+02  0.63452673728E+02 -0.72217865100E-01  0.79803833972E+02  0.41800000000E+01 0.  1.
</event>
<event>
11    1  0.8039394E-009  0.1511357E+03  0.7561462E-02  0.1095724E+00
         22   -1    0    0    0    0  0.00000000000E+00  0.00000000000E+00  0.22178207344E+03  0.22178207344E+03  0.00000000000E+00 0.  1.
         22   -1    0    0    0    0 -0.00000000000E+00 -0.00000000000E+00 -0.64211938331E+03  0.64211938331E+03  0.00000000000E+00 0. -1.
        -24    2    1    2    0    0 -0.54746589714E+02 -0.56698183217E+02 -0.44606389559E+03  0.46024075105E+03  0.81465802105E+02 0.  0.
         25    2    1    2    0    0  0.11154290020E+03  0.62509865765E+02 -0.12918363540E+03  0.22064940023E+03  0.12509374191E+03 0.  0.
         24    2    1    2    0    0 -0.56796310482E+02 -0.58116825478E+01  0.15491022112E+03  0.18301130547E+03  0.78970657750E+02 0.  0.
        -13    1    5    5    0    0 -0.64892389242E+02  0.96086957846E+01  0.15173412403E+03  0.16530757276E+03  0.00000000000E+00 0.  1.
         14    1    5    5    0    0  0.80960787605E+01 -0.15420378332E+02  0.31760970859E+01  0.17703732711E+02  0.00000000000E+00 0. -1.
         11    1    3    3    0    0 -0.73128858336E+01 -0.36935097510E+02 -0.34316670339E+03  0.34522610858E+03  0.00000000000E+00 0. -1.
        -12    1    3    3    0    0 -0.47433703881E+02 -0.19763085707E+02 -0.10289719219E+03  0.11501464247E+03  0.00000000000E+00 0.  1.
          5    1    4    4  501    0  0.13754983179E+03  0.55753173807E+02 -0.92314490759E+02  0.17483652427E+03  0.41800000000E+01 0. -1.
         -5    1    4    4    0  501 -0.26006931593E+02  0.67566919575E+01 -0.36869144645E+02  0.45812875962E+02  0.41800000000E+01 0. -1.
</event>
<event>
11    1  0.8039394E-009  0.1287541E+03  0.7561462E-02  0.1120809E+00
         22   -1    0    0    0    0  0.00000000000E+00  0.00000000000E+00  0.17937703092E+04  0.17937703092E+04  0.00000000000E+00 0. -1.
         22   -1    0    0    0    0 -0.00000000000E+00 -0.00000000000E+00 -0.26084832475E+03  0.26084832475E+03  0.00000000000E+00 0. -1.
        -24    2    1    2    0    0 -0.13727520380E+02 -0.18791452277E+02 -0.23093450581E+03  0.24597564500E+03  0.81435302328E+02 0.  0.
         25    2    1    2    0    0 -0.16880757618E+02  0.11758499257E+02  0.16796516454E+03  0.21043411608E+03  0.12508796277E+03 0.  0.
         24    2    1    2    0    0  0.30608277998E+02  0.70329530201E+01  0.15958913258E+04  0.15982088729E+04  0.80100865541E+02 0.  0.
        -11    1    5    5    0    0  0.46237581207E+02  0.70881671435E+01  0.49470923237E+03  0.49691586876E+03  0.00000000000E+00 0.  1.
         12    1    5    5    0    0 -0.15629303209E+02 -0.55214123453E-01  0.11011820934E+04  0.11012930041E+04  0.00000000000E+00 0. -1.
         11    1    3    3    0    0  0.81751427897E+01 -0.25342843504E+02 -0.21817589499E+03  0.21979493586E+03  0.00000000000E+00 0. -1.
        -12    1    3    3    0    0 -0.21902663170E+02  0.65513912275E+01 -0.12758610823E+02  0.26180709141E+02  0.00000000000E+00 0.  1.
          5    1    4    4  501    0  0.45994988238E+01  0.44094700312E+02  0.16541715094E+03  0.17130617097E+03  0.41800000000E+01 0. -1.
         -5    1    4    4    0  501 -0.21480256442E+02 -0.32336201055E+02  0.25480135904E+01  0.39127945112E+02  0.41800000000E+01 0. -1.
</event>
<event>
11    1  0.8039394E-009  0.1374462E+03  0.7561462E-02  0.1110444E+00
         22   -1    0    0    0    0  0.00000000000E+00  0.00000000000E+00  0.19587558272E+03  0.19587558272E+03  0.00000000000E+00 0.  1.
         22   -1    0    0    0    0 -0.00000000000E+00 -0.00000000000E+00 -0.68495165547E+03  0.68495165547E+03  0.00000000000E+00 0.  1.
         24    2    1    2    0    0 -0.41125454846E+02  0.30073461099E+02 -0.57673089423E+03  0.58454292302E+03  0.80474768734E+02 0.  0.
         25    2    1    2    0    0  0.30042143576E+01  0.23208995883E+02 -0.38462291130E+02  0.13294651296E+03  0.12509094562E+03 0.  0.
        -24    2    1    2    0    0  0.38121240489E+02 -0.53282456982E+02  0.12611711260E+03  0.16333780220E+03  0.80507529712E+02 0.  0.
        -13    1    3    3    0    0 -0.18350056585E+02  0.51935887009E+02 -0.47069660081E+03  0.47390858924E+03  0.00000000000E+00 0.  1.
         14    1    3    3    0    0 -0.22775398261E+02 -0.21862425910E+02 -0.10603429341E+03  0.11063433379E+03  0.00000000000E+00 0. -1.
         13    1    5    5    0    0 -0.46244148944E+01  0.16771726288E+02  0.43676527997E+02  0.47013988490E+02  0.00000000000E+00 0. -1.
        -14    1    5    5    0    0  0.42745655383E+02 -0.70054183270E+02  0.82440584601E+02  0.11632381371E+03  0.00000000000E+00 0.  1.
          5    1    4    4  501    0  0.26069913785E+02  0.68838108727E+02 -0.34770480759E+02  0.81515546678E+02  0.41800000000E+01 0.  1.
         -5    1    4    4    0  501 -0.23065699427E+02 -0.45629112844E+02 -0.36918103704E+01  0.51430966283E+02  0.41800000000E+01 0.  1.
</event>
<event>
11    1  0.8039394E-009  0.1289884E+03  0.7561462E-02  0.1120518E+00
         22   -1    0    0    0    0  0.00000000000E+00  0.00000000000E+00  0.11353294444E+03  0.11353294444E+03  0.00000000000E+00 0.  1.
         22   -1    0    0    0    0 -0.00000000000E+00 -0.00000000000E+00 -0.11149220128E+04  0.11149220128E+04  0.00000000000E+00 0.  1.
         24    2    1    2    0    0  0.13225772457E+02 -0.22621644104E+02 -0.93463201764E+03  0.93863671508E+03  0.82554313352E+02 0.  0.
         25    2    1    2    0    0  0.18513913650E+02  0.10182946185E+02 -0.12907066569E+03  0.18097752326E+03  0.12508864773E+03 0.  0.
        -24    2    1    2    0    0 -0.31739686106E+02  0.12438697919E+02  0.62313614943E+02  0.10884071894E+03  0.82469307088E+02 0.  0.
        -13    1    3    3    0    0  0.23794947360E+02 -0.23252902645E+02 -0.91986311169E+03  0.92046457903E+03  0.00000000000E+00 0.  1.
         14    1    3    3    0    0 -0.10569174904E+02  0.63125854117E+00 -0.14768905945E+02  0.18172136041E+02  0.00000000000E+00 0. -1.
         11    1    5    5    0    0 -0.41700986878E+02 -0.17950822082E+02  0.84228172087E+01  0.46175189981E+02  0.00000000000E+00 0. -1.
        -12    1    5    5    0    0  0.99613007719E+01  0.30389520001E+02  0.53890797735E+02  0.62665528957E+02  0.00000000000E+00 0.  1.
          5    1    4    4  501    0  0.11544238601E+02 -0.30521121543E+02 -0.13508801443E+03  0.13903615483E+03  0.41800000000E+01 0. -1.
         -5    1    4    4    0  501  0.69696750490E+01  0.40704067728E+02  0.60173487482E+01  0.41941368431E+02  0.41800000000E+01 0. -1.
</event>
<event>
11    1  0.8039394E-009  0.3461698E+03  0.7561462E-02  0.9823469E-01
         22   -1    0    0    0    0  0.00000000000E+00  0.00000000000E+00  0.14444803869E+04  0.14444803869E+04  0.00000000000E+00 0. -1.
         22   -1    0    0    0    0 -0.00000000000E+00 -0.00000000000E+00 -0.44768432493E+03  0.44768432493E+03  0.00000000000E+00 0.  1.
        -24    2    1    2    0    0  0.12569272717E+03  0.23777654034E+03 -0.92048051767E+02  0.29514821614E+03  0.79393204095E+02 0.  0.
         25    2    1    2    0    0 -0.27513419523E+03 -0.34395359153E+03 -0.31475355167E+02  0.45895729636E+03  0.12509277913E+03 0.  0.
         24    2    1    2    0    0  0.14944146806E+03  0.10617705119E+03  0.11203194689E+04  0.11380591993E+04  0.80353656988E+02 0.  0.
        -13    1    5    5    0    0  0.25036564810E+01 -0.16334589905E+00  0.20109378731E+03  0.20110943855E+03  0.00000000000E+00 0.  1.
         14    1    5    5    0    0  0.14693781157E+03  0.10634039709E+03  0.91922568155E+03  0.93694976074E+03  0.00000000000E+00 0. -1.
         13    1    3    3    0    0  0.69625886280E+02  0.20223077754E+03 -0.74475902212E+02  0.22647673486E+03  0.00000000000E+00 0. -1.
        -14    1    3    3    0    0  0.56066840891E+02  0.35545762801E+02 -0.17572149555E+02  0.68671481276E+02  0.00000000000E+00 0.  1.
          5    1    4    4  501    0 -0.36135585332E+01 -0.22512925305E+02 -0.30318078589E+02  0.38164746828E+02  0.41800000000E+01 0. -1.
         -5    1    4    4    0  501 -0.27152063669E+03 -0.32144066622E+03 -0.11572765777E+01  0.42079254953E+03  0.41800000000E+01 0. -1.
</event>
<event>
11    1  0.8039394E-009  0.2136077E+03  0.7561462E-02  0.1045297E+00
         22   -1    0    0    0    0  0.00000000000E+00  0.00000000000E+00  0.23103897923E+04  0.23103897923E+04  0.00000000000E+00 0. -1.
         22   -1    0    0    0    0 -0.00000000000E+00 -0.00000000000E+00 -0.32465815485E+02  0.32465815485E+02  0.00000000000E+00 0.  1.
        -24    2    1    2    0    0 -0.46974941055E+00 -0.12951677128E+02  0.10547674696E+03  0.13327359226E+03  0.80427231949E+02 0.  0.
         25    2    1    2    0    0  0.10682758219E+03 -0.12945228273E+03  0.10798504945E+04  0.10999523878E+04  0.12509252259E+03 0.  0.
         24    2    1    2    0    0 -0.10635783278E+03  0.14240395986E+03  0.10925967353E+04  0.11096296277E+04  0.76937690174E+02 0.  0.
        -11    1    5    5    0    0  0.38339068365E+01 -0.34586505414E+01  0.11324318722E+03  0.11336084226E+03  0.00000000000E+00 0.  1.
         12    1    5    5    0    0 -0.11019173962E+03  0.14586261040E+03  0.97935354811E+03  0.99626878541E+03  0.00000000000E+00 0. -1.
         13    1    3    3    0    0 -0.24875576098E+02 -0.36820552444E+02  0.76623353981E+02  0.88575875631E+02  0.00000000000E+00 0. -1.
        -14    1    3    3    0    0  0.24405826687E+02  0.23868875317E+02  0.28853392977E+02  0.44697716625E+02  0.00000000000E+00 0.  1.
          5    1    4    4  501    0 -0.37265280745E+01 -0.87511011676E+02  0.36564773388E+03  0.37601569364E+03  0.41800000000E+01 0.  1.
         -5    1    4    4    0  501  0.11055411026E+03 -0.41941271053E+02  0.71420276059E+03  0.72393669416E+03  0.41800000000E+01 0.  1.
</event>
<event>
11    1  0.8039394E-009  0.2990282E+03  0.7561462E-02  0.1000603E+00
         22   -1    0    0    0    0  0.00000000000E+00  0.00000000000E+00  0.37999701845E+03  0.37999701845E+03  0.00000000000E+00 0. -1.
         22   -1    0    0    0    0 -0.00000000000E+00 -0.00000000000E+00 -0.13842234728E+04  0.13842234728E+04  0.00000000000E+00 0. -1.
         24    2    1    2    0    0 -0.26006679820E+03  0.26687391349E+02 -0.98970580471E+03  0.10269757707E+04  0.82551179852E+02 0.  0.
         25    2    1    2    0    0  0.30478727455E+03 -0.12358923482E+03 -0.27380005673E+03  0.44585130304E+03  0.12508929475E+03 0.  0.
        -24    2    1    2    0    0 -0.44720476348E+02  0.96901843469E+02  0.25927940713E+03  0.29139341751E+03  0.79337409415E+02 0.  0.
        -11    1    3    3    0    0 -0.11889130556E+03  0.53520148078E+02 -0.45913852729E+03  0.47729208670E+03  0.00000000000E+00 0.  1.
         12    1    3    3    0    0 -0.14117549264E+03 -0.26832756730E+02 -0.53056727743E+03  0.54968368398E+03  0.00000000000E+00 0. -1.
         11    1    5    5    0    0 -0.48644474955E+02  0.81402460873E+02  0.25854597801E+03  0.27538821385E+03  0.00000000000E+00 0. -1.
        -12    1    5    5    0    0  0.39239986077E+01  0.15499382596E+02  0.73342911777E+00  0.16005203660E+02  0.00000000000E+00 0.  1.
          5    1    4    4  501    0  0.11796235078E+03 -0.11471125731E+03 -0.13564788395E+03  0.21328762171E+03  0.41800000000E+01 0.  1.
         -5    1    4    4    0  501  0.18682492377E+03 -0.88779775059E+01 -0.13815217278E+03  0.23256368133E+03  0.41800000000E+01 0.  1.
</event>
<event>
11    1  0.8039394E-009  0.1454836E+03  0.7561462E-02  0.1101585E+00
         22   -1    0    0    0    0  0.00000000000E+00  0.00000000000E+00  0.35517359695E+04  0.35517359695E+04  0.00000000000E+00 0.  1.
         22   -1    0    0    0    0 -0.00000000000E+00 -0.00000000000E+00 -0.30607473158E+03  0.30607473158E+03  0.00000000000E+00 0. -1.
         24    2    1    2    0    0  0.52511586239E+02  0.11650355361E+01 -0.25903726384E+03  0.27593524261E+03  0.79253580720E+02 0.  0.
         25    2    1    2    0    0 -0.94050227275E+02 -0.61884053424E+02  0.15013476662E+03  0.22552879146E+03  0.12509079226E+03 0.  0.
        -24    2    1    2    0    0  0.41538641036E+02  0.60719017888E+02  0.33545637352E+04  0.33563466671E+04  0.80949602761E+02 0.  0.
        -11    1    3    3    0    0  0.43207990837E+02  0.45672724280E+01 -0.48305823343E+02  0.64971093714E+02  0.00000000000E+00 0.  1.
         12    1    3    3    0    0  0.93035954020E+01 -0.34022368919E+01 -0.21073144050E+03  0.21096414889E+03  0.00000000000E+00 0. -1.
         11    1    5    5    0    0  0.45038562748E+02 -0.29435797487E+01  0.12363694368E+04  0.12371930007E+04  0.00000000000E+00 0. -1.
        -12    1    5    5    0    0 -0.34999217125E+01  0.63662597636E+02  0.21181942984E+04  0.21191536664E+04  0.00000000000E+00 0.  1.
          5    1    4    4  501    0 -0.70279803645E+02  0.23080500059E+02  0.98373434883E+02  0.12315342210E+03  0.41800000000E+01 0.  1.
         -5    1    4    4    0  501 -0.23770423630E+02 -0.84964553483E+02  0.51761331738E+02  0.10237536936E+03  0.41800000000E+01 0.  1.
</event>
<event>
11    1  0.8039394E-009  0.1599148E+03  0.7561462E-02  0.1087157E+00
         22   -1    0    0    0    0  0.00000000000E+00  0.00000000000E+00  0.11704130306E+04  0.11704130306E+04  0.00000000000E+00 0. -1.
         22   -1    0    0    0    0 -0.00000000000E+00 -0.00000000000E+00 -0.24406899671E+04  0.24406899671E+04  0.00000000000E+00 0.  1.
         24    2    1    2    0    0  0.29174504437E+02 -0.10735602944E+02 -0.24010588734E+04  0.24026151234E+04  0.80680311020E+02 0.  0.
         25    2    1    2    0    0 -0.93541615623E+02  0.82886226208E+02  0.19050992841E+03  0.25992521727E+03  0.12508767087E+03 0.  0.
        -24    2    1    2    0    0  0.64367111186E+02 -0.72150623264E+02  0.94027200851E+03  0.94856265705E+03  0.79440713164E+02 0.  0.
        -13    1    3    3    0    0  0.56046823252E+02 -0.38748201162E+01 -0.18572069223E+04  0.18580564612E+04  0.00000000000E+00 0.  1.
         14    1    3    3    0    0 -0.26872318815E+02 -0.68607828277E+01 -0.54385195108E+03  0.54455866218E+03  0.00000000000E+00 0. -1.
         11    1    5    5    0    0  0.29948861866E+02 -0.60430387480E+02  0.31043061428E+03  0.31767268114E+03  0.00000000000E+00 0. -1.
        -12    1    5    5    0    0  0.34418249320E+02 -0.11720235784E+02  0.62984139423E+03  0.63088997591E+03  0.00000000000E+00 0.  1.
          5    1    4    4  501    0 -0.97070258589E+01  0.86857819188E+02  0.12862280087E+03  0.15556286320E+03  0.41800000000E+01 0. -1.
         -5    1    4    4    0  501 -0.83834589764E+02 -0.39715929801E+01  0.61887127544E+02  0.10436235407E+03  0.41800000000E+01 0. -1.
</event>
<event>
11    1  0.8039394E-009  0.1508522E+03  0.7561462E-02  0.1096011E+00
         22   -1    0    0    0    0  0.00000000000E+00  0.00000000000E+00  0.58599833182E+03  0.58599833182E+03  0.00000000000E+00 0. -1.
         22   -1    0    0    0    0 -0.00000000000E+00 -0.00000000000E+00 -0.49742316644E+03  0.49742316644E+03  0.00000000000E+00 0.  1.
         24    2    1    2    0    0  0.74950244179E+02  0.36682855275E+02 -0.44343849559E+03  0.45830766323E+03  0.80281030369E+02 0.  0.
         25    2    1    2    0    0 -0.70979211339E+02 -0.93826290048E+02  0.14173778596E+03  0.22266152782E+03  0.12508850810E+03 0.  0.
        -24    2    1    2    0    0 -0.39710328395E+01  0.57143434773E+02  0.39027587501E+03  0.40245230720E+03  0.79821423917E+02 0.  0.
        -11    1    3    3    0    0  0.15819715361E+02  0.19982412395E+02 -0.31392839448E+03  0.31496126280E+03  0.00000000000E+00 0.  1.
         12    1    3    3    0    0  0.59130528817E+02  0.16700442879E+02 -0.12951010110E+03  0.14334640044E+03  0.00000000000E+00 0. -1.
         11    1    5    5    0    0  0.35577940291E+02  0.40533258070E+02  0.18287622639E+03  0.19066318214E+03  0.00000000000E+00 0. -1.
        -12    1    5    5    0    0 -0.39548973131E+02  0.16610176703E+02  0.20739964862E+03  0.21178912506E+03  0.00000000000E+00 0.  1.
          5    1    4    4  501    0  0.22124126326E+02 -0.13640702396E+02 -0.92919977149E+01  0.27917008241E+02  0.41800000000E+01 0.  1.
         -5    1    4    4    0  501 -0.93103337666E+02 -0.80185587652E+02  0.15102978367E+03  0.19474451958E+03  0.41800000000E+01 0.  1.
</event>
<event>
11    1  0.8039394E-009  0.1435533E+03  0.7561462E-02  0.1103654E+00
         22   -1    0    0    0    0  0.00000000000E+00  0.00000000000E+00  0.27683773990E+04  0.27683773990E+04  0.00000000000E+00 0. -1.
         22   -1    0    0    0    0 -0.00000000000E+00 -0.00000000000E+00 -0.26457902089E+02  0.26457902089E+02  0.00000000000E+00 0. -1.
        -24    2    1    2    0    0 -0.71703025292E+02 -0.18743050083E+02  0.13777178867E+03  0.17708239439E+03  0.82972784010E+02 0.  0.
         25    2    1    2    0    0  0.56619082234E+02 -0.27487716085E+02  0.88337068680E+03  0.89440073015E+03  0.12509037047E+03 0.  0.
         24    2    1    2    0    0  0.15083943058E+02  0.46230766168E+02  0.17207770215E+04  0.17233521766E+04  0.80649599100E+02 0.  0.
        -11    1    5    5    0    0  0.17345226218E+02  0.26814301845E+02  0.20700031261E+03  0.20944926134E+03  0.00000000000E+00 0.  1.
         12    1    5    5    0    0 -0.22612831601E+01  0.19416464324E+02  0.15137767089E+04  0.15139029152E+04  0.00000000000E+00 0. -1.
         13    1    3    3    0    0 -0.42470160348E+02 -0.73834095567E+01  0.83418408342E+01  0.43906896556E+02  0.00000000000E+00 0. -1.
        -14    1    3    3    0    0 -0.29232864944E+02 -0.11359640526E+02  0.12942994784E+03  0.13317549783E+03  0.00000000000E+00 0.  1.
          5    1    4    4  501    0 -0.16119815737E+02 -0.58495700873E+02  0.39280156471E+03  0.39748224756E+03  0.41800000000E+01 0. -1.
         -5    1    4    4    0  501  0.72738897971E+02  0.31007984787E+02  0.49056912208E+03  0.49691848259E+03  0.41800000000E+01 0. -1.
</event>
<event>
11    1  0.8039394E-009  0.1635463E+03  0.7561462E-02  0.1083788E+00
         22   -1    0    0    0    0  0.00000000000E+00  0.00000000000E+00  0.56953276179E+03  0.56953276179E+03  0.00000000000E+00 0.  1.
         22   -1    0    0    0    0 -0.00000000000E+00 -0.00000000000E+00 -0.26018250047E+03  0.26018250047E+03  0.00000000000E+00 0. -1.
         24    2    1    2    0    0  0.91650319356E+02  0.39520676595E+02 -0.17176451241E+03  0.21460320694E+03  0.81177729633E+02 0.  0.
         25    2    1    2    0    0 -0.11369758867E+03 -0.11018084391E+03  0.11211069419E+03  0.23083544952E+03  0.12509691030E+03 0.  0.
        -24    2    1    2    0    0  0.22047269319E+02  0.70660167319E+02  0.36900407954E+03  0.38427660579E+03  0.77624465905E+02 0.  0.
        -13    1    3    3    0    0  0.52925376696E+01  0.26912889689E+02 -0.72456074646E+01  0.28369233580E+02  0.00000000000E+00 0.  1.
         14    1    3    3    0    0  0.86357781686E+02  0.12607786906E+02 -0.16451890495E+03  0.18623397336E+03  0.00000000000E+00 0. -1.
         13    1    5    5    0    0 -0.15386439406E+02 -0.96783671354E+01  0.77077264657E+02  0.79191653821E+02  0.00000000000E+00 0. -1.
        -14    1    5    5    0    0  0.37433708725E+02  0.80338534455E+02  0.29192681489E+03  0.30508495197E+03  0.00000000000E+00 0.  1.
          5    1    4    4  501    0 -0.22872114695E+01 -0.10544043934E+01  0.68738030320E+02  0.68911046409E+02  0.41800000000E+01 0. -1.
         -5    1    4    4    0  501 -0.11141037720E+03 -0.10912643952E+03  0.43372663872E+02  0.16192440311E+03  0.41800000000E+01 0. -1.
</event>
<event>
11    1  0.8039394E-009  0.2459328E+03  0.7561462E-02  0.1026088E+00
         22   -1    0    0    0    0  0.00000000000E+00  0.00000000000E+00  0.13791075008E+04  0.13791075008E+04  0.00000000000E+00 0. -1.
         22   -1    0    0    0    0 -0.00000000000E+00 -0.00000000000E+00 -0.19381097386E+04  0.19381097386E+04  0.00000000000E+00 0.  1.
         24    2    1    2    0    0 -0.83978545358E+02 -0.10901511097E+02 -0.13955678529E+04  0.14021444228E+04  0.10596278243E+03 0.  0.
         25    2    1    2    0    0  0.13379012392E+02  0.21085509769E+03 -0.50129980114E+03  0.55820023159E+03  0.12508851955E+03 0.  0.
        -24    2    1    2    0    0  0.70599532965E+02 -0.19995358659E+03  0.13378654163E+04  0.13568725850E+04  0.79079764018E+02 0.  0.
        -11    1    3    3    0    0  0.14206586656E+02  0.65327471377E+01 -0.61932880750E+03  0.61952617031E+03  0.00000000000E+00 0.  1.
         12    1    3    3    0    0 -0.98185132014E+02 -0.17434258235E+02 -0.77623904541E+03  0.78261825249E+03  0.00000000000E+00 0. -1.
         11    1    5    5    0    0  0.44967960640E+02 -0.16092838906E+03  0.11936248263E+04  0.12052635769E+04  0.00000000000E+00 0. -1.
        -12    1    5    5    0    0  0.25631572325E+02 -0.39025197530E+02  0.14424059001E+03  0.15160900814E+03  0.00000000000E+00 0.  1.
          5    1    4    4  501    0  0.46704222710E+02  0.11731368265E+03 -0.16678621314E+03  0.20923407431E+03  0.41800000000E+01 0. -1.
         -5    1    4    4    0  501 -0.33325210318E+02  0.93541415036E+02 -0.33451358800E+03  0.34896615728E+03  0.41800000000E+01 0. -1.
</event>
<event>
11    1  0.8039394E-009  0.1384616E+03  0.7561462E-02  0.1109289E+00
         22   -1    0    0    0    0  0.00000000000E+00  0.00000000000E+00  0.14854133801E+03  0.14854133801E+03  0.00000000000E+00 0.  1.
         22   -1    0    0    0    0 -0.00000000000E+00 -0.00000000000E+00 -0.97686390763E+03  0.97686390763E+03  0.00000000000E+00 0.  1.
        -24    2    1    2    0    0  0.43110320959E+02  0.42962171773E+02 -0.86582491181E+03  0.87234939837E+03  0.87386766355E+02 0.  0.
         25    2    1    2    0    0  0.10976281974E+02 -0.56874785747E+02 -0.28109750649E+02  0.14068885732E+03  0.12509187212E+03 0.  0.
         24    2    1    2    0    0 -0.54086602933E+02  0.13912613974E+02  0.65612092838E+02  0.11236698995E+03  0.72128165515E+02 0.  0.
        -11    1    5    5    0    0 -0.13040703284E+02  0.21720950751E+01  0.68321772822E+02  0.69589098146E+02  0.00000000000E+00 0.  1.
         12    1    5    5    0    0 -0.41045899649E+02  0.11740518899E+02 -0.27096799843E+01  0.42777891809E+02  0.00000000000E+00 0. -1.
         11    1    3    3    0    0 -0.36001138292E+01 -0.24284236250E+02 -0.18712258621E+03  0.18872611696E+03  0.00000000000E+00 0. -1.
        -12    1    3    3    0    0  0.46710434788E+02  0.67246408023E+02 -0.67870232560E+03  0.68362328141E+03  0.00000000000E+00 0.  1.
          5    1    4    4  501    0  0.45214582102E+02 -0.61821023258E+01 -0.56810342031E+02  0.72989479964E+02  0.41800000000E+01 0.  1.
         -5    1    4    4    0  501 -0.34238300127E+02 -0.50692683421E+02  0.28700591382E+02  0.67699377351E+02  0.41800000000E+01 0.  1.
</event>
<event>
11    1  0.8039394E-009  0.1414220E+03  0.7561462E-02  0.1105981E+00
         22   -1    0    0    0    0  0.00000000000E+00  0.00000000000E+00  0.51895579262E+03  0.51895579262E+03  0.00000000000E+00 0. -1.
         22   -1    0    0    0    0 -0.00000000000E+00 -0.00000000000E+00 -0.21456146544E+04  0.21456146544E+04  0.00000000000E+00 0.  1.
         24    2    1    2    0    0  0.48536624060E+01 -0.46845125661E+02 -0.13832355419E+04  0.13863094004E+04  0.79342078605E+02 0.  0.
         25    2    1    2    0    0 -0.59459346233E+02  0.95478331534E+01 -0.74931657275E+03  0.76206901717E+03  0.12508911128E+03 0.  0.
        -24    2    1    2    0    0  0.54605683827E+02  0.37297292508E+02  0.50589325288E+03  0.51619202943E+03  0.78443350275E+02 0.  0.
        -11    1    3    3    0    0  0.40587556035E+02 -0.15432485059E+02 -0.54655972512E+03  0.54828190233E+03  0.00000000000E+00 0.  1.
         12    1    3    3    0    0 -0.35733893629E+02 -0.31412640603E+02 -0.83667581682E+03  0.83802749812E+03  0.00000000000E+00 0. -1.
         11    1    5    5    0    0  0.59769627731E+02  0.50716225304E+02  0.48179689763E+03  0.48813194372E+03  0.00000000000E+00 0. -1.
        -12    1    5    5    0    0 -0.51639439034E+01 -0.13418932796E+02  0.24096355250E+02  0.28060085716E+02  0.00000000000E+00 0.  1.
          5    1    4    4  501    0 -0.30851065826E+02  0.66073876567E+02 -0.46888495313E+03  0.47453990043E+03  0.41800000000E+01 0. -1.
         -5    1    4    4    0  501 -0.28608280407E+02 -0.56526043413E+02 -0.28043161961E+03  0.28752911673E+03  0.41800000000E+01 0. -1.
</event>
<event>
11    1  0.8039394E-009  0.1802384E+03  0.7561462E-02  0.1069450E+00
         22   -1    0    0    0    0  0.00000000000E+00  0.00000000000E+00  0.10697880952E+03  0.10697880952E+03  0.00000000000E+00 0.  1.
         22   -1    0    0    0    0 -0.00000000000E+00 -0.00000000000E+00 -0.62313818461E+03  0.62313818461E+03  0.00000000000E+00 0.  1.
        -24    2    1    2    0    0 -0.82652628763E+02  0.38864660648E+02 -0.20435411220E+03  0.23778087189E+03  0.80232293827E+02 0.  0.
         25    2    1    2    0    0 -0.16799045192E+02 -0.13221842827E+03 -0.27445468167E+03  0.32975333464E+03  0.12509184115E+03 0.  0.
         24    2    1    2    0    0  0.99451673954E+02  0.93353767621E+02 -0.37350581214E+02  0.16258278760E+03  0.80203089256E+02 0.  0.
        -11    1    5    5    0    0  0.10263188320E+03  0.68554603847E+02 -0.51634742359E+02  0.13378783120E+03  0.00000000000E+00 0.  1.
         12    1    5    5    0    0 -0.31802092471E+01  0.24799163774E+02  0.14284161145E+02  0.28794956405E+02  0.00000000000E+00 0. -1.
         11    1    3    3    0    0 -0.36485847901E+02 -0.14128599137E+02 -0.12870982307E+03  0.13452528746E+03  0.00000000000E+00 0. -1.
        -12    1    3    3    0    0 -0.46166780861E+02  0.52993259785E+02 -0.75644289134E+02  0.10325558443E+03  0.00000000000E+00 0.  1.
          5    1    4    4  501    0 -0.46152696432E+01  0.11722152113E+02 -0.11010692354E+03  0.11090408728E+03  0.41800000000E+01 0. -1.
         -5    1    4    4    0  501 -0.12183775549E+02 -0.14394058038E+03 -0.16434775813E+03  0.21884924736E+03  0.41800000000E+01 0. -1.
</event>
<event>
11    1  0.8039394E-009  0.1378147E+03  0.7561462E-02  0.1110023E+00
         22   -1    0    0    0    0  0.00000000000E+00  0.00000000000E+00  0.10932346498E+04  0.10932346498E+04  0.00000000000E+00 0. -1.
         22   -1    0    0    0    0 -0.00000000000E+00 -0.00000000000E+00 -0.16084341714E+03  0.16084341714E+03  0.00000000000E+00 0.  1.
         24    2    1    2    0    0  0.38205456819E+02 -0.40477676652E+02 -0.10208230748E+03  0.14122697595E+03  0.80163345725E+02 0.  0.
         25    2    1    2    0    0 -0.60073017062E+02  0.44347958027E+02  0.10547230268E+03  0.17985589964E+03  0.12509288247E+03 0.  0.
        -24    2    1    2    0    0  0.21867560243E+02 -0.38702813744E+01  0.92900123747E+03  0.93299519135E+03  0.83328018096E+02 0.  0.
        -11    1    3    3    0    0  0.57689789205E+02 -0.40496483629E+02 -0.52304016475E+02  0.87771220250E+02  0.00000000000E+00 0.  1.
         12    1    3    3    0    0 -0.19484332385E+02  0.18806976969E-01 -0.49778291002E+02  0.53455755698E+02  0.00000000000E+00 0. -1.
         11    1    5    5    0    0  0.28068120344E+02  0.22024347349E+02  0.82047329689E+03  0.82124863602E+03  0.00000000000E+00 0. -1.
        -12    1    5    5    0    0 -0.62005601013E+01 -0.25894628724E+02  0.10852794057E+03  0.11174655533E+03  0.00000000000E+00 0.  1.
          5    1    4    4  501    0 -0.89334885779E+02 -0.34300925528E+01  0.64250349136E+02  0.11017289647E+03  0.41800000000E+01 0.  1.
         -5    1    4    4    0  501  0.29261868717E+02  0.47778050579E+02  0.41221953541E+02  0.69683003177E+02  0.41800000000E+01 0.  1.
</event>
<event>
11    1  0.8039394E-009  0.2718901E+03  0.7561462E-02  0.1012844E+00
         22   -1    0    0    0    0  0.00000000000E+00  0.00000000000E+00  0.37547457797E+03  0.37547457797E+03  0.00000000000E+00 0.  1.
         22   -1    0    0    0    0 -0.00000000000E+00 -0.00000000000E+00 -0.26105432902E+04  0.26105432902E+04  0.00000000000E+00 0. -1.
         24    2    1    2    0    0 -0.22520775099E+03  0.10845165344E+03 -0.18514585754E+04  0.18701025524E+04  0.83092765361E+02 0.  0.
         25    2    1    2    0    0  0.16682357654E+03 -0.15537953935E+03 -0.71834253156E+03  0.76396127127E+03  0.12509166402E+03 0.  0.
        -24    2    1    2    0    0  0.58384174448E+02  0.46927885911E+02  0.33473239472E+03  0.35195404455E+03  0.78834859641E+02 0.  0.
        -11    1    3    3    0    0 -0.14695760265E+03  0.27261071532E+02 -0.11418437426E+04  0.11515844891E+04  0.00000000000E+00 0.  1.
         12    1    3    3    0    0 -0.78250148340E+02  0.81190581906E+02 -0.70961483282E+03  0.71851806328E+03  0.00000000000E+00 0. -1.
         11    1    5    5    0    0  0.30615583336E+02 -0.16406460444E+02  0.67423352588E+02  0.75844540749E+02  0.00000000000E+00 0. -1.
        -12    1    5    5    0    0  0.27768591111E+02  0.63334346355E+02  0.26730904214E+03  0.27610950380E+03  0.00000000000E+00 0.  1.
          5    1    4    4  501    0 -0.13717862098E+02 -0.26916903092E+02 -0.16667935569E+03  0.16944668609E+03  0.41800000000E+01 0. -1.
         -5    1    4    4    0  501  0.18054143864E+03 -0.12846263626E+03 -0.55166317587E+03  0.59451458518E+03  0.41800000000E+01 0. -1.
</event>
<event>
11    1  0.8039394E-009  0.2309573E+03  0.7561462E-02  0.1034563E+00
         22   -1    0    0    0    0  0.00000000000E+00  0.00000000000E+00  0.25131485055E+04  0.25131485055E+04  0.00000000000E+00 0. -1.
         22   -1    0    0    0    0 -0.00000000000E+00 -0.00000000000E+00 -0.47224964084E+03  0.47224964084E+03  0.00000000000E+00 0.  1.
         24    2    1    2    0    0  0.69362280314E+02  0.97763254721E+01 -0.43490799032E+03  0.44740918820E+03  0.78251640036E+02 0.  0.
         25    2    1    2    0    0 -0.10615859850E+03 -0.19573920055E+03  0.61614750252E+03  0.66698447830E+03  0.12508823593E+03 0.  0.
        -24    2    1    2    0    0  0.36796318189E+02  0.18596287508E+03  0.18596593525E+04  0.18710044799E+04  0.79929321830E+02 0.  0.
        -13    1    3    3    0    0  0.62631897180E+02  0.32730842767E+02 -0.21758005818E+03  0.22876875733E+03  0.00000000000E+00 0.  1.
         14    1    3    3    0    0  0.67303831341E+01 -0.22954517294E+02 -0.21732793214E+03  0.21864043087E+03  0.00000000000E+00 0. -1.
         11    1    5    5    0    0  0.15075289279E+01  0.12721555066E+03  0.14580369324E+04  0.14635770445E+04  0.00000000000E+00 0. -1.
        -12    1    5    5    0    0  0.35288789262E+02  0.58747324416E+02  0.40162242010E+03  0.40742743538E+03  0.00000000000E+00 0.  1.
          5    1    4    4  501    0 -0.73302680153E+02 -0.16783540852E+03  0.58664374257E+03  0.61458145137E+03  0.41800000000E+01 0.  1.
         -5    1    4    4    0  501 -0.32855918350E+02 -0.27903792033E+02  0.29503759944E+02  0.52403026928E+02  0.41800000000E+01 0.  1.
</event>
<event>
11    1  0.8039394E-009  0.1672336E+03  0.7561462E-02  0.1080465E+00
         22   -1    0    0    0    0  0.00000000000E+00  0.00000000000E+00  0.13964626034E+04  0.13964626034E+04  0.00000000000E+00 0.  1.
         22   -1    0    0    0    0 -0.00000000000E+00 -0.00000000000E+00 -0.14492160514E+03  0.14492160514E+03  0.00000000000E+00 0. -1.
         24    2    1    2    0    0  0.94690844109E+02 -0.24587012912E+01 -0.91730101485E+02  0.15428970488E+03  0.80115543703E+02 0.  0.
         25    2    1    2    0    0 -0.54756903297E+02 -0.10888213374E+03  0.49538998900E+03  0.52527363747E+03  0.12509002965E+03 0.  0.
        -24    2    1    2    0    0 -0.39933940812E+02  0.11134083503E+03  0.84788111078E+03  0.86182086623E+03  0.99203458973E+02 0.  0.
        -11    1    3    3    0    0  0.83828961729E+01  0.29042334914E+02 -0.11594215609E+02  0.32375237468E+02  0.00000000000E+00 0.  1.
         12    1    3    3    0    0  0.86307947936E+02 -0.31501036205E+02 -0.80135885876E+02  0.12191446741E+03  0.00000000000E+00 0. -1.
         11    1    5    5    0    0 -0.40414470425E+02  0.46000072646E+02  0.16807012361E+03  0.17887678037E+03  0.00000000000E+00 0. -1.
        -12    1    5    5    0    0  0.48052961354E+00  0.65340762387E+02  0.67981098717E+03  0.68294408586E+03  0.00000000000E+00 0.  1.
          5    1    4    4  501    0 -0.10599113724E+02 -0.52466245239E+02  0.41101555028E+03  0.41450730159E+03  0.41800000000E+01 0.  1.
         -5    1    4    4    0  501 -0.44157789574E+02 -0.56415888503E+02  0.84374438718E+02  0.11076633588E+03  0.41800000000E+01 0.  1.
</event>
<event>
11    1  0.8039394E-009  0.2599695E+03  0.7561462E-02  0.1018718E+00
         22   -1    0    0    0    0  0.00000000000E+00  0.00000000000E+00  0.53754073942E+03  0.53754073942E+03  0.00000000000E+00 0.  1.
         22   -1    0    0    0    0 -0.00000000000E+00 -0.00000000000E+00 -0.28329680345E+04  0.28329680345E+04  0.00000000000E+00 0.  1.
        -24    2    1    2    0    0 -0.13596235974E+02  0.69170105284E+02 -0.26281032672E+04  0.26302593351E+04  0.79799910601E+02 0.  0.
         25    2    1    2    0    0 -0.21656150117E+03 -0.59276456677E+02 -0.72588107941E+02  0.26707341438E+03  0.12508634277E+03 0.  0.
         24    2    1    2    0    0  0.23015773715E+03 -0.98936486067E+01  0.40526407999E+03  0.47317602451E+03  0.81154835867E+02 0.  0.
        -11    1    5    5    0    0  0.21534790004E+03  0.11063987389E+02  0.33527661355E+03  0.39863208283E+03  0.00000000000E+00 0.  1.
         12    1    5    5    0    0  0.14809837109E+02 -0.20957635995E+02  0.69987466444E+02  0.74543941678E+02  0.00000000000E+00 0. -1.
         13    1    3    3    0    0 -0.41458676466E+02  0.55680573345E+02 -0.13523970933E+04  0.13541776272E+04  0.00000000000E+00 0. -1.
        -14    1    3    3    0    0  0.27862440492E+02  0.13489531939E+02 -0.12757061739E+04  0.12760817079E+04  0.00000000000E+00 0.  1.
          5    1    4    4  501    0 -0.15162805879E+03 -0.46716802403E+02 -0.10796114098E+03  0.19195470352E+03  0.41800000000E+01 0.  1.
         -5    1    4    4    0  501 -0.64933442383E+02 -0.12559654274E+02  0.35373033042E+02  0.75118710863E+02  0.41800000000E+01 0.  1.
</event>
<event>
11    1  0.8039394E-009  0.2104979E+03  0.7561462E-02  0.1047339E+00
         22   -1    0    0    0    0  0.00000000000E+00  0.00000000000E+00  0.37072353327E+03  0.37072353327E+03  0.00000000000E+00 0.  1.
         22   -1    0    0    0    0 -0.00000000000E+00 -0.00000000000E+00 -0.60058859965E+03  0.60058859965E+03  0.00000000000E+00 0. -1.
        -24    2    1    2    0    0 -0.39967910910E+01 -0.75277707449E+02 -0.32975869080E+03  0.34944850939E+03  0.87696972448E+02 0.  0.
         25    2    1    2    0    0 -0.77923063273E+02  0.21541033812E+03 -0.15902697475E+03  0.30563296583E+03  0.12509321941E+03 0.  0.
         24    2    1    2    0    0  0.81919854364E+02 -0.14013263067E+03  0.25892059918E+03  0.31623065771E+03  0.81326105767E+02 0.  0.
        -11    1    5    5    0    0  0.31410531430E+02  0.95705609414E-01  0.59297189706E+02  0.67102811798E+02  0.00000000000E+00 0.  1.
         12    1    5    5    0    0  0.50509322935E+02 -0.14022833628E+03  0.19962340947E+03  0.24912784591E+03  0.00000000000E+00 0. -1.
         13    1    3    3    0    0  0.28898447619E+02 -0.70823003314E+02 -0.17210431175E+03  0.18833722998E+03  0.00000000000E+00 0. -1.
        -14    1    3    3    0    0 -0.32895238710E+02 -0.44547041354E+01 -0.15765437905E+03  0.16111127941E+03  0.00000000000E+00 0.  1.
          5    1    4    4  501    0 -0.84695489949E+02  0.91030562312E+02 -0.12517646287E+03  0.17648373452E+03  0.41800000000E+01 0. -1.
         -5    1    4    4    0  501  0.67724266756E+01  0.12437977581E+03 -0.33850511882E+02  0.12914923131E+03  0.41800000000E+01 0. -1.
</event>
<event>
11    1  0.8039394E-009  0.1631541E+03  0.7561462E-02  0.1084148E+00
         22   -1    0    0    0    0  0.00000000000E+00  0.00000000000E+00  0.61323631116E+03  0.61323631116E+03  0.00000000000E+00 0. -1.
         22   -1    0    0    0    0 -0.00000000000E+00 -0.00000000000E+00 -0.81083718999E+03  0.81083718999E+03  0.00000000000E+00 0. -1.
         24    2    1    2    0    0 -0.29661860458E+02  0.40898829241E+02 -0.66794424227E+03  0.67483411988E+03  0.81847653470E+02 0.  0.
         25    2    1    2    0    0  0.13236478173E+03 -0.47537206589E+02 -0.64340440244E+02  0.19891467914E+03  0.12508851216E+03 0.  0.
        -24    2    1    2    0    0 -0.10270292127E+03  0.66383773488E+01  0.53468380368E+03  0.55032470212E+03  0.79865823477E+02 0.  0.
        -13    1    3    3    0    0 -0.57683728942E+02  0.22191666678E+02 -0.39237628531E+03  0.39721408828E+03  0.00000000000E+00 0.  1.
         14    1    3    3    0    0  0.28021868484E+02  0.18707162562E+02 -0.27556795696E+03  0.27762003161E+03  0.00000000000E+00 0. -1.
         11    1    5    5    0    0 -0.10759090286E+03 -0.14396825371E+02  0.45460533238E+03  0.46738536475E+03  0.00000000000E+00 0. -1.
        -12    1    5    5    0    0  0.48879815916E+01  0.21035202720E+02  0.80078471302E+02  0.82939337371E+02  0.00000000000E+00 0.  1.
          5    1    4    4  501    0 -0.21219182494E+02  0.55609185840E+01 -0.21058604435E+02  0.30693887697E+02  0.41800000000E+01 0.  1.
         -5    1    4    4    0  501  0.15358396422E+03 -0.53098125173E+02 -0.43281835809E+02  0.16822079144E+03  0.41800000000E+01 0.  1.
</event>
<event>
11    1  0.1238845E-008  0.1678976E+03  0.7561462E-02  0.1079876E+00
         22   -1    0    0    0    0  0.00000000000E+00  0.00000000000E+00  0.27871822772E+03  0.27871822772E+03  0.00000000000E+00 0.  1.
         22   -1    0    0    0    0 -0.00000000000E+00 -0.00000000000E+00 -0.72775700823E+03  0.72775700823E+03  0.00000000000E+00 0. -1.
         24    2    1    2    0    0  0.42476670563E+02  0.45569071536E+02 -0.35278942902E+03  0.36730802812E+03  0.81080197758E+02 0.  0.
         25    2    1    2    0    0 -0.19819807139E+02 -0.15332063630E+03 -0.32035533622E+03  0.37706116146E+03  0.12509011056E+03 0.  0.
        -24    2    1    2    0    0 -0.22656863424E+02  0.10775156477E+03  0.22410598473E+03  0.26210604638E+03  0.79701656110E+02 0.  0.
        -13    1    3    3    0    0  0.16927186093E+02  0.58899456370E+01 -0.85658894787E+01  0.19864429294E+02  0.00000000000E+00 0.  1.
         14    1    3    3    0    0  0.25549484470E+02  0.39679125899E+02 -0.34422353954E+03  0.34744359882E+03  0.00000000000E+00 0. -1.
         13    1    5    5    0    0 -0.15853252733E+01  0.11228531321E+03  0.16872510491E+03  0.20267872568E+03  0.00000000000E+00 0. -1.
        -14    1    5    5    0    0 -0.21071538151E+02 -0.45337484435E+01  0.55380879824E+02  0.59427320696E+02  0.00000000000E+00 0.  1.
          5    1    4    4  501    0 -0.58681577186E+02 -0.36924768750E+02 -0.72169626422E+02  0.10016433211E+03  0.41800000000E+01 0.  1.
         -5    1    4    4    0  501  0.38861770047E+02 -0.11639586755E+03 -0.24818570980E+03  0.27689682935E+03  0.41800000000E+01 0.  1.
</event>
<event>
11    1  0.8039394E-009  0.1425964E+03  0.7561462E-02  0.1104693E+00
         22   -1    0    0    0    0  0.00000000000E+00  0.00000000000E+00  0.12300521119E+04  0.12300521119E+04  0.00000000000E+00 0. -1.
         22   -1    0    0    0    0 -0.00000000000E+00 -0.00000000000E+00 -0.13026033976E+04  0.13026033976E+04  0.00000000000E+00 0.  1.
         24    2    1    2    0    0  0.12938305571E+02 -0.10549550953E+02 -0.11644731616E+04  0.11674286285E+04  0.81321372644E+02 0.  0.
         25    2    1    2    0    0  0.55420375427E+02  0.16940502375E+02 -0.99174995069E+02  0.16982266889E+03  0.12508261505E+03 0.  0.
        -24    2    1    2    0    0 -0.68358680997E+02 -0.63909514223E+01  0.11910968710E+04  0.11954042121E+04  0.74603757956E+02 0.  0.
        -11    1    3    3    0    0  0.37829436127E+02 -0.10406751923E+02 -0.10250718723E+04  0.10258224555E+04  0.00000000000E+00 0.  1.
         12    1    3    3    0    0 -0.24891130556E+02 -0.14279903014E+00 -0.13940128932E+03  0.14160617302E+03  0.00000000000E+00 0. -1.
         11    1    5    5    0    0 -0.75766717199E+02 -0.23454744465E+02  0.81577082163E+03  0.81961744362E+03  0.00000000000E+00 0. -1.
        -12    1    5    5    0    0  0.74080362022E+01  0.17063793043E+02  0.37532604937E+03  0.37578676849E+03  0.00000000000E+00 0.  1.
          5    1    4    4  501    0  0.60396124116E+02 -0.43949453455E+02 -0.68047824819E+02  0.10112974404E+03  0.41800000000E+01 0. -1.
         -5    1    4    4    0  501 -0.49757486898E+01  0.60889955831E+02 -0.31127170250E+02  0.68692924846E+02  0.41800000000E+01 0. -1.
</event>
<event>
11    1  0.8039394E-009  0.1323141E+03  0.7561462E-02  0.1116458E+00
         22   -1    0    0    0    0  0.00000000000E+00  0.00000000000E+00  0.35017541122E+03  0.35017541122E+03  0.00000000000E+00 0. -1.
         22   -1    0    0    0    0 -0.00000000000E+00 -0.00000000000E+00 -0.20320586469E+04  0.20320586469E+04  0.00000000000E+00 0. -1.
        -24    2    1    2    0    0  0.16714011140E+01 -0.48405963320E+02 -0.19705123562E+04  0.19727675678E+04  0.80913532370E+02 0.  0.
         25    2    1    2    0    0  0.31900637553E+02  0.14260827354E+02  0.29226101757E+02  0.13312491817E+03  0.12508819665E+03 0.  0.
         24    2    1    2    0    0 -0.33572038667E+02  0.34145135966E+02  0.25940301871E+03  0.27634157222E+03  0.82351480442E+02 0.  0.
        -11    1    5    5    0    0 -0.41756650497E+02 -0.13373773659E+02  0.15940437327E+03  0.16532461977E+03  0.00000000000E+00 0.  1.
         12    1    5    5    0    0  0.81846118301E+01  0.47518909625E+02  0.99998645437E+02  0.11101695245E+03  0.00000000000E+00 0. -1.
         11    1    3    3    0    0 -0.11675785851E+02 -0.46873474816E+02 -0.53104234875E+03  0.53323486644E+03  0.00000000000E+00 0. -1.
        -12    1    3    3    0    0  0.13347186965E+02 -0.15324885041E+01 -0.14394700074E+04  0.14395327013E+04  0.00000000000E+00 0.  1.
          5    1    4    4  501    0  0.31400218715E+02 -0.20249209189E+01  0.76566265619E+02  0.82885098003E+02  0.41800000000E+01 0.  1.
         -5    1    4    4    0  501  0.50041883800E+00  0.16285748273E+02 -0.47340163863E+02  0.50239820167E+02  0.41800000000E+01 0.  1.
</event>
<event>
11    1  0.8039394E-009  0.1451387E+03  0.7561462E-02  0.1101952E+00
         22   -1    0    0    0    0  0.00000000000E+00  0.00000000000E+00  0.29297111774E+04  0.29297111774E+04  0.00000000000E+00 0. -1.
         22   -1    0    0    0    0 -0.00000000000E+00 -0.00000000000E+00 -0.37812874386E+02  0.37812874386E+02  0.00000000000E+00 0. -1.
        -24    2    1    2    0    0  0.59891238691E+01  0.75374182309E+01  0.29366109601E+02  0.85985715657E+02  0.80240218256E+02 0.  0.
         25    2    1    2    0    0  0.45369043333E+02 -0.60004893529E+02  0.64367807965E+03  0.66002175618E+03  0.12509320952E+03 0.  0.
         24    2    1    2    0    0 -0.51358167202E+02  0.52467475298E+02  0.22188541138E+04  0.22215165799E+04  0.80198750137E+02 0.  0.
        -11    1    5    5    0    0 -0.47101803293E+02  0.38554955078E+02  0.71336948703E+03  0.71596165363E+03  0.00000000000E+00 0.  1.
         12    1    5    5    0    0 -0.42563639084E+01  0.13912520220E+02  0.15054846267E+04  0.15055549263E+04  0.00000000000E+00 0. -1.
         11    1    3    3    0    0  0.15038017720E+02 -0.42854577656E+01 -0.25071958977E+02  0.29548439082E+02  0.00000000000E+00 0. -1.
        -12    1    3    3    0    0 -0.90488938509E+01  0.11822875996E+02  0.54438068578E+02  0.56437276575E+02  0.00000000000E+00 0.  1.
          5    1    4    4  501    0  0.72908865490E+02 -0.76071666607E+02  0.56938961961E+03  0.57907219969E+03  0.41800000000E+01 0.  1.
         -5    1    4    4    0  501 -0.27539822157E+02  0.16066773078E+02  0.74288460036E+02  0.80949556491E+02  0.41800000000E+01 0.  1.
</event>
<event>
11    1  0.8039394E-009  0.2472303E+03  0.7561462E-02  0.1025385E+00
         22   -1    0    0    0    0  0.00000000000E+00  0.00000000000E+00  0.30871773759E+03  0.30871773759E+03  0.00000000000E+00 0. -1.
         22   -1    0    0    0    0 -0.00000000000E+00 -0.00000000000E+00 -0.28411864382E+03  0.28411864382E+03  0.00000000000E+00 0.  1.
         24    2    1    2    0    0 -0.20782710093E+03  0.36243514409E+02  0.59217375204E+02  0.23391897110E+03  0.81888285471E+02 0.  0.
         25    2    1    2    0    0  0.21709999987E+03  0.25185016616E+02 -0.48381005656E+02  0.25642591600E+03  0.12508730424E+03 0.  0.
        -24    2    1    2    0    0 -0.92728989340E+01 -0.61428531025E+02  0.13762724230E+02  0.10249149431E+03  0.80347014563E+02 0.  0.
        -13    1    3    3    0    0 -0.11116031673E+03  0.20647564436E+02 -0.10752234976E+02  0.11357177682E+03  0.00000000000E+00 0.  1.
         14    1    3    3    0    0 -0.96666784203E+02  0.15595949973E+02  0.69969610180E+02  0.12034719429E+03  0.00000000000E+00 0. -1.
         13    1    5    5    0    0 -0.25950344248E+02  0.59236757422E+01  0.19309060627E+02  0.32883888504E+02  0.00000000000E+00 0. -1.
        -14    1    5    5    0    0  0.16677445314E+02 -0.67352206767E+02 -0.55463363972E+01  0.69607605806E+02  0.00000000000E+00 0.  1.
          5    1    4    4  501    0  0.14586702104E+03 -0.39463359761E+02 -0.52569671648E+02  0.16004870311E+03  0.41800000000E+01 0. -1.
         -5    1    4    4    0  501  0.71232978828E+02  0.64648376377E+02  0.41886659915E+01  0.96377212886E+02  0.41800000000E+01 0. -1.
</event>
<event>
11    1  0.8039394E-009  0.1321086E+03  0.7561462E-02  0.1116705E+00
         22   -1    0    0    0    0  0.00000000000E+00  0.00000000000E+00  0.27036966094E+03  0.27036966094E+03  0.00000000000E+00 0.  1.
         22   -1    0    0    0    0 -0.00000000000E+00 -0.00000000000E+00 -0.96609275147E+03  0.96609275147E+03  0.00000000000E+00 0.  1.
         24    2    1    2    0    0  0.42762857214E+02  0.32937188534E+01 -0.83321434693E+03  0.83819633717E+03  0.80544653310E+02 0.  0.
         25    2    1    2    0    0 -0.37643642991E+02  0.13108544662E+02 -0.88157052966E+02  0.15814139197E+03  0.12509258997E+03 0.  0.
        -24    2    1    2    0    0 -0.51192142237E+01 -0.16402263515E+02  0.22564830937E+03  0.24012468328E+03  0.80296098257E+02 0.  0.
        -13    1    3    3    0    0  0.29042363431E+02  0.40169925098E+02 -0.55573575990E+03  0.55794203694E+03  0.00000000000E+00 0.  1.
         14    1    3    3    0    0  0.13720493783E+02 -0.36876206245E+02 -0.27747858703E+03  0.28025430023E+03  0.00000000000E+00 0. -1.
         13    1    5    5    0    0 -0.31391696681E+02 -0.18812024302E+01  0.19389317863E+03  0.19642693874E+03  0.00000000000E+00 0. -1.
        -14    1    5    5    0    0  0.26272482457E+02 -0.14521061085E+02  0.31755130738E+02  0.43697744538E+02  0.00000000000E+00 0.  1.
          5    1    4    4  501    0  0.18618435852E+02 -0.17737609316E+02  0.19638559917E+02  0.32625363959E+02  0.41800000000E+01 0.  1.
         -5    1    4    4    0  501 -0.56262078843E+02  0.30846153978E+02 -0.10779561288E+03  0.12551602801E+03  0.41800000000E+01 0.  1.
</event>
<event>
11    1  0.8039394E-009  0.1846152E+03  0.7561462E-02  0.1065970E+00
         22   -1    0    0    0    0  0.00000000000E+00  0.00000000000E+00  0.20214146476E+04  0.20214146476E+04  0.00000000000E+00 0. -1.
         22   -1    0    0    0    0 -0.00000000000E+00 -0.00000000000E+00 -0.19683009047E+03  0.19683009047E+03  0.00000000000E+00 0. -1.
        -24    2    1    2    0    0  0.43389898614E+02 -0.29665839249E+02 -0.12999772606E+03  0.16187650458E+03  0.80881695302E+02 0.  0.
         25    2    1    2    0    0 -0.14166828239E+03  0.11821649736E+03  0.21412744117E+03  0.30910160568E+03  0.12509276194E+03 0.  0.
         24    2    1    2    0    0  0.98278383778E+02 -0.88550658112E+02  0.17404548420E+04  0.17472666278E+04  0.79105953025E+02 0.  0.
        -11    1    5    5    0    0 -0.59921945540E+01 -0.37025577530E+02  0.47471790330E+03  0.47619731992E+03  0.00000000000E+00 0.  1.
         12    1    5    5    0    0  0.10427057833E+03 -0.51525080582E+02  0.12657369387E+04  0.12710693079E+04  0.00000000000E+00 0. -1.
         11    1    3    3    0    0  0.51486900537E+01 -0.37787309578E+02 -0.15991428850E+02  0.41353543634E+02  0.00000000000E+00 0. -1.
        -12    1    3    3    0    0  0.38241208560E+02  0.81214703285E+01 -0.11400629721E+03  0.12052296095E+03  0.00000000000E+00 0.  1.
          5    1    4    4  501    0 -0.54397963396E+02 -0.20504082960E+02  0.45748007237E+02  0.74093916119E+02  0.41800000000E+01 0.  1.
         -5    1    4    4    0  501 -0.87270318996E+02  0.13872058032E+03  0.16837943394E+03  0.23500768957E+03  0.41800000000E+01 0.  1.
</event>
<event>
11    1  0.8039394E-009  0.1528004E+03  0.7561462E-02  0.1094051E+00
         22   -1    0    0    0    0  0.00000000000E+00  0.00000000000E+00  0.30544083324E+03  0.30544083324E+03  0.00000000000E+00 0.  1.
         22   -1    0    0    0    0 -0.00000000000E+00 -0.00000000000E+00 -0.38791411795E+03  0.38791411795E+03  0.00000000000E+00 0.  1.
        -24    2    1    2    0    0  0.54652492855E+02 -0.19631740287E+02 -0.16846865595E+03  0.19918071016E+03  0.88988578250E+02 0.  0.
         25    2    1    2    0    0 -0.13297461717E+03 -0.12936056895E+02 -0.14633993159E+03  0.23433282528E+03  0.12508759750E+03 0.  0.
         24    2    1    2    0    0  0.78322124311E+02  0.32567797182E+02  0.23233530284E+03  0.25984141575E+03  0.79642022956E+02 0.  0.
        -11    1    5    5    0    0  0.83069097646E+02  0.27777777085E+01  0.14123407159E+03  0.16387572734E+03  0.00000000000E+00 0.  1.
         12    1    5    5    0    0 -0.47469733348E+01  0.29790019473E+02  0.91101231252E+02  0.95965688408E+02  0.00000000000E+00 0. -1.
         11    1    3    3    0    0  0.96410471036E+01  0.33930206912E+02 -0.70032621279E+02  0.78414136312E+02  0.00000000000E+00 0. -1.
        -12    1    3    3    0    0  0.45011445751E+02 -0.53561947199E+02 -0.98436034675E+02  0.12076657385E+03  0.00000000000E+00 0.  1.
          5    1    4    4  501    0  0.14290903103E+02 -0.29529018773E+02 -0.39903845939E+02  0.51826462179E+02  0.41800000000E+01 0.  1.
         -5    1    4    4    0  501 -0.14726552027E+03  0.16592961879E+02 -0.10643608565E+03  0.18250636310E+03  0.41800000000E+01 0.  1.
</event>
<event>
11    1  0.8039394E-009  0.3033865E+03  0.7561462E-02  0.9987681E-01
         22   -1    0    0    0    0  0.00000000000E+00  0.00000000000E+00  0.33186413964E+03  0.33186413964E+03  0.00000000000E+00 0. -1.
         22   -1    0    0    0    0 -0.00000000000E+00 -0.00000000000E+00 -0.88753640046E+03  0.88753640046E+03  0.00000000000E+00 0.  1.
         24    2    1    2    0    0 -0.13281906047E+02  0.27025600496E+03 -0.67798009776E+03  0.73455844077E+03  0.81880233954E+02 0.  0.
         25    2    1    2    0    0 -0.94639113785E+01 -0.31259478328E+03  0.85683345919E+01  0.33693656687E+03  0.12509104520E+03 0.  0.
        -24    2    1    2    0    0  0.22745817425E+02  0.42338778315E+02  0.11373950235E+03  0.14790553245E+03  0.81421298051E+02 0.  0.
        -11    1    3    3    0    0 -0.85416167819E+00  0.26989412181E+03 -0.65508283590E+03  0.70850341458E+03  0.00000000000E+00 0.  1.
         12    1    3    3    0    0 -0.12427744368E+02  0.36188315225E+00 -0.22897261859E+02  0.26055026198E+02  0.00000000000E+00 0. -1.
         11    1    5    5    0    0  0.19946351718E+01  0.47773923134E+02  0.11682690952E+03  0.12623332797E+03  0.00000000000E+00 0. -1.
        -12    1    5    5    0    0  0.20751182253E+02 -0.54351448194E+01 -0.30874071764E+01  0.21672204484E+02  0.00000000000E+00 0.  1.
          5    1    4    4  501    0  0.23490115268E+02 -0.75216289378E+02  0.50386534816E+02  0.93624521328E+02  0.41800000000E+01 0. -1.
         -5    1    4    4    0  501 -0.32954026647E+02 -0.23737849390E+03 -0.41818200224E+02  0.24331204555E+03  0.41800000000E+01 0. -1.
</event>
<event>
11    1  0.8039394E-009  0.1421992E+03  0.7561462E-02  0.1105127E+00
         22   -1    0    0    0    0  0.00000000000E+00  0.00000000000E+00  0.13088679033E+04  0.13088679033E+04  0.00000000000E+00 0. -1.
         22   -1    0    0    0    0 -0.00000000000E+00 -0.00000000000E+00 -0.84264651485E+03  0.84264651485E+03  0.00000000000E+00 0. -1.
         24    2    1    2    0    0  0.34979357796E+02 -0.53723985410E+02 -0.70915892183E+03  0.71874988124E+03  0.97904000404E+02 0.  0.
         25    2    1    2    0    0 -0.31787432061E+02  0.10795551717E+03 -0.71090091744E+02  0.18266740194E+03  0.12509494020E+03 0.  0.
        -24    2    1    2    0    0 -0.31919257345E+01 -0.54231531755E+02  0.12464704020E+04  0.12500971349E+04  0.78122572159E+02 0.  0.
        -11    1    3    3    0    0  0.20124566845E+02  0.13462622702E+02 -0.44877238665E+03  0.44942507209E+03  0.00000000000E+00 0.  1.
         12    1    3    3    0    0  0.14854790951E+02 -0.67186608112E+02 -0.26038653518E+03  0.26932480916E+03  0.00000000000E+00 0. -1.
         11    1    5    5    0    0  0.10859352027E+02  0.13314690222E+00  0.80459900260E+03  0.80467229245E+03  0.00000000000E+00 0. -1.
        -12    1    5    5    0    0 -0.14051277762E+02 -0.54364678658E+02  0.44187139939E+03  0.44542484247E+03  0.00000000000E+00 0.  1.
          5    1    4    4  501    0  0.13578168686E+02  0.14627491131E+02  0.30955986167E+02  0.37068526288E+02  0.41800000000E+01 0. -1.
         -5    1    4    4    0  501 -0.45365600747E+02  0.93328026035E+02 -0.10204607791E+03  0.14559887565E+03  0.41800000000E+01 0. -1.
</event>
<event>
11    1  0.8039394E-009  0.1642362E+03  0.7561462E-02  0.1083159E+00
         22   -1    0    0    0    0  0.00000000000E+00  0.00000000000E+00  0.36898911568E+03  0.36898911568E+03  0.00000000000E+00 0.  1.
         22   -1    0    0    0    0 -0.00000000000E+00 -0.00000000000E+00 -0.13423256423E+04  0.13423256423E+04  0.00000000000E+00 0. -1.
         24    2    1    2    0    0  0.10221051620E+03 -0.20175447519E+02 -0.11747722955E+04  0.11820559754E+04  0.79450263844E+02 0.  0.
         25    2    1    2    0    0 -0.13391269902E+03  0.55211692535E+02 -0.98768679947E+02  0.21536903602E+03  0.12509047760E+03 0.  0.
        -24    2    1    2    0    0  0.31702182819E+02 -0.35036245017E+02  0.30020444879E+03  0.31388974658E+03  0.78558863728E+02 0.  0.
        -13    1    3    3    0    0  0.46951389222E+02  0.99136384823E+01 -0.21809257904E+03  0.22330939571E+03  0.00000000000E+00 0.  1.
         14    1    3    3    0    0  0.55259126974E+02 -0.30089086001E+02 -0.95667971645E+03  0.95874657970E+03  0.00000000000E+00 0. -1.
         11    1    5    5    0    0  0.23999838218E+01  0.24774072689E+02  0.73158274555E+02  0.77276437132E+02  0.00000000000E+00 0. -1.
        -12    1    5    5    0    0  0.29302198997E+02 -0.59810317706E+02  0.22704617424E+03  0.23661330945E+03  0.00000000000E+00 0.  1.
          5    1    4    4  501    0  0.36349164790E+01  0.41898720630E+02 -0.56970122634E+02  0.70935059605E+02  0.41800000000E+01 0.  1.
         -5    1    4    4    0  501 -0.13754761549E+03  0.13312971905E+02 -0.41798557313E+02  0.14443397641E+03  0.41800000000E+01 0.  1.
</event>
<event>
11    1  0.8039394E-009  0.1513720E+03  0.7561462E-02  0.1095485E+00
         22   -1    0    0    0    0  0.00000000000E+00  0.00000000000E+00  0.42958736598E+03  0.42958736598E+03  0.00000000000E+00 0. -1.
         22   -1    0    0    0    0 -0.00000000000E+00 -0.00000000000E+00 -0.47358103894E+03  0.47358103894E+03  0.00000000000E+00 0. -1.
         24    2    1    2    0    0 -0.81559064644E+02  0.21693622475E+02 -0.40265089675E+03  0.41919644009E+03  0.80469972359E+02 0.  0.
         25    2    1    2    0    0  0.10229614050E+03  0.91428964512E+01  0.59795030953E+02  0.17254709132E+03  0.12509580361E+03 0.  0.
        -24    2    1    2    0    0 -0.20737075853E+02 -0.30836518926E+02  0.29886219284E+03  0.31142487350E+03  0.79283821244E+02 0.  0.
        -11    1    3    3    0    0 -0.18835267655E+02  0.28255099719E+02 -0.46922943706E+02  0.57921331250E+02  0.00000000000E+00 0.  1.
         12    1    3    3    0    0 -0.62723796989E+02 -0.65614772446E+01 -0.35572795305E+03  0.36127510884E+03  0.00000000000E+00 0. -1.
         11    1    5    5    0    0 -0.86876732682E+01 -0.39827754812E+02  0.29211561971E+03  0.29494620018E+03  0.00000000000E+00 0. -1.
        -12    1    5    5    0    0 -0.12049402585E+02  0.89912358860E+01  0.67465731252E+01  0.16478673319E+02  0.00000000000E+00 0.  1.
          5    1    4    4  501    0 -0.27258240967E+02  0.93728515915E+01  0.24877617671E+02  0.38304442413E+02  0.41800000000E+01 0.  1.
         -5    1    4    4    0  501  0.12955438146E+03 -0.22995514026E+00  0.34917413281E+02  0.13424264891E+03  0.41800000000E+01 0.  1.
</event>
<event>
11    1  0.8039394E-009  0.2206627E+03  0.7561462E-02  0.1040803E+00
         22   -1    0    0    0    0  0.00000000000E+00  0.00000000000E+00  0.48706366737E+03  0.48706366737E+03  0.00000000000E+00 0.  1.
         22   -1    0    0    0    0 -0.00000000000E+00 -0.00000000000E+00 -0.35945521810E+03  0.35945521810E+03  0.00000000000E+00 0.  1.
        -24    2    1    2    0    0  0.12254886417E+03 -0.14459833842E+03 -0.19422038188E+03  0.28328373353E+03  0.81247851442E+02 0.  0.
         25    2    1    2    0    0 -0.16065775278E+03  0.71901624284E+02 -0.59998562475E+01  0.21601762381E+03  0.12508740311E+03 0.  0.
         24    2    1    2    0    0  0.38108888605E+02  0.72696714131E+02  0.32782868739E+03  0.34721752813E+03  0.79694817458E+02 0.  0.
        -11    1    5    5    0    0  0.46712600774E+02  0.59704405927E+01  0.13911205969E+03  0.14686687300E+03  0.00000000000E+00 0.  1.
         12    1    5    5    0    0 -0.86037121685E+01  0.66726273538E+02  0.18871662770E+03  0.20035065513E+03  0.00000000000E+00 0. -1.
         11    1    3    3    0    0  0.52808270931E+02 -0.73761922490E+02 -0.38519379845E+02  0.98555960305E+02  0.00000000000E+00 0. -1.
        -12    1    3    3    0    0  0.69740593241E+02 -0.70836415926E+02 -0.15570100203E+03  0.18472777323E+03  0.00000000000E+00 0.  1.
          5    1    4    4  501    0 -0.64826861382E+02  0.81130643740E+02 -0.43424736553E+02  0.11264050539E+03  0.41800000000E+01 0. -1.
         -5    1    4    4    0  501 -0.95830891395E+02 -0.92290194560E+01  0.37424880305E+02  0.10337711841E+03  0.41800000000E+01 0. -1.
</event>
<event>
11    1  0.8039394E-009  0.1791392E+03  0.7561462E-02  0.1070341E+00
         22   -1    0    0    0    0  0.00000000000E+00  0.00000000000E+00  0.10352543864E+04  0.10352543864E+04  0.00000000000E+00 0.  1.
         22   -1    0    0    0    0 -0.00000000000E+00 -0.00000000000E+00 -0.34865478689E+03  0.34865478689E+03  0.00000000000E+00 0.  1.
        -24    2    1    2    0    0  0.12961226076E+03 -0.19749349867E+02 -0.24354479747E+03  0.28825549202E+03  0.81165173231E+02 0.  0.
         25    2    1    2    0    0 -0.11765221516E+03 -0.74300177370E+00  0.10412400298E+02  0.17204700262E+03  0.12509659167E+03 0.  0.
         24    2    1    2    0    0 -0.11960045598E+02  0.20492351641E+02  0.91973199668E+03  0.92360667864E+03  0.81113327843E+02 0.  0.
        -11    1    5    5    0    0  0.11019206843E+02  0.29865083467E+02  0.82696506726E+03  0.82757753027E+03  0.00000000000E+00 0.  1.
         12    1    5    5    0    0 -0.22979252441E+02 -0.93727318264E+01  0.92766929413E+02  0.96029148374E+02  0.00000000000E+00 0. -1.
         13    1    3    3    0    0  0.19688327085E+02  0.25543862697E+02 -0.31083129592E+02  0.44791518060E+02  0.00000000000E+00 0. -1.
        -14    1    3    3    0    0  0.10992393368E+03 -0.45293212564E+02 -0.21246166788E+03  0.24346397396E+03  0.00000000000E+00 0.  1.
          5    1    4    4  501    0 -0.13268284778E+02  0.51637325901E+02  0.13449398105E+02  0.55143626254E+02  0.41800000000E+01 0.  1.
         -5    1    4    4    0  501 -0.10438393039E+03 -0.52380327674E+02 -0.30369978063E+01  0.11690337637E+03  0.41800000000E+01 0.  1.
</event>
<event>
11    1  0.8039394E-009  0.6570392E+03  0.7561462E-02  0.9098124E-01
         22   -1    0    0    0    0  0.00000000000E+00  0.00000000000E+00  0.21776094216E+04  0.21776094216E+04  0.00000000000E+00 0. -1.
         22   -1    0    0    0    0 -0.00000000000E+00 -0.00000000000E+00 -0.11793564620E+04  0.11793564620E+04  0.00000000000E+00 0. -1.
         24    2    1    2    0    0  0.55938225812E+03  0.18137632928E+03 -0.65961957271E+03  0.88885137664E+03  0.95670818634E+02 0.  0.
         25    2    1    2    0    0 -0.10003867807E+04 -0.12374043275E+03  0.33392172644E+03  0.10692213834E+04  0.12508093998E+03 0.  0.
        -24    2    1    2    0    0  0.44100452258E+03 -0.57635896535E+02  0.13239508058E+04  0.13988931236E+04  0.79052827982E+02 0.  0.
        -13    1    3    3    0    0  0.10072569531E+03  0.14806334999E+02 -0.16614669940E+03  0.19485794563E+03  0.00000000000E+00 0.  1.
         14    1    3    3    0    0  0.45865656282E+03  0.16656999428E+03 -0.49347287330E+03  0.69399343102E+03  0.00000000000E+00 0. -1.
         13    1    5    5    0    0  0.28636463324E+03 -0.62946173903E-01  0.81309491698E+03  0.86204875219E+03  0.00000000000E+00 0. -1.
        -14    1    5    5    0    0  0.15463988934E+03 -0.57572950361E+02  0.51085588885E+03  0.53684437146E+03  0.00000000000E+00 0.  1.
          5    1    4    4  501    0 -0.74821439708E+03 -0.62659294000E+02  0.19912120499E+03  0.77679965100E+03  0.41800000000E+01 0. -1.
         -5    1    4    4    0  501 -0.25217238362E+03 -0.61081138746E+02  0.13480052144E+03  0.29242173236E+03  0.41800000000E+01 0. -1.
</event>
<event>
11    1  0.8039394E-009  0.1783144E+03  0.7561462E-02  0.1071015E+00
         22   -1    0    0    0    0  0.00000000000E+00  0.00000000000E+00  0.40063032383E+03  0.40063032383E+03  0.00000000000E+00 0. -1.
         22   -1    0    0    0    0 -0.00000000000E+00 -0.00000000000E+00 -0.80670103619E+03  0.80670103619E+03  0.00000000000E+00 0.  1.
        -24    2    1    2    0    0 -0.77529006981E+02 -0.64544682709E+02 -0.61983170168E+03  0.63313196727E+03  0.80548038994E+02 0.  0.
         25    2    1    2    0    0  0.16689609418E+03 -0.23970227204E+02 -0.95269594717E+02  0.23054816201E+03  0.12508909338E+03 0.  0.
         24    2    1    2    0    0 -0.89367087197E+02  0.88514909913E+02  0.30903058404E+03  0.34365123074E+03  0.82309786586E+02 0.  0.
        -11    1    5    5    0    0 -0.45250278874E+02  0.12463053838E+01  0.53688016153E+02  0.70224953498E+02  0.00000000000E+00 0.  1.
         12    1    5    5    0    0 -0.44116808323E+02  0.87268604529E+02  0.25534256788E+03  0.27342627724E+03  0.00000000000E+00 0. -1.
         13    1    3    3    0    0 -0.34929501747E+02 -0.17459117510E+02 -0.74479243156E+02  0.84095472753E+02  0.00000000000E+00 0. -1.
        -14    1    3    3    0    0 -0.42599505234E+02 -0.47085565199E+02 -0.54535245852E+03  0.54903649452E+03  0.00000000000E+00 0.  1.
          5    1    4    4  501    0 -0.28952956728E+01 -0.31805482886E+02 -0.40864790518E+02  0.52032441637E+02  0.41800000000E+01 0.  1.
         -5    1    4    4    0  501  0.16979138985E+03  0.78352556816E+01 -0.54404804198E+02  0.17851572037E+03  0.41800000000E+01 0.  1.
</event>
<event>
11    1  0.8039394E-009  0.1462573E+03  0.7561462E-02  0.1100766E+00
         22   -1    0    0    0    0  0.00000000000E+00  0.00000000000E+00  0.11500312950E+03  0.11500312950E+03  0.00000000000E+00 0.  1.
         22   -1    0    0    0    0 -0.00000000000E+00 -0.00000000000E+00 -0.12790200476E+04  0.12790200476E+04  0.00000000000E+00 0.  1.
        -24    2    1    2    0    0 -0.14807750500E+02  0.49874723417E+02 -0.10070230270E+04  0.10116853126E+04  0.81884291272E+02 0.  0.
         25    2    1    2    0    0 -0.26035818862E+02  0.21649501315E+02 -0.21663775800E+03  0.25244151865E+03  0.12509291496E+03 0.  0.
         24    2    1    2    0    0  0.40843569362E+02 -0.71524224733E+02  0.59643866922E+02  0.12989634590E+03  0.80819291856E+02 0.  0.
        -13    1    5    5    0    0  0.50348943138E+02 -0.43943398240E+02  0.71982246234E+02  0.98221596897E+02  0.00000000000E+00 0.  1.
         14    1    5    5    0    0 -0.95053737764E+01 -0.27580826492E+02 -0.12338379313E+02  0.31674749007E+02  0.00000000000E+00 0. -1.
         13    1    3    3    0    0 -0.31486373322E+02  0.22687314958E+02 -0.18417711030E+03  0.18822144916E+03  0.00000000000E+00 0. -1.
        -14    1    3    3    0    0  0.16678622822E+02  0.27187408460E+02 -0.82284591673E+03  0.82346386340E+03  0.00000000000E+00 0.  1.
          5    1    4    4  501    0 -0.38332345012E+02 -0.44299312982E+02 -0.13110315351E+03  0.14365690747E+03  0.41800000000E+01 0.  1.
         -5    1    4    4    0  501  0.12296526150E+02  0.65948814297E+02 -0.85534604493E+02  0.10878461117E+03  0.41800000000E+01 0.  1.
</event>
<event>
11    1  0.8039394E-009  0.1835345E+03  0.7561462E-02  0.1066819E+00
         22   -1    0    0    0    0  0.00000000000E+00  0.00000000000E+00  0.34802234318E+03  0.34802234318E+03  0.00000000000E+00 0.  1.
         22   -1    0    0    0    0 -0.00000000000E+00 -0.00000000000E+00 -0.26272188035E+04  0.26272188035E+04  0.00000000000E+00 0. -1.
        -24    2    1    2    0    0 -0.19664497510E+02  0.55945451370E+02 -0.19599874547E+04  0.19625174327E+04  0.80045394005E+02 0.  0.
         25    2    1    2    0    0  0.13850048655E+03 -0.11596385941E+03 -0.62914037376E+03  0.66640418454E+03  0.12508767251E+03 0.  0.
         24    2    1    2    0    0 -0.11883598904E+03  0.60018408042E+02  0.30993136809E+03  0.34631952948E+03  0.78457389576E+02 0.  0.
        -13    1    5    5    0    0 -0.56926219878E+02  0.63649342493E+02  0.22869339093E+03  0.24411575197E+03  0.00000000000E+00 0.  1.
         14    1    5    5    0    0 -0.61909769165E+02 -0.36309344508E+01  0.81237977166E+02  0.10220377751E+03  0.00000000000E+00 0. -1.
         11    1    3    3    0    0 -0.98945771226E+01 -0.18781848513E+02 -0.26212619661E+03  0.26298441672E+03  0.00000000000E+00 0. -1.
        -12    1    3    3    0    0 -0.97699203873E+01  0.74727299882E+02 -0.16978612581E+04  0.16995330160E+04  0.00000000000E+00 0.  1.
          5    1    4    4  501    0  0.10216389292E+03 -0.99246241411E+02 -0.60013479371E+03  0.61681968230E+03  0.41800000000E+01 0. -1.
         -5    1    4    4    0  501  0.36336593632E+02 -0.16717618001E+02 -0.29005580046E+02  0.49584502238E+02  0.41800000000E+01 0. -1.
</event>
<event>
11    1  0.8039394E-009  0.2161545E+03  0.7561462E-02  0.1043653E+00
         22   -1    0    0    0    0  0.00000000000E+00  0.00000000000E+00  0.10499104392E+04  0.10499104392E+04  0.00000000000E+00 0. -1.
         22   -1    0    0    0    0 -0.00000000000E+00 -0.00000000000E+00 -0.57611519234E+03  0.57611519234E+03  0.00000000000E+00 0. -1.
        -24    2    1    2    0    0  0.14214399823E+03 -0.10268130533E+03 -0.50474748510E+03  0.54041289885E+03  0.80794249960E+02 0.  0.
         25    2    1    2    0    0 -0.16140664344E+03  0.99930658696E+02  0.19971352308E+03  0.30260678424E+03  0.12508850255E+03 0.  0.
         24    2    1    2    0    0  0.19262645210E+02  0.27506466388E+01  0.77882920885E+03  0.78300594842E+03  0.78388539644E+02 0.  0.
        -13    1    5    5    0    0 -0.21864738904E+01 -0.35926651129E+02  0.39526312681E+03  0.39689853155E+03  0.00000000000E+00 0.  1.
         14    1    5    5    0    0  0.21449119101E+02  0.38677297768E+02  0.38356608204E+03  0.38610741687E+03  0.00000000000E+00 0. -1.
         13    1    3    3    0    0  0.11167842567E+03 -0.56851800274E+02 -0.42803638137E+03  0.44600374632E+03  0.00000000000E+00 0. -1.
        -14    1    3    3    0    0  0.30465572559E+02 -0.45829505061E+02 -0.76711103734E+02  0.94409152530E+02  0.00000000000E+00 0.  1.
          5    1    4    4  501    0 -0.16889023475E+02  0.63246274800E+02  0.11135970903E+03  0.12924313361E+03  0.41800000000E+01 0.  1.
         -5    1    4    4    0  501 -0.14451761996E+03  0.36684383896E+02  0.88353814054E+02  0.17336365063E+03  0.41800000000E+01 0.  1.
</event>
<event>
11    1  0.8039394E-009  0.1421133E+03  0.7561462E-02  0.1105221E+00
         22   -1    0    0    0    0  0.00000000000E+00  0.00000000000E+00  0.55015776360E+03  0.55015776360E+03  0.00000000000E+00 0.  1.
         22   -1    0    0    0    0 -0.00000000000E+00 -0.00000000000E+00 -0.12645291403E+03  0.12645291403E+03  0.00000000000E+00 0.  1.
        -24    2    1    2    0    0  0.58071610872E+02 -0.39488162579E+02 -0.31700392356E+02  0.11450774017E+03  0.84708209227E+02 0.  0.
         25    2    1    2    0    0 -0.56324564160E+02  0.25017542461E+02  0.47387398470E+02  0.14727913746E+03  0.12508894771E+03 0.  0.
         24    2    1    2    0    0 -0.17470467115E+01  0.14470620118E+02  0.40801784346E+03  0.41482380000E+03  0.73401453986E+02 0.  0.
        -13    1    5    5    0    0 -0.13997171382E+01  0.39367531910E+02  0.13381335372E+03  0.13949113023E+03  0.00000000000E+00 0.  1.
         14    1    5    5    0    0 -0.34732957334E+00 -0.24896911793E+02  0.27420448973E+03  0.27533266977E+03  0.00000000000E+00 0. -1.
         11    1    3    3    0    0 -0.29224132082E+01  0.93480132287E+01  0.18991687634E+02  0.21368435822E+02  0.00000000000E+00 0. -1.
        -12    1    3    3    0    0  0.60994024080E+02 -0.48836175808E+02 -0.50692079990E+02  0.93139304349E+02  0.00000000000E+00 0.  1.
          5    1    4    4  501    0 -0.53448706877E+02 -0.32274205279E+02 -0.12968965586E+02  0.63906612033E+02  0.41800000000E+01 0. -1.
         -5    1    4    4    0  501 -0.28758572833E+01  0.57291747740E+02  0.60356364056E+02  0.83372525429E+02  0.41800000000E+01 0. -1.
</event>
<event>
11    1  0.8039394E-009  0.1399634E+03  0.7561462E-02  0.1107599E+00
         22   -1    0    0    0    0  0.00000000000E+00  0.00000000000E+00  0.50695895711E+03  0.50695895711E+03  0.00000000000E+00 0. -1.
         22   -1    0    0    0    0 -0.00000000000E+00 -0.00000000000E+00 -0.56204824209E+03  0.56204824209E+03  0.00000000000E+00 0. -1.
         24    2    1    2    0    0 -0.53724719254E+02 -0.37035071265E+02 -0.37151195050E+03  0.38538755761E+03  0.79022137625E+02 0.  0.
         25    2    1    2    0    0  0.31926238995E+02  0.46664356140E+02 -0.15358447733E+03  0.20599263319E+03  0.12509167191E+03 0.  0.
        -24    2    1    2    0    0  0.21798480259E+02 -0.96292848749E+01  0.47000714283E+03  0.47762700840E+03  0.81565605325E+02 0.  0.
        -13    1    3    3    0    0 -0.25252977571E+02  0.81846923870E+01 -0.31463857249E+02  0.41166447244E+02  0.00000000000E+00 0.  1.
         14    1    3    3    0    0 -0.28471741682E+02 -0.45219763652E+02 -0.34004809325E+03  0.34422111036E+03  0.00000000000E+00 0. -1.
         11    1    5    5    0    0  0.10848639499E+02  0.17667765846E+02  0.41263369416E+03  0.41315421876E+03  0.00000000000E+00 0. -1.
        -12    1    5    5    0    0  0.10949840761E+02 -0.27297050720E+02  0.57373448679E+02  0.64472789641E+02  0.00000000000E+00 0.  1.
          5    1    4    4  501    0  0.13555267119E+02  0.87734172682E+02 -0.12167505745E+03  0.15067621686E+03  0.41800000000E+01 0.  1.
         -5    1    4    4    0  501  0.18370971875E+02 -0.41069816541E+02 -0.31909419879E+02  0.55316416328E+02  0.41800000000E+01 0.  1.
</event>
<event>
11    1  0.8039394E-009  0.1456614E+03  0.7561462E-02  0.1101396E+00
         22   -1    0    0    0    0  0.00000000000E+00  0.00000000000E+00  0.62020458643E+03  0.62020458643E+03  0.00000000000E+00 0. -1.
         22   -1    0    0    0    0 -0.00000000000E+00 -0.00000000000E+00 -0.24146508315E+03  0.24146508315E+03  0.00000000000E+00 0. -1.
         24    2    1    2    0    0 -0.40514684200E+02  0.59453296446E+02 -0.18262874111E+03  0.21614832312E+03  0.90502521585E+02 0.  0.
         25    2    1    2    0    0  0.62877707456E+02 -0.81061893291E+02  0.13578153130E+03  0.21120820260E+03  0.12509054307E+03 0.  0.
        -24    2    1    2    0    0 -0.22363023256E+02  0.21608596846E+02  0.42558671309E+03  0.43431314386E+03  0.80850604856E+02 0.  0.
        -11    1    3    3    0    0 -0.49424159308E+02 -0.24851585956E+01 -0.54879947786E+02  0.73896767220E+02  0.00000000000E+00 0.  1.
         12    1    3    3    0    0  0.89094751086E+01  0.61938455041E+02 -0.12774879332E+03  0.14225155590E+03  0.00000000000E+00 0. -1.
         11    1    5    5    0    0 -0.26908483953E+02  0.39588196915E+02  0.39920926289E+03  0.40206880931E+03  0.00000000000E+00 0. -1.
        -12    1    5    5    0    0  0.45454606977E+01 -0.17979600069E+02  0.26377450204E+02  0.32244334555E+02  0.00000000000E+00 0.  1.
          5    1    4    4  501    0 -0.14508113559E+02  0.11426710332E+02 -0.10444044172E+02  0.21624188464E+02  0.41800000000E+01 0. -1.
         -5    1    4    4    0  501  0.77385821015E+02 -0.92488603623E+02  0.14622557548E+03  0.18958401414E+03  0.41800000000E+01 0. -1.
</event>
<event>
11    1  0.8039394E-009  0.1295440E+03  0.7561462E-02  0.1119830E+00
         22   -1    0    0    0    0  0.00000000000E+00  0.00000000000E+00  0.20483444573E+04  0.20483444573E+04  0.00000000000E+00 0.  1.
         22   -1    0    0    0    0 -0.00000000000E+00 -0.00000000000E+00 -0.49786345405E+03  0.49786345405E+03  0.00000000000E+00 0. -1.
         24    2    1    2    0    0  0.20613243071E+02  0.26014815369E+02 -0.46598389534E+03  0.47412028995E+03  0.80915895955E+02 0.  0.
         25    2    1    2    0    0 -0.40406892901E+02 -0.36822226911E+02  0.14647988123E+03  0.20023250757E+03  0.12509239823E+03 0.  0.
        -24    2    1    2    0    0  0.19793649830E+02  0.10807411542E+02  0.18699850174E+04  0.18718551138E+04  0.80554411642E+02 0.  0.
        -11    1    3    3    0    0  0.41171251436E+02 -0.13032737250E+02 -0.24414537620E+03  0.24793525144E+03  0.00000000000E+00 0.  1.
         12    1    3    3    0    0 -0.20558008365E+02  0.39047552619E+02 -0.22183851914E+03  0.22618503852E+03  0.00000000000E+00 0. -1.
         13    1    5    5    0    0 -0.56508455455E-01 -0.47373897222E+00 -0.79963133078E+00  0.93114557642E+00  0.00000000000E+00 0. -1.
        -14    1    5    5    0    0  0.19850158286E+02  0.11281150514E+02  0.18707846487E+04  0.18709239682E+04  0.00000000000E+00 0.  1.
          5    1    4    4  501    0 -0.34273862072E+02 -0.81490659015E+02  0.11486760665E+03  0.14500849832E+03  0.41800000000E+01 0. -1.
         -5    1    4    4    0  501 -0.61330308288E+01  0.44668432104E+02  0.31612274579E+02  0.55224009252E+02  0.41800000000E+01 0. -1.
</event>
<event>
11    1  0.8039394E-009  0.1844688E+03  0.7561462E-02  0.1066084E+00
         22   -1    0    0    0    0  0.00000000000E+00  0.00000000000E+00  0.42153720740E+02  0.42153720740E+02  0.00000000000E+00 0. -1.
         22   -1    0    0    0    0 -0.00000000000E+00 -0.00000000000E+00 -0.12332079199E+04  0.12332079199E+04  0.00000000000E+00 0. -1.
        -24    2    1    2    0    0  0.30193171696E+02 -0.35598683803E+02 -0.31383356552E+03  0.32655948146E+03  0.77270267108E+02 0.  0.
         25    2    1    2    0    0 -0.78747337189E+02 -0.98124064647E+02 -0.61312038083E+03  0.63827357347E+03  0.12508828091E+03 0.  0.
         24    2    1    2    0    0  0.48554165493E+02  0.13372274845E+03 -0.26410025278E+03  0.31052858568E+03  0.80248230926E+02 0.  0.
        -11    1    5    5    0    0 -0.10484645551E+02  0.39692114544E+02 -0.28199847555E+02  0.49805854590E+02  0.00000000000E+00 0.  1.
         12    1    5    5    0    0  0.59038811044E+02  0.94030633906E+02 -0.23590040522E+03  0.26072273109E+03  0.00000000000E+00 0. -1.
         11    1    3    3    0    0  0.52042008361E+02 -0.40633834503E+02 -0.20255771563E+03  0.21304719501E+03  0.00000000000E+00 0. -1.
        -12    1    3    3    0    0 -0.21848836665E+02  0.50351506998E+01 -0.11127584990E+03  0.11351228645E+03  0.00000000000E+00 0.  1.
          5    1    4    4  501    0 -0.62220051802E+02 -0.12335861497E+03 -0.56218699490E+03  0.57893036919E+03  0.41800000000E+01 0. -1.
         -5    1    4    4    0  501 -0.16527285387E+02  0.25234550319E+02 -0.50933385930E+02  0.59343204281E+02  0.41800000000E+01 0. -1.
</event>
<event>
11    1  0.8039394E-009  0.1339328E+03  0.7561462E-02  0.1114529E+00
         22   -1    0    0    0    0  0.00000000000E+00  0.00000000000E+00  0.68589972203E+03  0.68589972203E+03  0.00000000000E+00 0. -1.
         22   -1    0    0    0    0 -0.00000000000E+00 -0.00000000000E+00 -0.57165062010E+03  0.57165062010E+03  0.00000000000E+00 0. -1.
        -24    2    1    2    0    0  0.20090793329E+02 -0.44579959433E+01 -0.48633749453E+03  0.49327934095E+03  0.79855093242E+02 0.  0.
         25    2    1    2    0    0 -0.66996466454E+02  0.42951313316E+01 -0.13989173996E+02  0.14268516003E+03  0.12512546996E+03 0.  0.
         24    2    1    2    0    0  0.46905673125E+02  0.16286461177E+00  0.61457577045E+03  0.62158584115E+03  0.80407783201E+02 0.  0.
        -13    1    5    5    0    0  0.48856232968E+02  0.27404592331E+02  0.52389927157E+03  0.52688555677E+03  0.00000000000E+00 0.  1.
         14    1    5    5    0    0 -0.19505598432E+01 -0.27241727719E+02  0.90676498877E+02  0.94700284379E+02  0.00000000000E+00 0. -1.
         11    1    3    3    0    0  0.34647640277E+02  0.20371664335E+02 -0.40519116340E+03  0.40717974236E+03  0.00000000000E+00 0. -1.
        -12    1    3    3    0    0 -0.14556846948E+02 -0.24829660278E+02 -0.81146331123E+02  0.86099598590E+02  0.00000000000E+00 0.  1.
          5    1    4    4  501    0 -0.41960566970E+02  0.57452685934E+02  0.20840986319E+02  0.74251730029E+02  0.41800000000E+01 0. -1.
         -5    1    4    4    0  501 -0.25035899484E+02 -0.53157554603E+02 -0.34830160315E+02  0.68433430002E+02  0.41800000000E+01 0. -1.
</event>
<event>
11    1  0.8039394E-009  0.1308213E+03  0.7561462E-02  0.1118264E+00
         22   -1    0    0    0    0  0.00000000000E+00  0.00000000000E+00  0.13201883573E+03  0.13201883573E+03  0.00000000000E+00 0.  1.
         22   -1    0    0    0    0 -0.00000000000E+00 -0.00000000000E+00 -0.15108178349E+04  0.15108178349E+04  0.00000000000E+00 0.  1.
        -24    2    1    2    0    0  0.38147803988E+02  0.71114795331E+01 -0.13435084718E+04  0.13464060970E+04  0.79300290601E+02 0.  0.
         25    2    1    2    0    0 -0.39330545659E+01  0.17842790318E+02 -0.11918714468E+03  0.17374241835E+03  0.12508804257E+03 0.  0.
         24    2    1    2    0    0 -0.34214749422E+02 -0.24954269851E+02  0.83896617338E+02  0.12268815528E+03  0.78869362768E+02 0.  0.
        -13    1    5    5    0    0 -0.22719237513E+02  0.24229826512E+02  0.55671786217E+02  0.64827432670E+02  0.00000000000E+00 0.  1.
         14    1    5    5    0    0 -0.11495511909E+02 -0.49184096364E+02  0.28224831121E+02  0.57860722610E+02  0.00000000000E+00 0. -1.
         13    1    3    3    0    0  0.23955414084E+01  0.14113438946E+02 -0.41714807063E+02  0.44102753949E+02  0.00000000000E+00 0. -1.
        -14    1    3    3    0    0  0.35752262579E+02 -0.70019594132E+01 -0.13017936648E+04  0.13023033430E+04  0.00000000000E+00 0.  1.
          5    1    4    4  501    0 -0.69805280962E+01 -0.41096696736E+02 -0.10478368876E+03  0.11284839425E+03  0.41800000000E+01 0.  1.
         -5    1    4    4    0  501  0.30474735303E+01  0.58939487054E+02 -0.14403455925E+02  0.60894024105E+02  0.41800000000E+01 0.  1.
</event>
<event>
11    1  0.8039394E-009  0.1851386E+03  0.7561462E-02  0.1065561E+00
         22   -1    0    0    0    0  0.00000000000E+00  0.00000000000E+00  0.28391417861E+03  0.28391417861E+03  0.00000000000E+00 0.  1.
         22   -1    0    0    0    0 -0.00000000000E+00 -0.00000000000E+00 -0.66693888623E+03  0.66693888623E+03  0.00000000000E+00 0.  1.
        -24    2    1    2    0    0 -0.31069653190E+02 -0.15877266423E+02 -0.52969640561E+03  0.53708400888E+03  0.81630506200E+02 0.  0.
         25    2    1    2    0    0  0.12622034514E+03  0.10189637421E+03  0.28540464320E+01  0.20485855288E+03  0.12507771384E+03 0.  0.
         24    2    1    2    0    0 -0.95150691954E+02 -0.86019107790E+02  0.14381765156E+03  0.20891050307E+03  0.80666847651E+02 0.  0.
        -13    1    5    5    0    0 -0.66021297542E+02 -0.62631048944E+01  0.69613967179E+02  0.96146464514E+02  0.00000000000E+00 0.  1.
         14    1    5    5    0    0 -0.29129394412E+02 -0.79756002896E+02  0.74203684378E+02  0.11276403856E+03  0.00000000000E+00 0. -1.
         11    1    3    3    0    0 -0.14722129831E+02 -0.42216734574E+02 -0.16118611056E+03  0.16727210174E+03  0.00000000000E+00 0. -1.
        -12    1    3    3    0    0 -0.16347523358E+02  0.26339468150E+02 -0.36851029505E+03  0.36981190714E+03  0.00000000000E+00 0.  1.
          5    1    4    4  501    0 -0.77436509855E+00  0.71305800753E+02 -0.14883334006E+02  0.72966450465E+02  0.41800000000E+01 0. -1.
         -5    1    4    4    0  501  0.12699471024E+03  0.30590573460E+02  0.17737380438E+02  0.13189210241E+03  0.41800000000E+01 0. -1.
</event>
<event>
11    1  0.8039394E-009  0.1594613E+03  0.7561462E-02  0.1087585E+00
         22   -1    0    0    0    0  0.00000000000E+00  0.00000000000E+00  0.70636292319E+03  0.70636292319E+03  0.00000000000E+00 0. -1.
         22   -1    0    0    0    0 -0.00000000000E+00 -0.00000000000E+00 -0.15874014179E+04  0.15874014179E+04  0.00000000000E+00 0. -1.
         24    2    1    2    0    0  0.74318329016E+02 -0.67329296656E+02 -0.14188355401E+04  0.14245634064E+04  0.78931367155E+02 0.  0.
         25    2    1    2    0    0 -0.51530111158E+02  0.65390441248E+02 -0.12845152893E+03  0.19768220345E+03  0.12508875295E+03 0.  0.
        -24    2    1    2    0    0 -0.22788217858E+02  0.19388554086E+01  0.66624857432E+03  0.67151873126E+03  0.80790974817E+02 0.  0.
        -11    1    3    3    0    0 -0.12622807635E+02  0.44301633065E+01 -0.23224977840E+03  0.23263473771E+03  0.00000000000E+00 0.  1.
         12    1    3    3    0    0  0.86941136650E+02 -0.71759459963E+02 -0.11865857617E+04  0.11919286687E+04  0.00000000000E+00 0. -1.
         11    1    5    5    0    0 -0.43756185464E+01 -0.28336630713E+02  0.52877458136E+03  0.52955138426E+03  0.00000000000E+00 0. -1.
        -12    1    5    5    0    0 -0.18412599311E+02  0.30275486122E+02  0.13747399296E+03  0.14196734700E+03  0.00000000000E+00 0.  1.
          5    1    4    4  501    0 -0.73537138714E+01 -0.36216600107E+02 -0.18518325837E+02  0.41546600617E+02  0.41800000000E+01 0.  1.
         -5    1    4    4    0  501 -0.44176397287E+02  0.10160704135E+03 -0.10993320309E+03  0.15613560284E+03  0.41800000000E+01 0.  1.
</event>
<event>
11    1  0.8039394E-009  0.1601019E+03  0.7561462E-02  0.1086981E+00
         22   -1    0    0    0    0  0.00000000000E+00  0.00000000000E+00  0.74966492738E+03  0.74966492738E+03  0.00000000000E+00 0.  1.
         22   -1    0    0    0    0 -0.00000000000E+00 -0.00000000000E+00 -0.13350608145E+03  0.13350608145E+03  0.00000000000E+00 0.  1.
         24    2    1    2    0    0  0.28462584524E+02 -0.83193811699E+01 -0.78820625216E+02  0.11650078923E+03  0.80501006894E+02 0.  0.
         25    2    1    2    0    0 -0.24712846654E+02  0.10622548122E+03  0.22460409211E+03  0.27926445301E+03  0.12508820437E+03 0.  0.
        -24    2    1    2    0    0 -0.37497378707E+01 -0.97906100054E+02  0.47037537904E+03  0.48740576659E+03  0.81925082443E+02 0.  0.
        -11    1    3    3    0    0  0.55458207132E+02 -0.63906430867E+01 -0.66322807259E+02  0.86690067598E+02  0.00000000000E+00 0.  1.
         12    1    3    3    0    0 -0.26995622608E+02 -0.19287380832E+01 -0.12497817957E+02  0.29810721633E+02  0.00000000000E+00 0. -1.
         11    1    5    5    0    0  0.27665888349E+02 -0.10857664411E+02  0.63105015695E+02  0.69753374546E+02  0.00000000000E+00 0. -1.
        -12    1    5    5    0    0 -0.31415626220E+02 -0.87048435643E+02  0.40727036335E+03  0.41765239204E+03  0.00000000000E+00 0.  1.
          5    1    4    4  501    0 -0.52291639075E+02  0.12800116076E+02  0.30419090931E+02  0.61976221100E+02  0.41800000000E+01 0.  1.
         -5    1    4    4    0  501  0.27578792421E+02  0.93425365147E+02  0.19418500118E+03  0.21728823191E+03  0.41800000000E+01 0.  1.
</event>
<event>
11    1  0.8039394E-009  0.1341966E+03  0.7561462E-02  0.1114218E+00
         22   -1    0    0    0    0  0.00000000000E+00  0.00000000000E+00  0.40585113032E+03  0.40585113032E+03  0.00000000000E+00 0.  1.
         22   -1    0    0    0    0 -0.00000000000E+00 -0.00000000000E+00 -0.31277980571E+04  0.31277980571E+04  0.00000000000E+00 0. -1.
        -24    2    1    2    0    0 -0.12755336651E+01  0.24546938443E+02 -0.30561915576E+04  0.30573256410E+04  0.79555384628E+02 0.  0.
         25    2    1    2    0    0 -0.35359003384E+02 -0.54301052559E+02  0.12723857232E+02  0.14145057859E+03  0.12508999245E+03 0.  0.
         24    2    1    2    0    0  0.36634537049E+02  0.29754114117E+02  0.32152077363E+03  0.33487296778E+03  0.80851098111E+02 0.  0.
        -11    1    5    5    0    0  0.30591444027E+02  0.51801013926E+02  0.28853615095E+03  0.29474105906E+03  0.00000000000E+00 0.  1.
         12    1    5    5    0    0  0.60430930219E+01 -0.22046899809E+02  0.32984622678E+02  0.40131908722E+02  0.00000000000E+00 0. -1.
         11    1    3    3    0    0 -0.26770636498E+02  0.39940314069E+02 -0.13137559080E+04  0.13146354938E+04  0.00000000000E+00 0. -1.
        -12    1    3    3    0    0  0.25495102833E+02 -0.15393375626E+02 -0.17424356496E+04  0.17426901472E+04  0.00000000000E+00 0.  1.
          5    1    4    4  501    0 -0.36646139395E+02 -0.38171421557E+02 -0.52178193768E+02  0.74431399699E+02  0.41800000000E+01 0.  1.
         -5    1    4    4    0  501  0.12871360110E+01 -0.16129631002E+02  0.64902051000E+02  0.67019178893E+02  0.41800000000E+01 0.  1.
</event>
<event>
11    1  0.8039394E-009  0.1338438E+03  0.7561462E-02  0.1114634E+00
         22   -1    0    0    0    0  0.00000000000E+00  0.00000000000E+00  0.11962639937E+04  0.11962639937E+04  0.00000000000E+00 0.  1.
         22   -1    0    0    0    0 -0.00000000000E+00 -0.00000000000E+00 -0.61306339599E+02  0.61306339599E+02  0.00000000000E+00 0.  1.
        -24    2    1    2    0    0 -0.34627392990E+02  0.12689156987E+02  0.14743770321E+02  0.89487670984E+02  0.80190981068E+02 0.  0.
         25    2    1    2    0    0  0.70443742335E+02 -0.38253526211E+02  0.23448016682E+03  0.27759759611E+03  0.12511524141E+03 0.  0.
         24    2    1    2    0    0 -0.35816349345E+02  0.25564369224E+02  0.88573371699E+03  0.89048506623E+03  0.80641725635E+02 0.  0.
        -11    1    5    5    0    0 -0.18677019564E+01  0.27743197633E+02  0.75128512271E+03  0.75179951379E+03  0.00000000000E+00 0.  1.
         12    1    5    5    0    0 -0.33948647389E+02 -0.21788284093E+01  0.13444859428E+03  0.13868555245E+03  0.00000000000E+00 0. -1.
         11    1    3    3    0    0 -0.38989487301E+02 -0.27516099435E+02  0.58328126168E+01  0.48076372067E+02  0.00000000000E+00 0. -1.
        -12    1    3    3    0    0  0.43620943111E+01  0.40205256423E+02  0.89109577041E+01  0.41411298917E+02  0.00000000000E+00 0.  1.
          5    1    4    4  501    0 -0.23640739624E+02  0.17896132074E+02  0.18010302512E+02  0.34942803404E+02  0.41800000000E+01 0.  1.
         -5    1    4    4    0  501  0.94084481960E+02 -0.56149658285E+02  0.21646986430E+03  0.24265479271E+03  0.41800000000E+01 0.  1.
</event>
<event>
11    1  0.8039394E-009  0.1362200E+03  0.7561462E-02  0.1111854E+00
         22   -1    0    0    0    0  0.00000000000E+00  0.00000000000E+00  0.22323734828E+04  0.22323734828E+04  0.00000000000E+00 0. -1.
         22   -1    0    0    0    0 -0.00000000000E+00 -0.00000000000E+00 -0.29895916479E+04  0.29895916479E+04  0.00000000000E+00 0. -1.
         24    2    1    2    0    0 -0.33621558217E+02  0.55745439009E+01 -0.29811823873E+04  0.29824776402E+04  0.81012120480E+02 0.  0.
         25    2    1    2    0    0 -0.22387968436E+02  0.17568951270E+02  0.65761173713E+03  0.67000742411E+03  0.12508741891E+03 0.  0.
        -24    2    1    2    0    0  0.56009526653E+02 -0.23143495170E+02  0.15663524851E+04  0.15694800663E+04  0.78325491194E+02 0.  0.
        -11    1    3    3    0    0 -0.21694289289E+02  0.17901884298E+02 -0.31837813111E+03  0.31961813782E+03  0.00000000000E+00 0.  1.
         12    1    3    3    0    0 -0.11927268929E+02 -0.12327340397E+02 -0.26628042562E+04  0.26628595024E+04  0.00000000000E+00 0. -1.
         11    1    5    5    0    0  0.71999599252E+02 -0.21143241392E+02  0.14586260398E+04  0.14605549983E+04  0.00000000000E+00 0. -1.
        -12    1    5    5    0    0 -0.15990072599E+02 -0.20002537784E+01  0.10772644526E+03  0.10892506803E+03  0.00000000000E+00 0.  1.
          5    1    4    4  501    0 -0.45265948323E+02 -0.41244685768E+02  0.40358713804E+03  0.40822809871E+03  0.41800000000E+01 0. -1.
         -5    1    4    4    0  501  0.22877979888E+02  0.58813637038E+02  0.25402459909E+03  0.26177932540E+03  0.41800000000E+01 0. -1.
</event>
<event>
11    1  0.8039394E-009  0.1650182E+03  0.7561462E-02  0.1082450E+00
         22   -1    0    0    0    0  0.00000000000E+00  0.00000000000E+00  0.43671491035E+03  0.43671491035E+03  0.00000000000E+00 0.  1.
         22   -1    0    0    0    0 -0.00000000000E+00 -0.00000000000E+00 -0.18150894759E+04  0.18150894759E+04  0.00000000000E+00 0.  1.
        -24    2    1    2    0    0 -0.85025773570E+02  0.68757014186E+02 -0.17287017972E+04  0.17332925509E+04  0.62739573367E+02 0.  0.
         25    2    1    2    0    0  0.76320141693E+02  0.83203317948E+01 -0.42327437167E+01  0.14682279454E+03  0.12508007407E+03 0.  0.
         24    2    1    2    0    0  0.87056318764E+01 -0.77077345981E+02  0.35455997533E+03  0.37168904088E+03  0.80145253864E+02 0.  0.
        -13    1    5    5    0    0  0.20501233358E+02 -0.89474525341E+02  0.32297906971E+03  0.33576996698E+03  0.00000000000E+00 0.  1.
         14    1    5    5    0    0 -0.11795601482E+02  0.12397179360E+02  0.31580905622E+02  0.35919073906E+02  0.00000000000E+00 0. -1.
         11    1    3    3    0    0 -0.88318064356E+01  0.15888701477E+02 -0.82428075173E+02  0.84408762675E+02  0.00000000000E+00 0. -1.
        -12    1    3    3    0    0 -0.76193967134E+02  0.52868312709E+02 -0.16462737220E+04  0.16488837882E+04  0.00000000000E+00 0.  1.
          5    1    4    4  501    0 -0.21383230602E+02  0.30187290085E+02  0.21993404693E+02  0.43239996342E+02  0.41800000000E+01 0.  1.
         -5    1    4    4    0  501  0.97703372295E+02 -0.21866958290E+02 -0.26226148410E+02  0.10358279820E+03  0.41800000000E+01 0.  1.
</event>
<event>
11    1  0.8039394E-009  0.1674877E+03  0.7561462E-02  0.1080239E+00
         22   -1    0    0    0    0  0.00000000000E+00  0.00000000000E+00  0.63642730303E+03  0.63642730303E+03  0.00000000000E+00 0. -1.
         22   -1    0    0    0    0 -0.00000000000E+00 -0.00000000000E+00 -0.54622020977E+03  0.54622020977E+03  0.00000000000E+00 0.  1.
        -24    2    1    2    0    0 -0.10064653593E+03  0.49042279565E+02 -0.50428789140E+03  0.52263875789E+03  0.79436285535E+02 0.  0.
         25    2    1    2    0    0  0.90511707633E+02 -0.37044204939E+02  0.18836929518E+03  0.24636313053E+03  0.12508860211E+03 0.  0.
         24    2    1    2    0    0  0.10134828298E+02 -0.11998074627E+02  0.40612568947E+03  0.41364562438E+03  0.76928267770E+02 0.  0.
        -11    1    5    5    0    0  0.19603022370E+02 -0.25875542566E+02  0.70667944119E+02  0.77767477233E+02  0.00000000000E+00 0.  1.
         12    1    5    5    0    0 -0.94681940719E+01  0.13877467939E+02  0.33545774535E+03  0.33587814715E+03  0.00000000000E+00 0. -1.
         11    1    3    3    0    0 -0.23773690211E+02  0.52851024440E+02 -0.17005527933E+03  0.17965861281E+03  0.00000000000E+00 0. -1.
        -12    1    3    3    0    0 -0.76872845721E+02 -0.38087448748E+01 -0.33423261207E+03  0.34298014508E+03  0.00000000000E+00 0.  1.
          5    1    4    4  501    0  0.80331083673E+02 -0.24808382431E+02  0.20582463815E+03  0.22237309395E+03  0.41800000000E+01 0. -1.
         -5    1    4    4    0  501  0.10180623961E+02 -0.12235822508E+02 -0.17455342972E+02  0.23990036576E+02  0.41800000000E+01 0. -1.
</event>
<event>
11    1  0.8039394E-009  0.1344302E+03  0.7561462E-02  0.1113942E+00
         22   -1    0    0    0    0  0.00000000000E+00  0.00000000000E+00  0.24205974656E+03  0.24205974656E+03  0.00000000000E+00 0. -1.
         22   -1    0    0    0    0 -0.00000000000E+00 -0.00000000000E+00 -0.19175714808E+04  0.19175714808E+04  0.00000000000E+00 0.  1.
        -24    2    1    2    0    0 -0.35283766596E+02  0.78255608960E+01 -0.14759124688E+04  0.14785625282E+04  0.80767261573E+02 0.  0.
         25    2    1    2    0    0  0.98765550415E+01 -0.50296822156E+02 -0.42025614313E+03  0.44146161539E+03  0.12508323377E+03 0.  0.
         24    2    1    2    0    0  0.25407211555E+02  0.42471261260E+02  0.22065687774E+03  0.23960708376E+03  0.79200773128E+02 0.  0.
        -13    1    5    5    0    0  0.39627075316E+02 -0.30854505106E+01  0.59677120868E+02  0.71702049190E+02  0.00000000000E+00 0.  1.
         14    1    5    5    0    0 -0.14219863762E+02  0.45556711770E+02  0.16097975687E+03  0.16790503457E+03  0.00000000000E+00 0. -1.
         11    1    3    3    0    0  0.10114415013E+02  0.26108131500E+02 -0.23134364459E+03  0.23303179572E+03  0.00000000000E+00 0. -1.
        -12    1    3    3    0    0 -0.45398181609E+02 -0.18282570604E+02 -0.12445688242E+04  0.12455307325E+04  0.00000000000E+00 0.  1.
          5    1    4    4  501    0 -0.96993670261E+01 -0.56189079122E+02 -0.69099613688E+02  0.89685669675E+02  0.41800000000E+01 0.  1.
         -5    1    4    4    0  501  0.19575922068E+02  0.58922569660E+01 -0.35115652944E+03  0.35177594572E+03  0.41800000000E+01 0.  1.
</event>
<event>
11    1  0.8039394E-009  0.1929466E+03  0.7561462E-02  0.1059627E+00
         22   -1    0    0    0    0  0.00000000000E+00  0.00000000000E+00  0.10597772290E+04  0.10597772290E+04  0.00000000000E+00 0.  1.
         22   -1    0    0    0    0 -0.00000000000E+00 -0.00000000000E+00 -0.79536596820E+03  0.79536596820E+03  0.00000000000E+00 0. -1.
         24    2    1    2    0    0 -0.14203338032E+03 -0.22845359336E+02 -0.69289300322E+03  0.71221360412E+03  0.80325042224E+02 0.  0.
         25    2    1    2    0    0  0.18615911868E+03  0.10228141529E+03  0.82829482635E+02  0.26004746984E+03  0.12508900030E+03 0.  0.
        -24    2    1    2    0    0 -0.44125738362E+02 -0.79436055949E+02  0.87447478141E+03  0.88288212326E+03  0.80731236169E+02 0.  0.
        -11    1    3    3    0    0 -0.23914903551E+02  0.15421677851E+02 -0.50809567250E+02  0.58235409192E+02  0.00000000000E+00 0.  1.
         12    1    3    3    0    0 -0.11811847677E+03 -0.38267037187E+02 -0.64208343597E+03  0.65397819492E+03  0.00000000000E+00 0. -1.
         11    1    5    5    0    0 -0.44518799272E+02 -0.43219259166E+01  0.25806574344E+03  0.26191321171E+03  0.00000000000E+00 0. -1.
        -12    1    5    5    0    0  0.39306091001E+00 -0.75114130033E+02  0.61640903797E+03  0.62096891155E+03  0.00000000000E+00 0.  1.
          5    1    4    4  501    0  0.18166619651E+03  0.12204826876E+03  0.91955649971E+02  0.23742725375E+03  0.41800000000E+01 0. -1.
         -5    1    4    4    0  501  0.44929221707E+01 -0.19766853470E+02 -0.91261673362E+01  0.22620216091E+02  0.41800000000E+01 0. -1.
</event>
<event>
11    1  0.8039394E-009  0.1350952E+03  0.7561462E-02  0.1113162E+00
         22   -1    0    0    0    0  0.00000000000E+00  0.00000000000E+00  0.67561978251E+03  0.67561978251E+03  0.00000000000E+00 0. -1.
         22   -1    0    0    0    0 -0.00000000000E+00 -0.00000000000E+00 -0.48777839884E+03  0.48777839884E+03  0.00000000000E+00 0. -1.
         24    2    1    2    0    0  0.21303373569E+02  0.42001768655E+02 -0.35796922976E+03  0.37018382936E+03  0.81707501278E+02 0.  0.
         25    2    1    2    0    0 -0.38809140487E+02 -0.71071359552E+02 -0.74589836332E+02  0.16662639881E+03  0.12507368053E+03 0.  0.
        -24    2    1    2    0    0  0.17505766917E+02  0.29069590897E+02  0.62040044977E+03  0.62658795319E+03  0.81020071709E+02 0.  0.
        -11    1    3    3    0    0 -0.79459962582E+01 -0.37047620592E+01 -0.67585973382E+00  0.87932306253E+01  0.00000000000E+00 0.  1.
         12    1    3    3    0    0  0.29249369828E+02  0.45706530714E+02 -0.35729337003E+03  0.36139059873E+03  0.00000000000E+00 0. -1.
         11    1    5    5    0    0  0.14227433943E+02 -0.12065223257E+02  0.47709554580E+03  0.47746010232E+03  0.00000000000E+00 0. -1.
        -12    1    5    5    0    0  0.32783329743E+01  0.41134814154E+02  0.14330490397E+03  0.14912785087E+03  0.00000000000E+00 0.  1.
          5    1    4    4  501    0 -0.63649212849E+02 -0.46859067925E+02  0.54066016439E+01  0.79332832323E+02  0.41800000000E+01 0. -1.
         -5    1    4    4    0  501  0.24840072362E+02 -0.24212291627E+02 -0.79996437976E+02  0.87293566485E+02  0.41800000000E+01 0. -1.
</event>
<event>
11    1  0.8039394E-009  0.1361234E+03  0.7561462E-02  0.1111966E+00
         22   -1    0    0    0    0  0.00000000000E+00  0.00000000000E+00  0.17908510407E+04  0.17908510407E+04  0.00000000000E+00 0. -1.
         22   -1    0    0    0    0 -0.00000000000E+00 -0.00000000000E+00 -0.19617022329E+02  0.19617022329E+02  0.00000000000E+00 0. -1.
         24    2    1    2    0    0  0.91477953889E+01 -0.56462240860E+02  0.21724209542E+03  0.24071440744E+03  0.86473297159E+02 0.  0.
         25    2    1    2    0    0  0.20136645640E+02  0.43512948059E+02  0.80819868092E+03  0.81922599690E+03  0.12508902833E+03 0.  0.
        -24    2    1    2    0    0 -0.29284441029E+02  0.12949292802E+02  0.74579324203E+03  0.75052765869E+03  0.77839218473E+02 0.  0.
        -13    1    3    3    0    0  0.28306955992E+02  0.84322569775E+00  0.13900697519E+03  0.14186237676E+03  0.00000000000E+00 0.  1.
         14    1    3    3    0    0 -0.19159160603E+02 -0.57305466558E+02  0.78235120230E+02  0.98852030681E+02  0.00000000000E+00 0. -1.
         11    1    5    5    0    0 -0.15378886937E+02  0.36059227962E+02  0.64493936930E+03  0.64612968370E+03  0.00000000000E+00 0. -1.
        -12    1    5    5    0    0 -0.13905554092E+02 -0.23109935160E+02  0.10085387272E+03  0.10439797499E+03  0.00000000000E+00 0.  1.
          5    1    4    4  501    0 -0.47976100208E+02  0.44342260251E+02  0.42093472492E+03  0.42599466813E+03  0.41800000000E+01 0. -1.
         -5    1    4    4    0  501  0.68112745848E+02 -0.82931219224E+00  0.38726395600E+03  0.39323132877E+03  0.41800000000E+01 0. -1.
</event>
<event>
11    1  0.8039394E-009  0.1461919E+03  0.7561462E-02  0.1100835E+00
         22   -1    0    0    0    0  0.00000000000E+00  0.00000000000E+00  0.32320344241E+04  0.32320344241E+04  0.00000000000E+00 0. -1.
         22   -1    0    0    0    0 -0.00000000000E+00 -0.00000000000E+00 -0.13921887469E+03  0.13921887469E+03  0.00000000000E+00 0.  1.
         24    2    1    2    0    0  0.18922567793E+02 -0.72787480343E+02 -0.11029341497E+03  0.15598799883E+03  0.80694098452E+02 0.  0.
         25    2    1    2    0    0 -0.36319632433E+02  0.94688991307E+02  0.12591607674E+04  0.12694165624E+04  0.12508976748E+03 0.  0.
        -24    2    1    2    0    0  0.17397064640E+02 -0.21901510964E+02  0.19439481970E+04  0.19458487376E+04  0.81304261750E+02 0.  0.
        -13    1    3    3    0    0  0.50141937131E+02 -0.42410870958E+02 -0.76737458787E+02  0.10100264064E+03  0.00000000000E+00 0.  1.
         14    1    3    3    0    0 -0.31219369338E+02 -0.30376609385E+02 -0.33555956185E+02  0.54985358188E+02  0.00000000000E+00 0. -1.
         13    1    5    5    0    0  0.29612897034E+02  0.83265890767E+01  0.16141146192E+04  0.16144077117E+04  0.00000000000E+00 0. -1.
        -14    1    5    5    0    0 -0.12215832393E+02 -0.30228100041E+02  0.32983357779E+03  0.33144102587E+03  0.00000000000E+00 0.  1.
          5    1    4    4  501    0 -0.19325414791E+01  0.10771813445E+03  0.62928054953E+03  0.63845000871E+03  0.41800000000E+01 0.  1.
         -5    1    4    4    0  501 -0.34387090954E+02 -0.13029143138E+02  0.62988021792E+03  0.63096655373E+03  0.41800000000E+01 0.  1.
</event>
<event>
11    1  0.8039394E-009  0.1330541E+03  0.7561462E-02  0.1115572E+00
         22   -1    0    0    0    0  0.00000000000E+00  0.00000000000E+00  0.78100278031E+03  0.78100278031E+03  0.00000000000E+00 0. -1.
         22   -1    0    0    0    0 -0.00000000000E+00 -0.00000000000E+00 -0.13397217323E+04  0.13397217323E+04  0.00000000000E+00 0. -1.
        -24    2    1    2    0    0 -0.58209659680E+01 -0.44724794319E+02 -0.13049220006E+04  0.13081332465E+04  0.79730622568E+02 0.  0.
         25    2    1    2    0    0  0.18230279824E+02  0.68796051114E+02  0.14092957168E+03  0.20143034493E+03  0.12509116650E+03 0.  0.
         24    2    1    2    0    0 -0.12409313856E+02 -0.24071256795E+02  0.60527347689E+03  0.61116092118E+03  0.80176513216E+02 0.  0.
        -13    1    5    5    0    0 -0.11503016225E+02  0.15937563822E+02  0.40976311520E+02  0.45446489729E+02  0.00000000000E+00 0.  1.
         14    1    5    5    0    0 -0.90629763104E+00 -0.40008820617E+02  0.56429716537E+03  0.56571443145E+03  0.00000000000E+00 0. -1.
         13    1    3    3    0    0 -0.47362299619E+01 -0.67557139029E+02 -0.10534070162E+04  0.10555817073E+04  0.00000000000E+00 0. -1.
        -14    1    3    3    0    0 -0.10847360061E+01  0.22832344710E+02 -0.25151498436E+03  0.25255153925E+03  0.00000000000E+00 0.  1.
          5    1    4    4  501    0 -0.98226034002E+01  0.40692989442E+02  0.15382323023E+03  0.15947244742E+03  0.41800000000E+01 0. -1.
         -5    1    4    4    0  501  0.28052883224E+02  0.28103061672E+02 -0.12893658557E+02  0.41957897511E+02  0.41800000000E+01 0. -1.
</event>
<event>
11    1  0.8039394E-009  0.2141660E+03  0.7561462E-02  0.1044935E+00
         22   -1    0    0    0    0  0.00000000000E+00  0.00000000000E+00  0.38464683250E+04  0.38464683250E+04  0.00000000000E+00 0. -1.
         22   -1    0    0    0    0 -0.00000000000E+00 -0.00000000000E+00 -0.19495672238E+03  0.19495672238E+03  0.00000000000E+00 0. -1.
        -24    2    1    2    0    0  0.68162984078E+02 -0.15857517478E+03 -0.10119702599E+03  0.21477892227E+03  0.78082449547E+02 0.  0.
         25    2    1    2    0    0 -0.11469672752E+03  0.14714573815E+03  0.31077835966E+03  0.38345473547E+03  0.12508851969E+03 0.  0.
         24    2    1    2    0    0  0.46533743439E+02  0.11429436634E+02  0.34419302689E+04  0.34431913896E+04  0.79918383950E+02 0.  0.
        -13    1    5    5    0    0 -0.18356482925E+02 -0.93764187470E+01  0.43387589723E+03  0.43436525170E+03  0.00000000000E+00 0.  1.
         14    1    5    5    0    0  0.64890226364E+02  0.20805855381E+02  0.30080543717E+04  0.30088261379E+04  0.00000000000E+00 0. -1.
         11    1    3    3    0    0  0.10889117711E+02 -0.80940022776E+02 -0.83301765548E+02  0.11665780863E+03  0.00000000000E+00 0. -1.
        -12    1    3    3    0    0  0.57273866367E+02 -0.77635152005E+02 -0.17895260446E+02  0.98121113640E+02  0.00000000000E+00 0.  1.
          5    1    4    4  501    0 -0.12734975986E+03  0.99213378032E+02  0.17153542787E+03  0.23559102515E+03  0.41800000000E+01 0.  1.
         -5    1    4    4    0  501  0.12653032344E+02  0.47932360116E+02  0.13924293179E+03  0.14786371032E+03  0.41800000000E+01 0.  1.
</event>
<event>
11    1  0.8039394E-009  0.1517054E+03  0.7561462E-02  0.1095149E+00
         22   -1    0    0    0    0  0.00000000000E+00  0.00000000000E+00  0.12931058650E+04  0.12931058650E+04  0.00000000000E+00 0. -1.
         22   -1    0    0    0    0 -0.00000000000E+00 -0.00000000000E+00 -0.99623217205E+03  0.99623217205E+03  0.00000000000E+00 0.  1.
         24    2    1    2    0    0  0.84871756315E+02 -0.13254858141E+02 -0.96301720820E+03  0.97210281039E+03  0.10100903123E+03 0.  0.
         25    2    1    2    0    0 -0.81078989922E+02  0.16504795069E+02  0.17955120006E+03  0.23394963835E+03  0.12509032326E+03 0.  0.
        -24    2    1    2    0    0 -0.37927663932E+01 -0.32499369274E+01  0.10803397011E+04  0.10832855883E+04  0.79679664432E+02 0.  0.
        -13    1    3    3    0    0  0.40034020997E+02 -0.20744960037E+02 -0.83566164181E+03  0.83687720473E+03  0.00000000000E+00 0.  1.
         14    1    3    3    0    0  0.44837735318E+02  0.74901018958E+01 -0.12735556639E+03  0.13522560565E+03  0.00000000000E+00 0. -1.
         13    1    5    5    0    0  0.20239668665E+02 -0.31830425793E+02  0.72706977372E+03  0.72804757815E+03  0.00000000000E+00 0. -1.
        -14    1    5    5    0    0 -0.24032435058E+02  0.28580488865E+02  0.35326992735E+03  0.35523801014E+03  0.00000000000E+00 0.  1.
          5    1    4    4  501    0 -0.26123685331E+02 -0.79338949440E+01  0.17081143790E+03  0.17303009374E+03  0.41800000000E+01 0.  1.
         -5    1    4    4    0  501 -0.54955304591E+02  0.24438690013E+02  0.87397621629E+01  0.60919544605E+02  0.41800000000E+01 0.  1.
</event>
<event>
11    1  0.8039394E-009  0.1505861E+03  0.7561462E-02  0.1096281E+00
         22   -1    0    0    0    0  0.00000000000E+00  0.00000000000E+00  0.12159758702E+04  0.12159758702E+04  0.00000000000E+00 0.  1.
         22   -1    0    0    0    0 -0.00000000000E+00 -0.00000000000E+00 -0.26499119420E+03  0.26499119420E+03  0.00000000000E+00 0. -1.
        -24    2    1    2    0    0 -0.13290833875E+01  0.13788899733E+02 -0.13182594403E+03  0.15516070548E+03  0.80652741971E+02 0.  0.
         25    2    1    2    0    0  0.40783803876E+02 -0.87459752737E+02 -0.65893355035E+02  0.17115541269E+03  0.12505884234E+03 0.  0.
         24    2    1    2    0    0 -0.39454720489E+02  0.73670853004E+02  0.11487039751E+04  0.11546509462E+04  0.81938487666E+02 0.  0.
        -11    1    5    5    0    0 -0.16351056344E+02  0.87517782429E+02  0.81024903513E+03  0.81512589102E+03  0.00000000000E+00 0.  1.
         12    1    5    5    0    0 -0.23103664144E+02 -0.13846929426E+02  0.33845493994E+03  0.33952505522E+03  0.00000000000E+00 0. -1.
         13    1    3    3    0    0 -0.40515423057E+02  0.17139399851E+01 -0.71933416835E+02  0.82576349843E+02  0.00000000000E+00 0. -1.
        -14    1    3    3    0    0  0.39186339670E+02  0.12074959748E+02 -0.59892527196E+02  0.72584355639E+02  0.00000000000E+00 0.  1.
          5    1    4    4  501    0  0.65598688540E+02 -0.30310977226E+02 -0.79216112744E+02  0.10730614240E+03  0.41800000000E+01 0. -1.
         -5    1    4    4    0  501 -0.24814884664E+02 -0.57148775511E+02  0.13322757709E+02  0.63849270288E+02  0.41800000000E+01 0. -1.
</event>
<event>
11    1  0.8039394E-009  0.1598175E+03  0.7561462E-02  0.1087249E+00
         22   -1    0    0    0    0  0.00000000000E+00  0.00000000000E+00  0.89621213692E+03  0.89621213692E+03  0.00000000000E+00 0.  1.
         22   -1    0    0    0    0 -0.00000000000E+00 -0.00000000000E+00 -0.10783311450E+03  0.10783311450E+03  0.00000000000E+00 0. -1.
        -24    2    1    2    0    0 -0.54765756236E+01  0.50495748669E+02 -0.55712251982E+02  0.10940197958E+03  0.79278777747E+02 0.  0.
         25    2    1    2    0    0  0.66795057800E+02 -0.10754338518E+03  0.49603734186E+03  0.52699801780E+03  0.12508679709E+03 0.  0.
         24    2    1    2    0    0 -0.61318482176E+02  0.57047636512E+02  0.34805393254E+03  0.36764525404E+03  0.83708445059E+02 0.  0.
        -13    1    5    5    0    0 -0.31902669660E+02  0.46388402777E+02  0.32213117195E+03  0.32701399998E+03  0.00000000000E+00 0.  1.
         14    1    5    5    0    0 -0.29415812516E+02  0.10659233735E+02  0.25922760597E+02  0.40631254063E+02  0.00000000000E+00 0. -1.
         13    1    3    3    0    0 -0.20651549619E+02  0.59396561045E+02 -0.64201541718E+02  0.89868102932E+02  0.00000000000E+00 0. -1.
        -14    1    3    3    0    0  0.15174973995E+02 -0.89008123759E+01  0.84892897361E+01  0.19533876649E+02  0.00000000000E+00 0.  1.
          5    1    4    4  501    0  0.71855381533E+02 -0.11013903444E+03  0.26511952722E+03  0.29597236168E+03  0.41800000000E+01 0.  1.
         -5    1    4    4    0  501 -0.50603237332E+01  0.25956492580E+01  0.23091781463E+03  0.23102565612E+03  0.41800000000E+01 0.  1.
</event>
<event>
11    1  0.8039394E-009  0.2459266E+03  0.7561462E-02  0.1026092E+00
         22   -1    0    0    0    0  0.00000000000E+00  0.00000000000E+00  0.40387262643E+03  0.40387262643E+03  0.00000000000E+00 0.  1.
         22   -1    0    0    0    0 -0.00000000000E+00 -0.00000000000E+00 -0.11387891882E+04  0.11387891882E+04  0.00000000000E+00 0. -1.
         24    2    1    2    0    0  0.25572531130E+02 -0.29501701530E+02 -0.98687420270E+03  0.99160697498E+03  0.88540364394E+02 0.  0.
         25    2    1    2    0    0  0.37891292655E+02  0.22364686063E+03  0.77714511509E+02  0.27044574381E+03  0.12509071395E+03 0.  0.
        -24    2    1    2    0    0 -0.63463823785E+02 -0.19414515910E+03  0.17424312943E+03  0.28060909585E+03  0.81613704658E+02 0.  0.
        -11    1    3    3    0    0  0.72448171891E+01  0.18755514196E+02 -0.59658888821E+02  0.62955855202E+02  0.00000000000E+00 0.  1.
         12    1    3    3    0    0  0.18327713941E+02 -0.48257215726E+02 -0.92721531388E+03  0.92865111978E+03  0.00000000000E+00 0. -1.
         13    1    5    5    0    0 -0.35744697353E+02 -0.12641447786E+03  0.58813758509E+02  0.14393526945E+03  0.00000000000E+00 0. -1.
        -14    1    5    5    0    0 -0.27719126432E+02 -0.67730681237E+02  0.11542937092E+03  0.13667382639E+03  0.00000000000E+00 0.  1.
          5    1    4    4  501    0  0.53601237681E+02  0.12814123846E+03 -0.10582907018E+02  0.13936549069E+03  0.41800000000E+01 0. -1.
         -5    1    4    4    0  501 -0.15709945026E+02  0.95505622172E+02  0.88297418526E+02  0.13108025312E+03  0.41800000000E+01 0. -1.
</event>
<event>
11    1  0.8039394E-009  0.1688179E+03  0.7561462E-02  0.1079065E+00
         22   -1    0    0    0    0  0.00000000000E+00  0.00000000000E+00  0.72493680432E+03  0.72493680432E+03  0.00000000000E+00 0. -1.
         22   -1    0    0    0    0 -0.00000000000E+00 -0.00000000000E+00 -0.55674958912E+03  0.55674958912E+03  0.00000000000E+00 0.  1.
        -24    2    1    2    0    0  0.30444731899E+02 -0.15214309131E+02 -0.47459706430E+03  0.48262736441E+03  0.80798778000E+02 0.  0.
         25    2    1    2    0    0 -0.12924022053E+03  0.63224617317E+02  0.59661230943E+02  0.19976981128E+03  0.12509247853E+03 0.  0.
         24    2    1    2    0    0  0.98795488629E+02 -0.48010308187E+02  0.58312304856E+03  0.59928921774E+03  0.83961529738E+02 0.  0.
        -11    1    5    5    0    0  0.87410460692E+02 -0.89474455149E+01  0.28042303415E+03  0.29386684655E+03  0.00000000000E+00 0.  1.
         12    1    5    5    0    0  0.11385027937E+02 -0.39062862672E+02  0.30270001441E+03  0.30542237119E+03  0.00000000000E+00 0. -1.
         13    1    3    3    0    0  0.29804185497E+01  0.28987021464E+02 -0.91922167289E+02  0.96430364239E+02  0.00000000000E+00 0. -1.
        -14    1    3    3    0    0  0.27464313349E+02 -0.44201330595E+02 -0.38267489702E+03  0.38619700017E+03  0.00000000000E+00 0.  1.
          5    1    4    4  501    0 -0.27433656769E+02 -0.73095828269E+01 -0.33957027764E+02  0.44458831062E+02  0.41800000000E+01 0.  1.
         -5    1    4    4    0  501 -0.10180656376E+03  0.70534200144E+02  0.93618258707E+02  0.15531098022E+03  0.41800000000E+01 0.  1.
</event>
<event>
11    1  0.9896111E-009  0.1823431E+03  0.7561462E-02  0.1067763E+00
         22   -1    0    0    0    0  0.00000000000E+00  0.00000000000E+00  0.38215445670E+03  0.38215445670E+03  0.00000000000E+00 0. -1.
         22   -1    0    0    0    0 -0.00000000000E+00 -0.00000000000E+00 -0.18310635039E+04  0.18310635039E+04  0.00000000000E+00 0. -1.
        -24    2    1    2    0    0  0.58070383575E+01  0.12855990334E+03 -0.15799491303E+04  0.15872499245E+04  0.81004308385E+02 0.  0.
         25    2    1    2    0    0  0.30619262352E+02 -0.19810072020E+03 -0.17819230705E+03  0.29594146210E+03  0.12508963237E+03 0.  0.
         24    2    1    2    0    0 -0.36426300709E+02  0.69540816865E+02  0.30923239013E+03  0.33002657404E+03  0.84439729210E+02 0.  0.
        -11    1    5    5    0    0  0.20087316962E+02  0.46949488057E+02  0.10242066398E+03  0.11444538934E+03  0.00000000000E+00 0.  1.
         12    1    5    5    0    0 -0.56513617672E+02  0.22591328808E+02  0.20681172616E+03  0.21558118470E+03  0.00000000000E+00 0. -1.
         11    1    3    3    0    0  0.48163400131E+01  0.11898513658E+03 -0.15646464558E+04  0.15691714984E+04  0.00000000000E+00 0. -1.
        -12    1    3    3    0    0  0.99069834436E+00  0.95747667512E+01 -0.15302674557E+02  0.18078426097E+02  0.00000000000E+00 0.  1.
          5    1    4    4  501    0  0.48782156140E+02 -0.12863256901E+03 -0.17672933743E+03  0.22400171355E+03  0.41800000000E+01 0.  1.
         -5    1    4    4    0  501 -0.18162893788E+02 -0.69468151186E+02 -0.14629696224E+01  0.71939748541E+02  0.41800000000E+01 0.  1.
</event>
<event>
11    1  0.8039394E-009  0.1935576E+03  0.7561462E-02  0.1059175E+00
         22   -1    0    0    0    0  0.00000000000E+00  0.00000000000E+00  0.45674725776E+03  0.45674725776E+03  0.00000000000E+00 0. -1.
         22   -1    0    0    0    0 -0.00000000000E+00 -0.00000000000E+00 -0.91910160159E+03  0.91910160159E+03  0.00000000000E+00 0.  1.
         24    2    1    2    0    0  0.76134674102E+02  0.59483719449E+01 -0.76641147543E+03  0.77442749440E+03  0.80743561259E+02 0.  0.
         25    2    1    2    0    0 -0.20216409727E+02 -0.14544610538E+03 -0.58441339214E+02  0.20155890225E+03  0.12508928074E+03 0.  0.
        -24    2    1    2    0    0 -0.55918264375E+02  0.13949773343E+03  0.36249847082E+03  0.39986246270E+03  0.76800897157E+02 0.  0.
        -11    1    3    3    0    0  0.74965364516E+02 -0.21132152453E+02 -0.66155693996E+03  0.66612608307E+03  0.00000000000E+00 0.  1.
         12    1    3    3    0    0  0.11693095854E+01  0.27080524398E+02 -0.10485453547E+03  0.10830141133E+03  0.00000000000E+00 0. -1.
         13    1    5    5    0    0 -0.73813302230E+02  0.93303465300E+02  0.24548904726E+03  0.27279811684E+03  0.00000000000E+00 0. -1.
        -14    1    5    5    0    0  0.17895037855E+02  0.46194268131E+02  0.11700942355E+03  0.12706434586E+03  0.00000000000E+00 0.  1.
          5    1    4    4  501    0 -0.57471141982E+02 -0.87802659229E+02  0.87921275165E+01  0.10538981466E+03  0.41800000000E+01 0. -1.
         -5    1    4    4    0  501  0.37254732255E+02 -0.57643446146E+02 -0.67233466731E+02  0.96169087589E+02  0.41800000000E+01 0. -1.
</event>
<event>
11    1  0.8039394E-009  0.1451555E+03  0.7561462E-02  0.1101934E+00
         22   -1    0    0    0    0  0.00000000000E+00  0.00000000000E+00  0.32536288046E+03  0.32536288046E+03  0.00000000000E+00 0. -1.
         22   -1    0    0    0    0 -0.00000000000E+00 -0.00000000000E+00 -0.61169313967E+03  0.61169313967E+03  0.00000000000E+00 0.  1.
        -24    2    1    2    0    0 -0.68876141377E+02  0.28333379421E+02 -0.50937062810E+03  0.52082659009E+03  0.79089802996E+02 0.  0.
         25    2    1    2    0    0  0.52194644159E+02 -0.44315004005E+02 -0.33460280314E+02  0.14647430877E+03  0.12508809821E+03 0.  0.
         24    2    1    2    0    0  0.16681497218E+02  0.15981624584E+02  0.25650064921E+03  0.26975512127E+03  0.80259315551E+02 0.  0.
        -13    1    5    5    0    0  0.10337968274E+02  0.30921121428E+02  0.35656546481E+02  0.48315407950E+02  0.00000000000E+00 0.  1.
         14    1    5    5    0    0  0.63435289445E+01 -0.14939496844E+02  0.22084410273E+03  0.22143971332E+03  0.00000000000E+00 0. -1.
         13    1    3    3    0    0 -0.36394678460E+02  0.30514750919E+02 -0.10611255799E+03  0.11625660242E+03  0.00000000000E+00 0. -1.
        -14    1    3    3    0    0 -0.32481462917E+02 -0.21813714986E+01 -0.40325807011E+03  0.40456998767E+03  0.00000000000E+00 0.  1.
          5    1    4    4  501    0  0.63058389038E+02 -0.73866486596E+02  0.40842415400E+01  0.97297336547E+02  0.41800000000E+01 0.  1.
         -5    1    4    4    0  501 -0.10863744880E+02  0.29551482591E+02 -0.37544521854E+02  0.49176972226E+02  0.41800000000E+01 0.  1.
</event>
<event>
11    1  0.8039394E-009  0.1372490E+03  0.7561462E-02  0.1110670E+00
         22   -1    0    0    0    0  0.00000000000E+00  0.00000000000E+00  0.60626131910E+02  0.60626131910E+02  0.00000000000E+00 0. -1.
         22   -1    0    0    0    0 -0.00000000000E+00 -0.00000000000E+00 -0.10129595183E+04  0.10129595183E+04  0.00000000000E+00 0. -1.
        -24    2    1    2    0    0  0.23250466131E+01  0.49117396789E+01 -0.35273426938E+03  0.36195026215E+03  0.80975282912E+02 0.  0.
         25    2    1    2    0    0  0.73808511989E+01  0.51164080937E+02 -0.59377135181E+03  0.60900274871E+03  0.12509072534E+03 0.  0.
         24    2    1    2    0    0 -0.97058978120E+01 -0.56075820616E+02 -0.58277652114E+01  0.10263263937E+03  0.85210291080E+02 0.  0.
        -11    1    5    5    0    0 -0.16383988278E+02 -0.70376247627E+01 -0.39115751196E+02  0.42988431302E+02  0.00000000000E+00 0.  1.
         12    1    5    5    0    0  0.66780904656E+01 -0.49038195853E+02  0.33287985984E+02  0.59644208065E+02  0.00000000000E+00 0. -1.
         13    1    3    3    0    0  0.38397627681E+02  0.16961927588E+02 -0.15452102495E+03  0.16012130386E+03  0.00000000000E+00 0. -1.
        -14    1    3    3    0    0 -0.36072581068E+02 -0.12050187909E+02 -0.19821324443E+03  0.20182895828E+03  0.00000000000E+00 0.  1.
          5    1    4    4  501    0  0.43901069223E+02  0.62000439703E+02 -0.21064640782E+03  0.22396593475E+03  0.41800000000E+01 0.  1.
         -5    1    4    4    0  501 -0.36520218024E+02 -0.10836358766E+02 -0.38312494399E+03  0.38503681396E+03  0.41800000000E+01 0.  1.
</event>
<event>
11    1  0.8039394E-009  0.1426435E+03  0.7561462E-02  0.1104642E+00
         22   -1    0    0    0    0  0.00000000000E+00  0.00000000000E+00  0.10479927214E+04  0.10479927214E+04  0.00000000000E+00 0.  1.
         22   -1    0    0    0    0 -0.00000000000E+00 -0.00000000000E+00 -0.64445067555E+03  0.64445067555E+03  0.00000000000E+00 0.  1.
        -24    2    1    2    0    0 -0.88175822975E+01  0.48534296838E+02 -0.58029200833E+03  0.58803799130E+03  0.81342095816E+02 0.  0.
         25    2    1    2    0    0  0.72444607787E+02 -0.21754512604E+02  0.35886122888E+02  0.15052480444E+03  0.12509365659E+03 0.  0.
         24    2    1    2    0    0 -0.63627025490E+02 -0.26779784234E+02  0.94794793132E+03  0.95388060125E+03  0.80730203347E+02 0.  0.
        -11    1    5    5    0    0 -0.73287552559E+02 -0.37678145824E+02  0.90012634697E+03  0.90389056226E+03  0.00000000000E+00 0.  1.
         12    1    5    5    0    0  0.96605270685E+01  0.10898361590E+02  0.47821584351E+02  0.49990038992E+02  0.00000000000E+00 0. -1.
         11    1    3    3    0    0  0.18062158823E+02 -0.16551460473E+02 -0.13314419185E+03  0.13537934942E+03  0.00000000000E+00 0. -1.
        -12    1    3    3    0    0 -0.26879741121E+02  0.65085757311E+02 -0.44714781648E+03  0.45265864188E+03  0.00000000000E+00 0.  1.
          5    1    4    4  501    0  0.84676943397E+02 -0.24743764728E+02  0.70788681041E+02  0.11318546019E+03  0.41800000000E+01 0.  1.
         -5    1    4    4    0  501 -0.12232335609E+02  0.29892521245E+01 -0.34902558153E+02  0.37339344241E+02  0.41800000000E+01 0.  1.
</event>
<event>
11    1  0.8039394E-009  0.2118940E+03  0.7561462E-02  0.1046417E+00
         22   -1    0    0    0    0  0.00000000000E+00  0.00000000000E+00  0.78078600331E+03  0.78078600331E+03  0.00000000000E+00 0. -1.
         22   -1    0    0    0    0 -0.00000000000E+00 -0.00000000000E+00 -0.83373902573E+03  0.83373902573E+03  0.00000000000E+00 0. -1.
        -24    2    1    2    0    0  0.52475840052E+02  0.11078638196E+03 -0.75254347785E+03  0.76657472748E+03  0.79295589641E+02 0.  0.
         25    2    1    2    0    0  0.50383992075E+01  0.79535940805E+02  0.39097060911E+02  0.15338493920E+03  0.12508800125E+03 0.  0.
         24    2    1    2    0    0 -0.57514239259E+02 -0.19032232276E+03  0.66049339451E+03  0.69456536236E+03  0.81480329731E+02 0.  0.
        -11    1    5    5    0    0 -0.44533753771E+02 -0.74625538444E+02  0.17607758658E+03  0.19635565362E+03  0.00000000000E+00 0.  1.
         12    1    5    5    0    0 -0.12980485488E+02 -0.11569678432E+03  0.48441580793E+03  0.49820970873E+03  0.00000000000E+00 0. -1.
         13    1    3    3    0    0  0.24214750856E+02  0.94913420520E+02 -0.68128256663E+03  0.68828834593E+03  0.00000000000E+00 0. -1.
        -14    1    3    3    0    0  0.28261089196E+02  0.15872961439E+02 -0.71260911218E+02  0.78286381543E+02  0.00000000000E+00 0.  1.
          5    1    4    4  501    0  0.15618931704E+02 -0.10058397675E+02 -0.32814123013E+02  0.37938917492E+02  0.41800000000E+01 0.  1.
         -5    1    4    4    0  501 -0.10580532497E+02  0.89594338480E+02  0.71911183924E+02  0.11544602171E+03  0.41800000000E+01 0.  1.
</event>
<event>
11    1  0.8039394E-009  0.2377966E+03  0.7561462E-02  0.1030609E+00
         22   -1    0    0    0    0  0.00000000000E+00  0.00000000000E+00  0.66270899195E+03  0.66270899195E+03  0.00000000000E+00 0. -1.
         22   -1    0    0    0    0 -0.00000000000E+00 -0.00000000000E+00 -0.21371449247E+04  0.21371449247E+04  0.00000000000E+00 0. -1.
         24    2    1    2    0    0 -0.13095715513E+03 -0.74285148036E+02 -0.20460879358E+04  0.20532122595E+04  0.80849749976E+02 0.  0.
         25    2    1    2    0    0  0.12571383171E+03 -0.15444420729E+03  0.24442688816E+03  0.33918866964E+03  0.12508984492E+03 0.  0.
        -24    2    1    2    0    0  0.52433234205E+01  0.22872935533E+03  0.32722511484E+03  0.40745298751E+03  0.81222231051E+02 0.  0.
        -13    1    3    3    0    0 -0.11044278852E+03 -0.66990943389E+02 -0.12165127799E+04  0.12233514375E+04  0.00000000000E+00 0.  1.
         14    1    3    3    0    0 -0.20514366610E+02 -0.72942046471E+01 -0.82957515589E+03  0.82986082202E+03  0.00000000000E+00 0. -1.
         11    1    5    5    0    0 -0.34708243803E+02  0.14556739477E+03  0.21889440882E+03  0.26515899159E+03  0.00000000000E+00 0. -1.
        -12    1    5    5    0    0  0.39951567224E+02  0.83161960556E+02  0.10833070602E+03  0.14229399592E+03  0.00000000000E+00 0.  1.
          5    1    4    4  501    0  0.48704003167E+02  0.90753863881E+00  0.14143476629E+02  0.50896108712E+02  0.41800000000E+01 0. -1.
         -5    1    4    4    0  501  0.77009828545E+02 -0.15535174593E+03  0.23028341154E+03  0.28829256093E+03  0.41800000000E+01 0. -1.
</event>
<event>
11    1  0.8039394E-009  0.4499885E+03  0.7561462E-02  0.9512788E-01
         22   -1    0    0    0    0  0.00000000000E+00  0.00000000000E+00  0.30171082747E+03  0.30171082747E+03  0.00000000000E+00 0. -1.
         22   -1    0    0    0    0 -0.00000000000E+00 -0.00000000000E+00 -0.12602853241E+04  0.12602853241E+04  0.00000000000E+00 0. -1.
        -24    2    1    2    0    0  0.32252449907E+01  0.12934644609E+02 -0.47457531007E+03  0.48138403386E+03  0.79568560989E+02 0.  0.
         25    2    1    2    0    0 -0.12429160964E+03  0.40561451949E+03 -0.45834364551E+03  0.63694365709E+03  0.12508709876E+03 0.  0.
         24    2    1    2    0    0  0.12106636465E+03 -0.41854916410E+03 -0.25655541038E+02  0.44366846061E+03  0.79643133639E+02 0.  0.
        -13    1    5    5    0    0  0.83107885180E+01 -0.85310674822E+01  0.11821297414E+02  0.16780685049E+02  0.00000000000E+00 0.  1.
         14    1    5    5    0    0  0.11275557613E+03 -0.41001809662E+03 -0.37476838452E+02  0.42688777556E+03  0.00000000000E+00 0. -1.
         13    1    3    3    0    0 -0.26770491228E+02 -0.20462110197E+02 -0.15127730945E+03  0.15498445570E+03  0.00000000000E+00 0. -1.
        -14    1    3    3    0    0  0.29995736218E+02  0.33396754806E+02 -0.32329800061E+03  0.32639957816E+03  0.00000000000E+00 0.  1.
          5    1    4    4  501    0 -0.43234532665E+02  0.19410581493E+02 -0.45829522181E+02  0.66059162817E+02  0.41800000000E+01 0. -1.
         -5    1    4    4    0  501 -0.81057076973E+02  0.38620393800E+03 -0.41251412332E+03  0.57088449427E+03  0.41800000000E+01 0. -1.
</event>
<event>
11    1  0.8039394E-009  0.1320355E+03  0.7561462E-02  0.1116793E+00
         22   -1    0    0    0    0  0.00000000000E+00  0.00000000000E+00  0.35388565056E+03  0.35388565056E+03  0.00000000000E+00 0.  1.
         22   -1    0    0    0    0 -0.00000000000E+00 -0.00000000000E+00 -0.15394645954E+04  0.15394645954E+04  0.00000000000E+00 0.  1.
         24    2    1    2    0    0  0.77795702803E+01  0.51435479691E+00 -0.95992506540E+03  0.96323582206E+03  0.79412413611E+02 0.  0.
         25    2    1    2    0    0 -0.19602186597E+02  0.40043055100E+02 -0.56408034821E+03  0.57950110314E+03  0.12508875780E+03 0.  0.
        -24    2    1    2    0    0  0.11822616317E+02 -0.40557409897E+02  0.33842646879E+03  0.35061332073E+03  0.81317575867E+02 0.  0.
        -11    1    3    3    0    0 -0.32169882543E+02 -0.41018421823E+01 -0.23903488346E+03  0.24122479550E+03  0.00000000000E+00 0.  1.
         12    1    3    3    0    0  0.39949452824E+02  0.46161969792E+01 -0.72089018194E+03  0.72201102656E+03  0.00000000000E+00 0. -1.
         13    1    5    5    0    0  0.79161775042E+01  0.24768228165E+02  0.10676234050E+03  0.10988324869E+03  0.00000000000E+00 0. -1.
        -14    1    5    5    0    0  0.39064388130E+01 -0.65325638062E+02  0.23166412829E+03  0.24073007205E+03  0.00000000000E+00 0.  1.
          5    1    4    4  501    0  0.29472122630E+02 -0.19987079024E+02 -0.63407810550E+02  0.72843065414E+02  0.41800000000E+01 0. -1.
         -5    1    4    4    0  501 -0.49074309228E+02  0.60030134125E+02 -0.50067253766E+03  0.50665803773E+03  0.41800000000E+01 0. -1.
</event>
<event>
11    1  0.8039394E-009  0.1905252E+03  0.7561462E-02  0.1061434E+00
         22   -1    0    0    0    0  0.00000000000E+00  0.00000000000E+00  0.15825345219E+04  0.15825345219E+04  0.00000000000E+00 0. -1.
         22   -1    0    0    0    0 -0.00000000000E+00 -0.00000000000E+00 -0.23009292186E+03  0.23009292186E+03  0.00000000000E+00 0. -1.
         24    2    1    2    0    0  0.16761796908E+02 -0.41758100810E+02 -0.19287424094E+03  0.21343111292E+03  0.79546655029E+02 0.  0.
         25    2    1    2    0    0 -0.31247095635E+02  0.17489112793E+03  0.54466978142E+03  0.58640991446E+03  0.12509248324E+03 0.  0.
        -24    2    1    2    0    0  0.14485298727E+02 -0.13313302712E+03  0.10006460596E+04  0.10127864164E+04  0.80681855971E+02 0.  0.
        -11    1    3    3    0    0  0.91702437128E+01 -0.57170317255E+02 -0.77267153651E+02  0.96554396990E+02  0.00000000000E+00 0.  1.
         12    1    3    3    0    0  0.75915531956E+01  0.15412216445E+02 -0.11560708729E+03  0.11687671593E+03  0.00000000000E+00 0. -1.
         11    1    5    5    0    0  0.33084717197E+02 -0.10661754169E+03  0.90379861386E+03  0.91066669705E+03  0.00000000000E+00 0. -1.
        -12    1    5    5    0    0 -0.18599418471E+02 -0.26515485427E+02  0.96847445728E+02  0.10211971934E+03  0.00000000000E+00 0.  1.
          5    1    4    4  501    0  0.44331498602E+02  0.48311964148E+02  0.22424748423E+03  0.23367441929E+03  0.41800000000E+01 0.  1.
         -5    1    4    4    0  501 -0.75578594237E+02  0.12657916378E+03  0.32042229720E+03  0.35273549517E+03  0.41800000000E+01 0.  1.
</event>
<event>
11    1  0.8039394E-009  0.1658902E+03  0.7561462E-02  0.1081665E+00
         22   -1    0    0    0    0  0.00000000000E+00  0.00000000000E+00  0.33345838349E+03  0.33345838349E+03  0.00000000000E+00 0. -1.
         22   -1    0    0    0    0 -0.00000000000E+00 -0.00000000000E+00 -0.22163266435E+04  0.22163266435E+04  0.00000000000E+00 0.  1.
         24    2    1    2    0    0 -0.11324092290E+03  0.39344108431E+01 -0.20390897208E+04  0.20437422352E+04  0.78463036859E+02 0.  0.
         25    2    1    2    0    0  0.40516462037E+02 -0.70129093285E+02 -0.12616425583E+03  0.19525737258E+03  0.12509335984E+03 0.  0.
        -24    2    1    2    0    0  0.72724460867E+02  0.66194682442E+02  0.28238571659E+03  0.31078541927E+03  0.84707146711E+02 0.  0.
        -13    1    3    3    0    0 -0.12329311437E+03 -0.63201498702E+01 -0.18337216556E+04  0.18378727504E+04  0.00000000000E+00 0.  1.
         14    1    3    3    0    0  0.10052191461E+02  0.10254560713E+02 -0.20536806524E+03  0.20586948484E+03  0.00000000000E+00 0. -1.
         11    1    5    5    0    0 -0.59579773687E+00  0.49931767219E+02  0.15569924796E+03  0.16351083196E+03  0.00000000000E+00 0. -1.
        -12    1    5    5    0    0  0.73320258604E+02  0.16262915223E+02  0.12668646863E+03  0.14727458731E+03  0.00000000000E+00 0.  1.
          5    1    4    4  501    0 -0.21584816082E+02  0.24718237163E+02 -0.44617716926E+02  0.55543753901E+02  0.41800000000E+01 0. -1.
         -5    1    4    4    0  501  0.62101278120E+02 -0.94847330448E+02 -0.81546538899E+02  0.13971361868E+03  0.41800000000E+01 0. -1.
</event>
<event>
11    1  0.8039394E-009  0.1565361E+03  0.7561462E-02  0.1090381E+00
         22   -1    0    0    0    0  0.00000000000E+00  0.00000000000E+00  0.25596055417E+04  0.25596055417E+04  0.00000000000E+00 0.  1.
         22   -1    0    0    0    0 -0.00000000000E+00 -0.00000000000E+00 -0.28961871197E+03  0.28961871197E+03  0.00000000000E+00 0.  1.
        -24    2    1    2    0    0  0.92818026497E+02 -0.49594628136E+01 -0.21258879091E+03  0.24503142487E+03  0.78782122593E+02 0.  0.
         25    2    1    2    0    0 -0.10370164257E+03 -0.54977351231E+02  0.63437337455E+02  0.18288907181E+03  0.12509027533E+03 0.  0.
         24    2    1    2    0    0  0.10883616076E+02  0.59936814045E+02  0.24191382832E+04  0.24213037570E+04  0.82285938280E+02 0.  0.
        -13    1    5    5    0    0 -0.23839512971E+02  0.61693075429E+02  0.17697436548E+04  0.17709790969E+04  0.00000000000E+00 0.  1.
         14    1    5    5    0    0  0.34723129047E+02 -0.17562613846E+01  0.64939462836E+03  0.65032466006E+03  0.00000000000E+00 0. -1.
         13    1    3    3    0    0  0.10057152757E+02 -0.31489104469E+02 -0.79274122462E+02  0.85890025695E+02  0.00000000000E+00 0. -1.
        -14    1    3    3    0    0  0.82760873740E+02  0.26529641655E+02 -0.13331466845E+03  0.15914139918E+03  0.00000000000E+00 0.  1.
          5    1    4    4  501    0 -0.18366179768E+00  0.36639841744E+01  0.63598990200E+02  0.63841698490E+02  0.41800000000E+01 0.  1.
         -5    1    4    4    0  501 -0.10351798078E+03 -0.58641335406E+02 -0.16165274522E+00  0.11904737332E+03  0.41800000000E+01 0.  1.
</event>
<event>
11    1  0.8039394E-009  0.1469830E+03  0.7561462E-02  0.1100002E+00
         22   -1    0    0    0    0  0.00000000000E+00  0.00000000000E+00  0.34112793874E+03  0.34112793874E+03  0.00000000000E+00 0. -1.
         22   -1    0    0    0    0 -0.00000000000E+00 -0.00000000000E+00 -0.13603944262E+04  0.13603944262E+04  0.00000000000E+00 0.  1.
        -24    2    1    2    0    0 -0.60955345440E+02 -0.46568003785E+02 -0.12867776557E+04  0.12915314013E+04  0.79827891112E+02 0.  0.
         25    2    1    2    0    0  0.61517086017E+02  0.79368467179E+02  0.38747378071E+02  0.16502474046E+03  0.12509236669E+03 0.  0.
         24    2    1    2    0    0 -0.56174057719E+00 -0.32800463394E+02  0.22876379019E+03  0.24496622317E+03  0.81236647165E+02 0.  0.
        -11    1    5    5    0    0  0.18187269344E+02 -0.26090152096E+02  0.25594686889E+02  0.40823532423E+02  0.00000000000E+00 0.  1.
         12    1    5    5    0    0 -0.18749009921E+02 -0.67103112985E+01  0.20316910330E+03  0.20414269075E+03  0.00000000000E+00 0. -1.
         13    1    3    3    0    0 -0.11717717557E+02 -0.38666180215E+02 -0.22605598137E+03  0.22963816127E+03  0.00000000000E+00 0. -1.
        -14    1    3    3    0    0 -0.49237627883E+02 -0.79018235692E+01 -0.10607216744E+04  0.10618932401E+04  0.00000000000E+00 0.  1.
          5    1    4    4  501    0  0.33580115053E+02  0.11206771006E+03  0.25279584843E+02  0.11976362375E+03  0.41800000000E+01 0.  1.
         -5    1    4    4    0  501  0.27936970965E+02 -0.32699242878E+02  0.13467793228E+02  0.45261116711E+02  0.41800000000E+01 0.  1.
</event>
<event>
11    1  0.8039394E-009  0.1494127E+03  0.7561462E-02  0.1097480E+00
         22   -1    0    0    0    0  0.00000000000E+00  0.00000000000E+00  0.13581177952E+04  0.13581177952E+04  0.00000000000E+00 0. -1.
         22   -1    0    0    0    0 -0.00000000000E+00 -0.00000000000E+00 -0.68647511448E+03  0.68647511448E+03  0.00000000000E+00 0. -1.
         24    2    1    2    0    0  0.40557711048E+02 -0.70534456537E+02 -0.65937644776E+03  0.66884725487E+03  0.77196586688E+02 0.  0.
         25    2    1    2    0    0 -0.41298660427E+02  0.10053721585E+03  0.31465298160E+03  0.35561771308E+03  0.12507656814E+03 0.  0.
        -24    2    1    2    0    0  0.74094937919E+00 -0.30002759316E+02  0.10163661469E+04  0.10201279417E+04  0.82220182496E+02 0.  0.
        -13    1    3    3    0    0 -0.22867660275E+01 -0.68280040153E+02 -0.44575652367E+03  0.45096149678E+03  0.00000000000E+00 0.  1.
         14    1    3    3    0    0  0.42844477076E+02 -0.22544163842E+01 -0.21361992409E+03  0.21788575809E+03  0.00000000000E+00 0. -1.
         13    1    5    5    0    0  0.28130287524E+02 -0.16282352905E+02  0.86918988242E+03  0.86979737859E+03  0.00000000000E+00 0. -1.
        -14    1    5    5    0    0 -0.27389338145E+02 -0.13720406412E+02  0.14717626445E+03  0.15033056314E+03  0.00000000000E+00 0.  1.
          5    1    4    4  501    0  0.16141372632E+02  0.42794100536E+02  0.24223783301E+03  0.24655327841E+03  0.41800000000E+01 0. -1.
         -5    1    4    4    0  501 -0.57440033059E+02  0.57743115318E+02  0.72415148590E+02  0.10906443467E+03  0.41800000000E+01 0. -1.
</event>
<event>
11    1  0.8039394E-009  0.1370512E+03  0.7561462E-02  0.1110897E+00
         22   -1    0    0    0    0  0.00000000000E+00  0.00000000000E+00  0.17710902108E+03  0.17710902108E+03  0.00000000000E+00 0. -1.
         22   -1    0    0    0    0 -0.00000000000E+00 -0.00000000000E+00 -0.26690163353E+04  0.26690163353E+04  0.00000000000E+00 0.  1.
         24    2    1    2    0    0  0.11418332008E+02  0.45423693140E+02 -0.17662985367E+04  0.17687546937E+04  0.80554053532E+02 0.  0.
         25    2    1    2    0    0 -0.66638168888E+02 -0.36585250192E+02 -0.88068840543E+03  0.89277029254E+03  0.12509037412E+03 0.  0.
        -24    2    1    2    0    0  0.55219836881E+02 -0.88384429475E+01  0.15507962796E+03  0.18460037009E+03  0.83067786589E+02 0.  0.
        -11    1    3    3    0    0  0.29235014257E+02 -0.12382029049E+02 -0.73286440915E+03  0.73355179974E+03  0.00000000000E+00 0.  1.
         12    1    3    3    0    0 -0.17816682249E+02  0.57805722189E+02 -0.10334341276E+04  0.10352028940E+04  0.00000000000E+00 0. -1.
         13    1    5    5    0    0  0.33717248094E+02 -0.41249916882E+02  0.12349157683E+03  0.13449378428E+03  0.00000000000E+00 0. -1.
        -14    1    5    5    0    0  0.21502588787E+02  0.32411473934E+02  0.31588051133E+02  0.50106585809E+02  0.00000000000E+00 0.  1.
          5    1    4    4  501    0 -0.16998166177E+01  0.36397905058E+02 -0.11115553681E+03  0.11705008600E+03  0.41800000000E+01 0. -1.
         -5    1    4    4    0  501 -0.64938352271E+02 -0.72983155250E+02 -0.76953286863E+03  0.77572020655E+03  0.41800000000E+01 0. -1.
</event>
<event>
11    1  0.8039394E-009  0.1413608E+03  0.7561462E-02  0.1106048E+00
         22   -1    0    0    0    0  0.00000000000E+00  0.00000000000E+00  0.29114920946E+03  0.29114920946E+03  0.00000000000E+00 0.  1.
         22   -1    0    0    0    0 -0.00000000000E+00 -0.00000000000E+00 -0.71818771113E+03  0.71818771113E+03  0.00000000000E+00 0. -1.
        -24    2    1    2    0    0 -0.48004758522E+02 -0.45563771024E+02 -0.65455260468E+03  0.66041553456E+03  0.57697936923E+02 0.  0.
         25    2    1    2    0    0  0.42637101837E+02  0.35422342730E+02  0.36890050939E+02  0.14170928091E+03  0.12509188471E+03 0.  0.
         24    2    1    2    0    0  0.53676566854E+01  0.10141428294E+02  0.19062405207E+03  0.20721210512E+03  0.80421806596E+02 0.  0.
        -11    1    5    5    0    0  0.16125133017E+02  0.43304927855E+02  0.11507069869E+03  0.12400242896E+03  0.00000000000E+00 0.  1.
         12    1    5    5    0    0 -0.10757476331E+02 -0.33163499561E+02  0.75553353385E+02  0.83209676167E+02  0.00000000000E+00 0. -1.
         11    1    3    3    0    0 -0.33491825576E+02 -0.29074035539E+01 -0.43442746205E+03  0.43572626173E+03  0.00000000000E+00 0. -1.
        -12    1    3    3    0    0 -0.14512932945E+02 -0.42656367470E+02 -0.22012514262E+03  0.22468927283E+03  0.00000000000E+00 0.  1.
          5    1    4    4  501    0 -0.13734495285E+02  0.35365247340E+02  0.67413193253E+02  0.77468368413E+02  0.41800000000E+01 0. -1.
         -5    1    4    4    0  501  0.56371597122E+02  0.57095389881E-01 -0.30523142314E+02  0.64240912498E+02  0.41800000000E+01 0. -1.
</event>
<event>
11    1  0.8039394E-009  0.1565858E+03  0.7561462E-02  0.1090333E+00
         22   -1    0    0    0    0  0.00000000000E+00  0.00000000000E+00  0.67146863484E+03  0.67146863484E+03  0.00000000000E+00 0.  1.
         22   -1    0    0    0    0 -0.00000000000E+00 -0.00000000000E+00 -0.13036461666E+04  0.13036461666E+04  0.00000000000E+00 0. -1.
         24    2    1    2    0    0 -0.38795374957E+02 -0.47669686278E+01 -0.12063577200E+04  0.12093320472E+04  0.75214669487E+02 0.  0.
         25    2    1    2    0    0  0.81389785906E+02 -0.78186656285E+02 -0.10039429860E+02  0.16878173383E+03  0.12509609527E+03 0.  0.
        -24    2    1    2    0    0 -0.42594410948E+02  0.82953624913E+02  0.58421961817E+03  0.59700102042E+03  0.80012926470E+02 0.  0.
        -13    1    3    3    0    0 -0.29220035401E+02 -0.38656660375E+02 -0.60069574230E+03  0.60264709629E+03  0.00000000000E+00 0.  1.
         14    1    3    3    0    0 -0.95753395567E+01  0.33889691748E+02 -0.60566197773E+03  0.60668495086E+03  0.00000000000E+00 0. -1.
         13    1    5    5    0    0 -0.23840139558E+02  0.56995614788E+02  0.15905710594E+03  0.17063415634E+03  0.00000000000E+00 0. -1.
        -14    1    5    5    0    0 -0.18754271390E+02  0.25958010125E+02  0.42516251222E+03  0.42636686408E+03  0.00000000000E+00 0.  1.
          5    1    4    4  501    0  0.20980230548E+01 -0.43953825599E+02  0.47526954732E+02  0.64904732582E+02  0.41800000000E+01 0.  1.
         -5    1    4    4    0  501  0.79291762851E+02 -0.34232830687E+02 -0.57566384592E+02  0.10387700125E+03  0.41800000000E+01 0.  1.
</event>
<event>
11    1  0.8039394E-009  0.1533741E+03  0.7561462E-02  0.1093480E+00
         22   -1    0    0    0    0  0.00000000000E+00  0.00000000000E+00  0.86358305840E+03  0.86358305840E+03  0.00000000000E+00 0.  1.
         22   -1    0    0    0    0 -0.00000000000E+00 -0.00000000000E+00 -0.10709962899E+03  0.10709962899E+03  0.00000000000E+00 0.  1.
         24    2    1    2    0    0  0.33373426234E+02  0.70024032554E+01 -0.60595852576E+02  0.10662246680E+03  0.80831144044E+02 0.  0.
         25    2    1    2    0    0 -0.22780034733E+02  0.84117576952E+02  0.35974158842E+03  0.39071471815E+03  0.12509709750E+03 0.  0.
        -24    2    1    2    0    0 -0.10593391501E+02 -0.91119980207E+02  0.45733769356E+03  0.47334550244E+03  0.80517873766E+02 0.  0.
        -11    1    3    3    0    0  0.53576385836E+02  0.26027605210E+02 -0.36407746603E+02  0.69809665269E+02  0.00000000000E+00 0.  1.
         12    1    3    3    0    0 -0.20202959602E+02 -0.19025201955E+02 -0.24188105973E+02  0.36812801533E+02  0.00000000000E+00 0. -1.
         11    1    5    5    0    0 -0.10782524880E+02 -0.72866075883E+01  0.60752095388E+01  0.14361951952E+02  0.00000000000E+00 0. -1.
        -12    1    5    5    0    0  0.18913337889E+00 -0.83833372619E+02  0.45126248402E+03  0.45898355049E+03  0.00000000000E+00 0.  1.
          5    1    4    4  501    0 -0.58787867526E+02  0.80083933232E+02  0.16545653976E+03  0.19303571866E+03  0.41800000000E+01 0.  1.
         -5    1    4    4    0  501  0.36007832793E+02  0.40336437204E+01  0.19428504866E+03  0.19767899948E+03  0.41800000000E+01 0.  1.
</event>
<event>
11    1  0.8039394E-009  0.1936611E+03  0.7561462E-02  0.1059099E+00
         22   -1    0    0    0    0  0.00000000000E+00  0.00000000000E+00  0.24182938433E+04  0.24182938433E+04  0.00000000000E+00 0.  1.
         22   -1    0    0    0    0 -0.00000000000E+00 -0.00000000000E+00 -0.26947514857E+03  0.26947514857E+03  0.00000000000E+00 0. -1.
         24    2    1    2    0    0  0.14094233032E+03  0.35801151958E+02 -0.21217540891E+03  0.26943909136E+03  0.80203222202E+02 0.  0.
         25    2    1    2    0    0 -0.17192096633E+03 -0.91161072072E+02  0.46383906724E+03  0.51832452117E+03  0.12508584741E+03 0.  0.
        -24    2    1    2    0    0  0.30978636014E+02  0.55359920114E+02  0.18971550364E+04  0.19000053793E+04  0.82454913193E+02 0.  0.
        -13    1    3    3    0    0  0.50839595661E+02  0.53972150680E+02 -0.95910789369E+02  0.12122927474E+03  0.00000000000E+00 0.  1.
         14    1    3    3    0    0  0.90102734659E+02 -0.18170998722E+02 -0.11626461954E+03  0.14820981663E+03  0.00000000000E+00 0. -1.
         13    1    5    5    0    0  0.48712697143E+02  0.39238420697E+01  0.10126744900E+04  0.10138530200E+04  0.00000000000E+00 0. -1.
        -14    1    5    5    0    0 -0.17734061129E+02  0.51436078045E+02  0.88448054643E+03  0.88615235939E+03  0.00000000000E+00 0.  1.
          5    1    4    4  501    0 -0.37756652823E+02 -0.36957554149E+02  0.29845369546E+02  0.60824699954E+02  0.41800000000E+01 0. -1.
         -5    1    4    4    0  501 -0.13416431351E+03 -0.54203517923E+02  0.43399369769E+03  0.45749982122E+03  0.41800000000E+01 0. -1.
</event>
<event>
11    1  0.8039394E-009  0.1510871E+03  0.7561462E-02  0.1095773E+00
         22   -1    0    0    0    0  0.00000000000E+00  0.00000000000E+00  0.23318460569E+04  0.23318460569E+04  0.00000000000E+00 0.  1.
         22   -1    0    0    0    0 -0.00000000000E+00 -0.00000000000E+00 -0.38872526912E+02  0.38872526912E+02  0.00000000000E+00 0.  1.
         24    2    1    2    0    0 -0.74266706080E+02  0.21968929904E+02  0.98086114395E+02  0.15139729810E+03  0.85452200213E+02 0.  0.
         25    2    1    2    0    0 -0.66362820287E+01  0.32716266155E+02  0.40636638278E+03  0.42649211879E+03  0.12508995174E+03 0.  0.
        -24    2    1    2    0    0  0.80902988109E+02 -0.54685196059E+02  0.17885210329E+04  0.17928291670E+04  0.76767003380E+02 0.  0.
        -13    1    3    3    0    0 -0.33503125309E+02 -0.43590712064E+01 -0.80171189786E+01  0.34723696577E+02  0.00000000000E+00 0.  1.
         14    1    3    3    0    0 -0.40763580771E+02  0.26328001110E+02  0.10610323337E+03  0.11667360152E+03  0.00000000000E+00 0. -1.
         11    1    5    5    0    0  0.12471159901E+02  0.25649991954E+01  0.38816789834E+02  0.40851587768E+02  0.00000000000E+00 0. -1.
        -12    1    5    5    0    0  0.68431828208E+02 -0.57250195254E+02  0.17497042430E+04  0.17519775792E+04  0.00000000000E+00 0.  1.
          5    1    4    4  501    0  0.30679498988E+02 -0.36283382717E+02  0.20181818681E+03  0.20737832202E+03  0.41800000000E+01 0.  1.
         -5    1    4    4    0  501 -0.37315781017E+02  0.68999648871E+02  0.20454819597E+03  0.21911379676E+03  0.41800000000E+01 0.  1.
</event>
<event>
11    1  0.8039394E-009  0.1486914E+03  0.7561462E-02  0.1098223E+00
         22   -1    0    0    0    0  0.00000000000E+00  0.00000000000E+00  0.33575446760E+03  0.33575446760E+03  0.00000000000E+00 0.  1.
         22   -1    0    0    0    0 -0.00000000000E+00 -0.00000000000E+00 -0.65520327765E+03  0.65520327765E+03  0.00000000000E+00 0.  1.
         24    2    1    2    0    0  0.39540523181E+01 -0.38378226080E+02 -0.55631631404E+03  0.56333569029E+03  0.79816889936E+02 0.  0.
         25    2    1    2    0    0 -0.73166923840E+02 -0.65072784869E+01 -0.19773751040E+02  0.14642123983E+03  0.12510969117E+03 0.  0.
        -24    2    1    2    0    0  0.69212871522E+02  0.44885504567E+02  0.25664125503E+03  0.28120081513E+03  0.80025211932E+02 0.  0.
        -13    1    3    3    0    0 -0.10608818043E+02  0.17046864280E+02 -0.30091819760E+03  0.30158730783E+03  0.00000000000E+00 0.  1.
         14    1    3    3    0    0  0.14562870361E+02 -0.55425090360E+02 -0.25539811644E+03  0.26174838245E+03  0.00000000000E+00 0. -1.
         13    1    5    5    0    0  0.57131615693E+02 -0.87803932847E+01  0.10451072752E+03  0.11943035203E+03  0.00000000000E+00 0. -1.
        -14    1    5    5    0    0  0.12081255829E+02  0.53665897852E+02  0.15213052751E+03  0.16177046311E+03  0.00000000000E+00 0.  1.
          5    1    4    4  501    0 -0.98027720258E+02 -0.37115666616E+02 -0.87643329313E+01  0.10526771860E+03  0.41800000000E+01 0.  1.
         -5    1    4    4    0  501  0.24860796418E+02  0.30608388129E+02 -0.11009418108E+02  0.41153521228E+02  0.41800000000E+01 0.  1.
</event>
<event>
11    1  0.8039394E-009  0.1324309E+03  0.7561462E-02  0.1116318E+00
         22   -1    0    0    0    0  0.00000000000E+00  0.00000000000E+00  0.11371250575E+03  0.11371250575E+03  0.00000000000E+00 0. -1.
         22   -1    0    0    0    0 -0.00000000000E+00 -0.00000000000E+00 -0.27319291839E+04  0.27319291839E+04  0.00000000000E+00 0.  1.
        -24    2    1    2    0    0 -0.12395215592E+02 -0.51397165286E+02 -0.15062750394E+04  0.15094681259E+04  0.82669333400E+02 0.  0.
         25    2    1    2    0    0  0.30971678192E+02  0.13450429586E+02 -0.12025052980E+04  0.12094656350E+04  0.12509185205E+03 0.  0.
         24    2    1    2    0    0 -0.18576462600E+02  0.37946735700E+02  0.90563659308E+02  0.12670792880E+03  0.77897901906E+02 0.  0.
        -13    1    5    5    0    0  0.22625160869E+02 -0.69853893852E+00  0.34722871739E+01  0.22900712635E+02  0.00000000000E+00 0.  1.
         14    1    5    5    0    0 -0.41201623469E+02  0.38645274639E+02  0.87091372134E+02  0.10380721617E+03  0.00000000000E+00 0. -1.
         11    1    3    3    0    0 -0.35590873719E+01 -0.17150065087E+02 -0.54148268151E+02  0.56910691255E+02  0.00000000000E+00 0. -1.
        -12    1    3    3    0    0 -0.88361282197E+01 -0.34247100200E+02 -0.14521267713E+04  0.14525574346E+04  0.00000000000E+00 0.  1.
          5    1    4    4  501    0 -0.55969629489E+01  0.45228151775E+02 -0.17740873436E+03  0.18321638337E+03  0.41800000000E+01 0.  1.
         -5    1    4    4    0  501  0.36568641141E+02 -0.31777722188E+02 -0.10250965637E+04  0.10262492516E+04  0.41800000000E+01 0.  1.
</event>
<event>
11    1  0.8039394E-009  0.1426621E+03  0.7561462E-02  0.1104622E+00
         22   -1    0    0    0    0  0.00000000000E+00  0.00000000000E+00  0.28918359005E+04  0.28918359005E+04  0.00000000000E+00 0.  1.
         22   -1    0    0    0    0 -0.00000000000E+00 -0.00000000000E+00 -0.30843790522E+04  0.30843790522E+04  0.00000000000E+00 0. -1.
        -24    2    1    2    0    0  0.42645160757E+02  0.38758634327E+02 -0.24229770706E+04  0.24250334756E+04  0.81539141007E+02 0.  0.
         25    2    1    2    0    0  0.25142020926E+02 -0.49555848651E+02 -0.65234192567E+03  0.66654754386E+03  0.12509091448E+03 0.  0.
         24    2    1    2    0    0 -0.67787181683E+02  0.10797214324E+02  0.28827758446E+04  0.28846339332E+04  0.77489848557E+02 0.  0.
        -13    1    5    5    0    0 -0.68545773345E+02 -0.11806862033E+02  0.26085010829E+04  0.26094282562E+04  0.00000000000E+00 0.  1.
         14    1    5    5    0    0  0.75859166175E+00  0.22604076356E+02  0.27427476172E+03  0.27520567698E+03  0.00000000000E+00 0. -1.
         11    1    3    3    0    0  0.66244406319E+02  0.32472439121E+02 -0.19912387772E+04  0.19926049905E+04  0.00000000000E+00 0. -1.
        -12    1    3    3    0    0 -0.23599245562E+02  0.62861952065E+01 -0.43173829342E+03  0.43242848501E+03  0.00000000000E+00 0.  1.
          5    1    4    4  501    0 -0.37427357721E+02  0.20401551448E+02 -0.21614301476E+03  0.22034587729E+03  0.41800000000E+01 0. -1.
         -5    1    4    4    0  501  0.62569378646E+02 -0.69957400099E+02 -0.43619891091E+03  0.44620166657E+03  0.41800000000E+01 0. -1.
</event>
<event>
11    1  0.8039394E-009  0.1458566E+03  0.7561462E-02  0.1101189E+00
         22   -1    0    0    0    0  0.00000000000E+00  0.00000000000E+00  0.33272383715E+03  0.33272383715E+03  0.00000000000E+00 0. -1.
         22   -1    0    0    0    0 -0.00000000000E+00 -0.00000000000E+00 -0.76296598499E+03  0.76296598499E+03  0.00000000000E+00 0.  1.
        -24    2    1    2    0    0  0.72393563161E+02  0.22674649124E+02 -0.60424827500E+03  0.61432916708E+03  0.80804578975E+02 0.  0.
         25    2    1    2    0    0 -0.74310291807E+02  0.93993503808E+01 -0.11068846797E+03  0.18305726295E+03  0.12509059646E+03 0.  0.
         24    2    1    2    0    0  0.19167286461E+01 -0.32073999505E+02  0.28469459512E+03  0.29830339211E+03  0.83075182555E+02 0.  0.
        -11    1    5    5    0    0  0.20934864382E+02  0.15239779036E+02  0.35474376066E+02  0.43919822052E+02  0.00000000000E+00 0.  1.
         12    1    5    5    0    0 -0.19018135736E+02 -0.47313778540E+02  0.24922021906E+03  0.25438357006E+03  0.00000000000E+00 0. -1.
         11    1    3    3    0    0 -0.79487972485E+01 -0.18509560936E+02 -0.91258750122E+02  0.93455586765E+02  0.00000000000E+00 0. -1.
        -12    1    3    3    0    0  0.80342360409E+02  0.41184210060E+02 -0.51298952487E+03  0.52087358031E+03  0.00000000000E+00 0.  1.
          5    1    4    4  501    0 -0.54347740825E+02  0.13398896237E+00  0.14076908213E+02  0.56296772827E+02  0.41800000000E+01 0.  1.
         -5    1    4    4    0  501 -0.19962550982E+02  0.92653614184E+01 -0.12476537618E+03  0.12676049013E+03  0.41800000000E+01 0.  1.
</event>
<event>
11    1  0.8039394E-009  0.1399569E+03  0.7561462E-02  0.1107606E+00
         22   -1    0    0    0    0  0.00000000000E+00  0.00000000000E+00  0.14071568620E+04  0.14071568620E+04  0.00000000000E+00 0.  1.
         22   -1    0    0    0    0 -0.00000000000E+00 -0.00000000000E+00 -0.48915805571E+02  0.48915805571E+02  0.00000000000E+00 0.  1.
         24    2    1    2    0    0 -0.46035496228E+02 -0.43613805298E+02  0.40020190257E+02  0.10976450360E+03  0.80157343379E+02 0.  0.
         25    2    1    2    0    0  0.37492818991E+02  0.46735709761E+02  0.37495965597E+03  0.39979036009E+03  0.12509056869E+03 0.  0.
        -24    2    1    2    0    0  0.85426772368E+01 -0.31219044626E+01  0.94326121017E+03  0.94651780385E+03  0.77919950980E+02 0.  0.
        -13    1    3    3    0    0 -0.50147911564E+02 -0.42774023897E+02 -0.35354987647E+01  0.66007044367E+02  0.00000000000E+00 0.  1.
         14    1    3    3    0    0  0.41124153362E+01 -0.83978140107E+00  0.43555689021E+02  0.43757459236E+02  0.00000000000E+00 0. -1.
         11    1    5    5    0    0 -0.10186048468E+02 -0.89229278464E+01  0.28572818412E+02  0.31619300699E+02  0.00000000000E+00 0. -1.
        -12    1    5    5    0    0  0.18728725705E+02  0.58010233839E+01  0.91468839176E+03  0.91489850315E+03  0.00000000000E+00 0.  1.
          5    1    4    4  501    0 -0.36154405682E+02  0.28394954396E+02  0.24435221678E+03  0.24867427034E+03  0.41800000000E+01 0. -1.
         -5    1    4    4    0  501  0.73647224673E+02  0.18340755365E+02  0.13060743919E+03  0.15111608975E+03  0.41800000000E+01 0. -1.
</event>
<event>
11    1  0.8039394E-009  0.1344264E+03  0.7561462E-02  0.1113947E+00
         22   -1    0    0    0    0  0.00000000000E+00  0.00000000000E+00  0.44665329922E+03  0.44665329922E+03  0.00000000000E+00 0. -1.
         22   -1    0    0    0    0 -0.00000000000E+00 -0.00000000000E+00 -0.64065318572E+03  0.64065318572E+03  0.00000000000E+00 0. -1.
         24    2    1    2    0    0 -0.29182467833E+01  0.49978805810E+02 -0.51572807376E+03  0.52443354933E+03  0.80924065664E+02 0.  0.
         25    2    1    2    0    0 -0.29270614187E+02 -0.42390535231E+02 -0.76373662693E+02  0.15535093237E+03  0.12508896635E+03 0.  0.
        -24    2    1    2    0    0  0.32188860970E+02 -0.75882705785E+01  0.39810184995E+03  0.40752200325E+03  0.80594016979E+02 0.  0.
        -11    1    3    3    0    0 -0.15862346609E+02  0.46633438626E+02 -0.13902302550E+03  0.14749133282E+03  0.00000000000E+00 0.  1.
         12    1    3    3    0    0  0.12944099825E+02  0.33453671836E+01 -0.37670504826E+03  0.37694221651E+03  0.00000000000E+00 0. -1.
         13    1    5    5    0    0  0.21075171144E+02  0.29183276490E+02  0.30024581600E+03  0.30239605899E+03  0.00000000000E+00 0. -1.
        -14    1    5    5    0    0  0.11113689826E+02 -0.36771547068E+02  0.97856033951E+02  0.10512594426E+03  0.00000000000E+00 0.  1.
          5    1    4    4  501    0 -0.17782136308E+02 -0.41611322060E+02 -0.11029240073E+03  0.11928785586E+03  0.41800000000E+01 0.  1.
         -5    1    4    4    0  501 -0.11488477879E+02 -0.77921317073E+00  0.33918738040E+02  0.36063076510E+02  0.41800000000E+01 0.  1.
</event>
<event>
11    1  0.8039394E-009  0.2206101E+03  0.7561462E-02  0.1040836E+00
         22   -1    0    0    0    0  0.00000000000E+00  0.00000000000E+00  0.11975093038E+03  0.11975093038E+03  0.00000000000E+00 0. -1.
         22   -1    0    0    0    0 -0.00000000000E+00 -0.00000000000E+00 -0.55868502300E+03  0.55868502300E+03  0.00000000000E+00 0.  1.
        -24    2    1    2    0    0 -0.45352279357E+02 -0.12758758410E+02 -0.10505142607E+03  0.14004125098E+03  0.79725370482E+02 0.  0.
         25    2    1    2    0    0  0.12125308276E+03 -0.14674616486E+03 -0.17407924862E+03  0.28667858235E+03  0.12507708742E+03 0.  0.
         24    2    1    2    0    0 -0.75900803403E+02  0.15950492327E+03 -0.15980341794E+03  0.25171612006E+03  0.81370266119E+02 0.  0.
        -11    1    5    5    0    0 -0.31680436106E+02  0.44708111971E+02 -0.10201561363E+03  0.11580004634E+03  0.00000000000E+00 0.  1.
         12    1    5    5    0    0 -0.44220367297E+02  0.11479681130E+03 -0.57787804305E+02  0.13591607372E+03  0.00000000000E+00 0. -1.
         13    1    3    3    0    0 -0.49131292441E+02 -0.25863792193E+02 -0.11179688914E+03  0.12482533423E+03  0.00000000000E+00 0. -1.
        -14    1    3    3    0    0  0.37790130840E+01  0.13105033782E+02  0.67454630795E+01  0.15215916748E+02  0.00000000000E+00 0.  1.
          5    1    4    4  501    0  0.14594197590E+03 -0.10786648999E+03 -0.13927815196E+03  0.22880147728E+03  0.41800000000E+01 0. -1.
         -5    1    4    4    0  501 -0.24688893139E+02 -0.38879674867E+02 -0.34801096662E+02  0.57877105068E+02  0.41800000000E+01 0. -1.
</event>
<event>
11    1  0.8039394E-009  0.1588625E+03  0.7561462E-02  0.1088152E+00
         22   -1    0    0    0    0  0.00000000000E+00  0.00000000000E+00  0.49100784818E+03  0.49100784818E+03  0.00000000000E+00 0.  1.
         22   -1    0    0    0    0 -0.00000000000E+00 -0.00000000000E+00 -0.22690491927E+03  0.22690491927E+03  0.00000000000E+00 0.  1.
         24    2    1    2    0    0 -0.35506609261E+02 -0.13743734360E+02 -0.14030864914E+03  0.16691644353E+03  0.82005930026E+02 0.  0.
         25    2    1    2    0    0  0.10032267857E+03 -0.56766971366E+02  0.53050166277E+02  0.17817014857E+03  0.12507259023E+03 0.  0.
        -24    2    1    2    0    0 -0.64816069312E+02  0.70510705726E+02  0.35136141178E+03  0.37282617535E+03  0.79822508576E+02 0.  0.
        -13    1    3    3    0    0 -0.29083721562E+02 -0.41958237767E+02 -0.12305918485E+03  0.13322882403E+03  0.00000000000E+00 0.  1.
         14    1    3    3    0    0 -0.64228876989E+01  0.28214503407E+02 -0.17249464294E+02  0.33687619496E+02  0.00000000000E+00 0. -1.
         13    1    5    5    0    0 -0.35698779635E+01 -0.50637871944E+01  0.14018942600E+03  0.14032626672E+03  0.00000000000E+00 0. -1.
        -14    1    5    5    0    0 -0.61246191348E+02  0.75574492920E+02  0.21117198578E+03  0.23249990863E+03  0.00000000000E+00 0.  1.
          5    1    4    4  501    0  0.93362339984E+02 -0.38982942611E+02  0.90574864887E+02  0.13585828974E+03  0.41800000000E+01 0. -1.
         -5    1    4    4    0  501  0.69603385887E+01 -0.17784028755E+02 -0.37524698611E+02  0.42311858832E+02  0.41800000000E+01 0. -1.
</event>
<event>
11    1  0.8039394E-009  0.1359005E+03  0.7561462E-02  0.1112224E+00
         22   -1    0    0    0    0  0.00000000000E+00  0.00000000000E+00  0.11732887310E+04  0.11732887310E+04  0.00000000000E+00 0.  1.
         22   -1    0    0    0    0 -0.00000000000E+00 -0.00000000000E+00 -0.12567884423E+03  0.12567884423E+03  0.00000000000E+00 0. -1.
         24    2    1    2    0    0 -0.37388691550E+02  0.19148063451E+02 -0.72887414436E+02  0.11660071339E+03  0.80737776726E+02 0.  0.
         25    2    1    2    0    0 -0.13746780190E+02 -0.39827312451E+02  0.12383283687E+03  0.18098891004E+03  0.12508886956E+03 0.  0.
        -24    2    1    2    0    0  0.51135471740E+02  0.20679249000E+02  0.99666446437E+03  0.10013779518E+04  0.79845350939E+02 0.  0.
        -11    1    3    3    0    0 -0.53420601925E+02  0.28679880515E+02 -0.25687757861E+02  0.65849503873E+02  0.00000000000E+00 0.  1.
         12    1    3    3    0    0  0.16031910375E+02 -0.95318170642E+01 -0.47199656575E+02  0.50751209519E+02  0.00000000000E+00 0. -1.
         13    1    5    5    0    0  0.68869495180E+02 -0.11281996430E+01  0.72331787074E+03  0.72658999603E+03  0.00000000000E+00 0. -1.
        -14    1    5    5    0    0 -0.17734023439E+02  0.21807448643E+02  0.27334659364E+03  0.27478795581E+03  0.00000000000E+00 0.  1.
          5    1    4    4  501    0 -0.68731945317E+02 -0.13808090111E+02  0.56369427934E+02  0.90054030810E+02  0.41800000000E+01 0. -1.
         -5    1    4    4    0  501  0.54985165127E+02 -0.26019222341E+02  0.67463408938E+02  0.90934879232E+02  0.41800000000E+01 0. -1.
</event>
<event>
11    1  0.8039394E-009  0.1376438E+03  0.7561462E-02  0.1110218E+00
         22   -1    0    0    0    0  0.00000000000E+00  0.00000000000E+00  0.35367763918E+03  0.35367763918E+03  0.00000000000E+00 0.  1.
         22   -1    0    0    0    0 -0.00000000000E+00 -0.00000000000E+00 -0.36229272986E+03  0.36229272986E+03  0.00000000000E+00 0. -1.
        -24    2    1    2    0    0  0.17116192272E+02  0.17599726945E+02 -0.13206453899E+03  0.15625481402E+03  0.79823618182E+02 0.  0.
         25    2    1    2    0    0 -0.62014560240E+02 -0.51983021144E+02 -0.18381404462E+03  0.23660684845E+03  0.12508859885E+03 0.  0.
         24    2    1    2    0    0  0.44898367968E+02  0.34383294199E+02  0.30726349293E+03  0.32310870658E+03  0.82403324028E+02 0.  0.
        -13    1    5    5    0    0  0.60203593537E+02  0.38066235411E+02  0.29405637406E+03  0.30256017927E+03  0.00000000000E+00 0.  1.
         14    1    5    5    0    0 -0.15305225569E+02 -0.36829412122E+01  0.13207118872E+02  0.20548527310E+02  0.00000000000E+00 0. -1.
         11    1    3    3    0    0 -0.11522690132E+02  0.42139050136E+02 -0.88054390606E+02  0.98295715264E+02  0.00000000000E+00 0. -1.
        -12    1    3    3    0    0  0.28638882403E+02 -0.24539323191E+02 -0.44010148383E+02  0.57959098756E+02  0.00000000000E+00 0.  1.
          5    1    4    4  501    0  0.37883971504E+02 -0.49047445712E+01 -0.49767522761E+02  0.62877106629E+02  0.41800000000E+01 0. -1.
         -5    1    4    4    0  501 -0.99898531744E+02 -0.47078276573E+02 -0.13404652186E+03  0.17372974182E+03  0.41800000000E+01 0. -1.
</event>
<event>
11    1  0.8039394E-009  0.1395499E+03  0.7561462E-02  0.1108062E+00
         22   -1    0    0    0    0  0.00000000000E+00  0.00000000000E+00  0.74409351442E+03  0.74409351442E+03  0.00000000000E+00 0. -1.
         22   -1    0    0    0    0 -0.00000000000E+00 -0.00000000000E+00 -0.17993315480E+03  0.17993315480E+03  0.00000000000E+00 0. -1.
        -24    2    1    2    0    0 -0.20203425206E+02 -0.68749037719E+01 -0.66821117938E+02  0.10668600414E+03  0.80382827675E+02 0.  0.
         25    2    1    2    0    0  0.23871603291E+02 -0.55088630012E+02 -0.35787664779E+02  0.14329481660E+03  0.12509211371E+03 0.  0.
         24    2    1    2    0    0 -0.36681780853E+01  0.61963533784E+02  0.66676914234E+03  0.67404584848E+03  0.76836069800E+02 0.  0.
        -13    1    5    5    0    0 -0.25029201809E+02  0.52344855302E+02  0.25106492354E+03  0.25768205341E+03  0.00000000000E+00 0.  1.
         14    1    5    5    0    0  0.21361023724E+02  0.96186784818E+01  0.41570421880E+03  0.41636379507E+03  0.00000000000E+00 0. -1.
         13    1    3    3    0    0 -0.40509252613E+02 -0.29668286079E+02 -0.53522904936E+02  0.73388746405E+02  0.00000000000E+00 0. -1.
        -14    1    3    3    0    0  0.20305827407E+02  0.22793382307E+02 -0.13298213002E+02  0.33297257736E+02  0.00000000000E+00 0.  1.
          5    1    4    4  501    0 -0.49041105038E+02 -0.25742361050E+02  0.28444706589E+01  0.55617106623E+02  0.41800000000E+01 0. -1.
         -5    1    4    4    0  501  0.72912708329E+02 -0.29346268962E+02 -0.38632135438E+02  0.87677709974E+02  0.41800000000E+01 0. -1.
</event>
<event>
11    1  0.8039394E-009  0.1963517E+03  0.7561462E-02  0.1057134E+00
         22   -1    0    0    0    0  0.00000000000E+00  0.00000000000E+00  0.72836478372E+03  0.72836478372E+03  0.00000000000E+00 0. -1.
         22   -1    0    0    0    0 -0.00000000000E+00 -0.00000000000E+00 -0.70644379952E+03  0.70644379952E+03  0.00000000000E+00 0. -1.
        -24    2    1    2    0    0  0.13212348273E+03 -0.69997672168E+02 -0.61860270360E+03  0.64144073709E+03  0.80128805678E+02 0.  0.
         25    2    1    2    0    0 -0.14452381900E+03  0.10632084329E+03  0.91208008761E+02  0.23697595243E+03  0.12508974856E+03 0.  0.
         24    2    1    2    0    0  0.12400336271E+02 -0.36323171125E+02  0.54931567904E+03  0.55639189371E+03  0.79693682628E+02 0.  0.
        -13    1    5    5    0    0  0.21888653225E+02 -0.17121516519E+01  0.38525446456E+02  0.44342469799E+02  0.00000000000E+00 0.  1.
         14    1    5    5    0    0 -0.94883169540E+01 -0.34611019473E+02  0.51079023258E+03  0.51204942391E+03  0.00000000000E+00 0. -1.
         11    1    3    3    0    0  0.13876165757E+03 -0.61164819564E+02 -0.60597620780E+03  0.62466238656E+03  0.00000000000E+00 0. -1.
        -12    1    3    3    0    0 -0.66381748396E+01 -0.88328526041E+01 -0.12626495804E+02  0.16778350533E+02  0.00000000000E+00 0.  1.
          5    1    4    4  501    0 -0.92798911927E+02 -0.25893879523E+00  0.70551525863E+02  0.11664774025E+03  0.41800000000E+01 0.  1.
         -5    1    4    4    0  501 -0.51724907070E+02  0.10657978209E+03  0.20656482898E+02  0.12032821218E+03  0.41800000000E+01 0.  1.
</event>
<event>
11    1  0.8039394E-009  0.1407525E+03  0.7561462E-02  0.1106721E+00
         22   -1    0    0    0    0  0.00000000000E+00  0.00000000000E+00  0.13241986453E+04  0.13241986453E+04  0.00000000000E+00 0.  1.
         22   -1    0    0    0    0 -0.00000000000E+00 -0.00000000000E+00 -0.17670636534E+04  0.17670636534E+04  0.00000000000E+00 0. -1.
        -24    2    1    2    0    0 -0.61166327903E+02  0.25800199397E+02 -0.16599679282E+04  0.16638727312E+04  0.92584949906E+02 0.  0.
         25    2    1    2    0    0  0.20249910087E+02 -0.20136021598E+02 -0.63874608949E+02  0.14333240295E+03  0.12509473947E+03 0.  0.
         24    2    1    2    0    0  0.40916417816E+02 -0.56641777997E+01  0.12809775291E+04  0.12840571646E+04  0.78696478250E+02 0.  0.
        -13    1    5    5    0    0  0.15573320318E+02 -0.39359966557E+02  0.84084590730E+03  0.84191066931E+03  0.00000000000E+00 0.  1.
         14    1    5    5    0    0  0.25343097498E+02  0.33695788757E+02  0.44013162181E+03  0.44214649528E+03  0.00000000000E+00 0. -1.
         13    1    3    3    0    0 -0.31824583706E+02 -0.24214210890E+02 -0.11364342320E+04  0.11371375888E+04  0.00000000000E+00 0. -1.
        -14    1    3    3    0    0 -0.29341744197E+02  0.50014410288E+02 -0.52353369617E+03  0.52673514237E+03  0.00000000000E+00 0.  1.
          5    1    4    4  501    0 -0.13134075565E+02 -0.62040109746E+02 -0.51968768149E+01  0.63764873456E+02  0.41800000000E+01 0. -1.
         -5    1    4    4    0  501  0.33383985652E+02  0.41904088148E+02 -0.58677732134E+02  0.79567529495E+02  0.41800000000E+01 0. -1.
</event>
<event>
11    1  0.8039394E-009  0.1435103E+03  0.7561462E-02  0.1103701E+00
         22   -1    0    0    0    0  0.00000000000E+00  0.00000000000E+00  0.70969447824E+02  0.70969447824E+02  0.00000000000E+00 0. -1.
         22   -1    0    0    0    0 -0.00000000000E+00 -0.00000000000E+00 -0.78833284286E+03  0.78833284286E+03  0.00000000000E+00 0. -1.
         24    2    1    2    0    0  0.41776288369E+02  0.12114515402E+02 -0.37758087085E+03  0.38871407805E+03  0.81481904044E+02 0.  0.
         25    2    1    2    0    0 -0.90139483027E+02 -0.54075299046E+02 -0.32153283944E+03  0.36066726296E+03  0.12509293892E+03 0.  0.
        -24    2    1    2    0    0  0.48363194657E+02  0.41960783645E+02 -0.18249684752E+02  0.10992094968E+03  0.87463467936E+02 0.  0.
        -13    1    3    3    0    0 -0.24101513726E+02  0.97578594704E+01 -0.12474252987E+03  0.12742369302E+03  0.00000000000E+00 0.  1.
         14    1    3    3    0    0  0.65877802096E+02  0.23566559312E+01 -0.25283834098E+03  0.26129038502E+03  0.00000000000E+00 0. -1.
         11    1    5    5    0    0  0.31373235984E+02  0.64890880489E+02  0.61972556706E+01  0.72343018216E+02  0.00000000000E+00 0. -1.
        -12    1    5    5    0    0  0.16989958674E+02 -0.22930096844E+02 -0.24446940423E+02  0.37577931463E+02  0.00000000000E+00 0.  1.
          5    1    4    4  501    0  0.15491451912E+02 -0.10780051876E+02  0.12024527133E+00  0.19330842188E+02  0.41800000000E+01 0. -1.
         -5    1    4    4    0  501 -0.10563093494E+03 -0.43295247170E+02 -0.32165308471E+03  0.34133642077E+03  0.41800000000E+01 0. -1.
</event>
<event>
11    1  0.8039394E-009  0.1931640E+03  0.7561462E-02  0.1059466E+00
         22   -1    0    0    0    0  0.00000000000E+00  0.00000000000E+00  0.53172953590E+03  0.53172953590E+03  0.00000000000E+00 0. -1.
         22   -1    0    0    0    0 -0.00000000000E+00 -0.00000000000E+00 -0.57473658776E+03  0.57473658776E+03  0.00000000000E+00 0.  1.
        -24    2    1    2    0    0 -0.82521265952E+02  0.13444085750E+03 -0.45120279759E+03  0.48651947574E+03  0.90736609087E+02 0.  0.
         25    2    1    2    0    0  0.52403351969E+02 -0.93382967977E+02 -0.33715172102E+02  0.16808160639E+03  0.12509285979E+03 0.  0.
         24    2    1    2    0    0  0.30117913983E+02 -0.41057889525E+02  0.44191091783E+03  0.45186504154E+03  0.79397213012E+02 0.  0.
        -13    1    5    5    0    0  0.14948351664E+02  0.22358261158E+02  0.88774523098E+02  0.92759155941E+02  0.00000000000E+00 0.  1.
         14    1    5    5    0    0  0.15169562319E+02 -0.63416150683E+02  0.35313639473E+03  0.35910588560E+03  0.00000000000E+00 0. -1.
         11    1    3    3    0    0 -0.51546246641E+00  0.82555639148E+02 -0.16876871368E+03  0.18787915790E+03  0.00000000000E+00 0. -1.
        -12    1    3    3    0    0 -0.82005803486E+02  0.51885218353E+02 -0.28243408391E+03  0.29864031785E+03  0.00000000000E+00 0.  1.
          5    1    4    4  501    0  0.56246646286E+02 -0.80603461905E+02  0.30000059935E+02  0.10284978992E+03  0.41800000000E+01 0.  1.
         -5    1    4    4    0  501 -0.38432943171E+01 -0.12779506072E+02 -0.63715232036E+02  0.65231816471E+02  0.41800000000E+01 0.  1.
</event>
<event>
11    1  0.8039394E-009  0.3733223E+03  0.7561462E-02  0.9731926E-01
         22   -1    0    0    0    0  0.00000000000E+00  0.00000000000E+00  0.67660308146E+03  0.67660308146E+03  0.00000000000E+00 0. -1.
         22   -1    0    0    0    0 -0.00000000000E+00 -0.00000000000E+00 -0.11873087025E+04  0.11873087025E+04  0.00000000000E+00 0. -1.
        -24    2    1    2    0    0 -0.59421096807E+02  0.54021711480E+02 -0.47746707152E+03  0.49091336193E+03  0.81067333035E+02 0.  0.
         25    2    1    2    0    0  0.74848959867E+02 -0.40094900863E+03 -0.57793098181E+03  0.71834948212E+03  0.12513706254E+03 0.  0.
         24    2    1    2    0    0 -0.15427863060E+02  0.34692729715E+03  0.54469243229E+03  0.65464893991E+03  0.10620179032E+03 0.  0.
        -11    1    5    5    0    0 -0.47340882125E+02  0.15387524661E+03  0.18551749269E+03  0.24563283725E+03  0.00000000000E+00 0.  1.
         12    1    5    5    0    0  0.31913019065E+02  0.19305205054E+03  0.35917493959E+03  0.40901610266E+03  0.00000000000E+00 0. -1.
         11    1    3    3    0    0 -0.75288636834E+01  0.56549471925E+02 -0.32145915381E+03  0.32648202727E+03  0.00000000000E+00 0. -1.
        -12    1    3    3    0    0 -0.51892233124E+02 -0.25277604455E+01 -0.15600791770E+03  0.16443133466E+03  0.00000000000E+00 0.  1.
          5    1    4    4  501    0 -0.13485593253E+02 -0.17970112154E+03 -0.31950817166E+03  0.36684778651E+03  0.41800000000E+01 0. -1.
         -5    1    4    4    0  501  0.88334553119E+02 -0.22124788709E+03 -0.25842281014E+03  0.35150169562E+03  0.41800000000E+01 0. -1.
</event>
<event>
11    1  0.8039394E-009  0.1401657E+03  0.7561462E-02  0.1107374E+00
         22   -1    0    0    0    0  0.00000000000E+00  0.00000000000E+00  0.90606231540E+03  0.90606231540E+03  0.00000000000E+00 0. -1.
         22   -1    0    0    0    0 -0.00000000000E+00 -0.00000000000E+00 -0.59585294699E+03  0.59585294699E+03  0.00000000000E+00 0.  1.
        -24    2    1    2    0    0  0.14520321330E+02  0.27382351809E+02 -0.53889820628E+03  0.54618680290E+03  0.83355347799E+02 0.  0.
         25    2    1    2    0    0 -0.44533469478E+02  0.29438209402E+02  0.42209852255E+02  0.14240794411E+03  0.12509401601E+03 0.  0.
         24    2    1    2    0    0  0.30013148149E+02 -0.56820561211E+02  0.80689772243E+03  0.81332051538E+03  0.79227274540E+02 0.  0.
        -11    1    5    5    0    0  0.67405224393E+01 -0.19872060497E+02  0.39906656155E+02  0.45087411066E+02  0.00000000000E+00 0.  1.
         12    1    5    5    0    0  0.23272625709E+02 -0.36948500713E+02  0.76699106628E+03  0.76823310431E+03  0.00000000000E+00 0. -1.
         11    1    3    3    0    0  0.32743040135E+02 -0.11640478354E+02 -0.11578778224E+03  0.12089010683E+03  0.00000000000E+00 0. -1.
        -12    1    3    3    0    0 -0.18222718805E+02  0.39022830163E+02 -0.42311042404E+03  0.42529669607E+03  0.00000000000E+00 0.  1.
          5    1    4    4  501    0 -0.14513024698E+02 -0.49114253178E+02  0.21502801612E+02  0.55701711179E+02  0.41800000000E+01 0.  1.
         -5    1    4    4    0  501 -0.30020444780E+02  0.78552462579E+02  0.20707050643E+02  0.86706232927E+02  0.41800000000E+01 0.  1.
</event>
<event>
11    1  0.8039394E-009  0.2070495E+03  0.7561462E-02  0.1049648E+00
         22   -1    0    0    0    0  0.00000000000E+00  0.00000000000E+00  0.39796563924E+03  0.39796563924E+03  0.00000000000E+00 0. -1.
         22   -1    0    0    0    0 -0.00000000000E+00 -0.00000000000E+00 -0.83301053468E+03  0.83301053468E+03  0.00000000000E+00 0.  1.
         24    2    1    2    0    0 -0.85616536668E+02 -0.34801608785E+01 -0.31486363135E+03  0.33669609058E+03  0.82962932682E+02 0.  0.
         25    2    1    2    0    0 -0.17900194182E+02 -0.12828329552E+03 -0.46674191510E+03  0.50027297527E+03  0.12509202054E+03 0.  0.
        -24    2    1    2    0    0  0.10351673085E+03  0.13176345640E+03  0.34656065101E+03  0.39400710807E+03  0.84023772649E+02 0.  0.
        -13    1    3    3    0    0 -0.83189121676E+02 -0.28911144449E+02 -0.19243624317E+03  0.21163173657E+03  0.00000000000E+00 0.  1.
         14    1    3    3    0    0 -0.24274149916E+01  0.25430983571E+02 -0.12242738818E+03  0.12506435402E+03  0.00000000000E+00 0. -1.
         13    1    5    5    0    0  0.10711627101E+03  0.82960738563E+02  0.28328068527E+03  0.31401325817E+03  0.00000000000E+00 0. -1.
        -14    1    5    5    0    0 -0.35995401599E+01  0.48802717837E+02  0.63279965743E+02  0.79993849902E+02  0.00000000000E+00 0.  1.
          5    1    4    4  501    0 -0.45552819223E+02 -0.34265004088E+02 -0.64211759974E+02  0.85963785184E+02  0.41800000000E+01 0.  1.
         -5    1    4    4    0  501  0.27652625041E+02 -0.94018291434E+02 -0.40253015513E+03  0.41430919008E+03  0.41800000000E+01 0.  1.
</event>
<event>
11    1  0.8039394E-009  0.1262281E+03  0.7561462E-02  0.1123992E+00
         22   -1    0    0    0    0  0.00000000000E+00  0.00000000000E+00  0.73831224188E+03  0.73831224188E+03  0.00000000000E+00 0. -1.
         22   -1    0    0    0    0 -0.00000000000E+00 -0.00000000000E+00 -0.18772491118E+03  0.18772491118E+03  0.00000000000E+00 0. -1.
        -24    2    1    2    0    0 -0.59551245981E+01 -0.54465563891E+01 -0.98963237652E+02  0.12725585945E+03  0.79593987669E+02 0.  0.
         25    2    1    2    0    0  0.16925548492E+02  0.17940189712E+02 -0.15409981668E+02  0.12842572247E+03  0.12508946422E+03 0.  0.
         24    2    1    2    0    0 -0.10970423894E+02 -0.12493633323E+02  0.66496055002E+03  0.67035557113E+03  0.83232311010E+02 0.  0.
        -13    1    5    5    0    0 -0.22763192122E+02 -0.15931364346E+02  0.70634498367E+02  0.75902593139E+02  0.00000000000E+00 0.  1.
         14    1    5    5    0    0  0.11792768228E+02  0.34377310234E+01  0.59432605165E+03  0.59445297800E+03  0.00000000000E+00 0. -1.
         13    1    3    3    0    0 -0.40213053508E+02 -0.68003798536E+01 -0.75178956336E+02  0.85529002767E+02  0.00000000000E+00 0. -1.
        -14    1    3    3    0    0  0.34257928910E+02  0.13538234644E+01 -0.23784281317E+02  0.41726856686E+02  0.00000000000E+00 0.  1.
          5    1    4    4  501    0  0.31061783368E+02  0.61063435673E+02 -0.37024803834E+02  0.77986447933E+02  0.41800000000E+01 0.  1.
         -5    1    4    4    0  501 -0.14136234876E+02 -0.43123245961E+02  0.21614822166E+02  0.50439274539E+02  0.41800000000E+01 0.  1.
</event>
<event>
11    1  0.8039394E-009  0.1415446E+03  0.7561462E-02  0.1105846E+00
         22   -1    0    0    0    0  0.00000000000E+00  0.00000000000E+00  0.40889245164E+03  0.40889245164E+03  0.00000000000E+00 0. -1.
         22   -1    0    0    0    0 -0.00000000000E+00 -0.00000000000E+00 -0.99136702946E+03  0.99136702946E+03  0.00000000000E+00 0. -1.
         24    2    1    2    0    0  0.20602560274E+02  0.63951717348E+02 -0.93533237085E+03  0.94104430938E+03  0.78762050662E+02 0.  0.
         25    2    1    2    0    0 -0.13996234916E+01 -0.37036534734E+02  0.44211602564E+02  0.13775612286E+03  0.12509364386E+03 0.  0.
        -24    2    1    2    0    0 -0.19202936782E+02 -0.26915182614E+02  0.30864619046E+03  0.32145904885E+03  0.83548006373E+02 0.  0.
        -13    1    3    3    0    0 -0.15589922657E+02 -0.10385059435E+02 -0.25911284636E+03  0.25978907270E+03  0.00000000000E+00 0.  1.
         14    1    3    3    0    0  0.36192482930E+02  0.74336776783E+02 -0.67621952449E+03  0.68125523668E+03  0.00000000000E+00 0. -1.
         13    1    5    5    0    0 -0.12993973112E+01 -0.12029936288E+02  0.29335307667E+03  0.29360251258E+03  0.00000000000E+00 0. -1.
        -14    1    5    5    0    0 -0.17903539471E+02 -0.14885246326E+02  0.15293113783E+02  0.27856536270E+02  0.00000000000E+00 0.  1.
          5    1    4    4  501    0 -0.42324745244E+02 -0.15337171210E+02 -0.27030650589E+02  0.52675813729E+02  0.41800000000E+01 0.  1.
         -5    1    4    4    0  501  0.40925121753E+02 -0.21699363524E+02  0.71242253153E+02  0.85080309133E+02  0.41800000000E+01 0.  1.
</event>
<event>
11    1  0.8039394E-009  0.1591338E+03  0.7561462E-02  0.1087895E+00
         22   -1    0    0    0    0  0.00000000000E+00  0.00000000000E+00  0.33240334128E+03  0.33240334128E+03  0.00000000000E+00 0.  1.
         22   -1    0    0    0    0 -0.00000000000E+00 -0.00000000000E+00 -0.57593295200E+03  0.57593295200E+03  0.00000000000E+00 0.  1.
        -24    2    1    2    0    0  0.24744849322E+01  0.43346555123E+02 -0.44255009883E+03  0.45181565861E+03  0.80010952240E+02 0.  0.
         25    2    1    2    0    0  0.23725510275E+02  0.56667160762E+02 -0.70794603536E+02  0.15631004444E+03  0.12508751799E+03 0.  0.
         24    2    1    2    0    0 -0.26199995207E+02 -0.10001371589E+03  0.26981509165E+03  0.30021059023E+03  0.81467979528E+02 0.  0.
        -13    1    5    5    0    0 -0.43447015207E+02 -0.30243944049E+02  0.16371002412E+03  0.17205612828E+03  0.00000000000E+00 0.  1.
         14    1    5    5    0    0  0.17247020000E+02 -0.69769771836E+02  0.10610506753E+03  0.12815446195E+03  0.00000000000E+00 0. -1.
         11    1    3    3    0    0 -0.33736500206E+01 -0.52139347486E+01  0.35279792384E+00  0.62202167486E+01  0.00000000000E+00 0. -1.
        -12    1    3    3    0    0  0.58481349529E+01  0.48560489872E+02 -0.44290289675E+03  0.44559544186E+03  0.00000000000E+00 0.  1.
          5    1    4    4  501    0  0.32967978207E+02  0.64580617694E+02 -0.10046601408E+03  0.12396949687E+03  0.41800000000E+01 0. -1.
         -5    1    4    4    0  501 -0.92424679318E+01 -0.79134569322E+01  0.29671410539E+02  0.32340547575E+02  0.41800000000E+01 0. -1.
</event>
<event>
11    1  0.8039394E-009  0.1979325E+03  0.7561462E-02  0.1055995E+00
         22   -1    0    0    0    0  0.00000000000E+00  0.00000000000E+00  0.14133554426E+04  0.14133554426E+04  0.00000000000E+00 0. -1.
         22   -1    0    0    0    0 -0.00000000000E+00 -0.00000000000E+00 -0.10970154710E+04  0.10970154710E+04  0.00000000000E+00 0.  1.
        -24    2    1    2    0    0  0.10314181314E+03 -0.11014447956E+03 -0.87614908343E+03  0.89259260915E+03  0.79462629776E+02 0.  0.
         25    2    1    2    0    0 -0.10047895363E+03  0.13778695985E+03 -0.15851450367E+03  0.26430305489E+03  0.12509192829E+03 0.  0.
         24    2    1    2    0    0 -0.26628595124E+01 -0.27642480295E+02  0.13510035587E+04  0.13534752495E+04  0.76898880492E+02 0.  0.
        -13    1    5    5    0    0 -0.11060272662E+02  0.55362447284E+01  0.36738442531E+02  0.38764581729E+02  0.00000000000E+00 0.  1.
         14    1    5    5    0    0  0.83974131493E+01 -0.33178725023E+02  0.13142651162E+04  0.13147106678E+04  0.00000000000E+00 0. -1.
         11    1    3    3    0    0 -0.67018556249E+01 -0.31427986553E+02 -0.10924137264E+03  0.11386970934E+03  0.00000000000E+00 0. -1.
        -12    1    3    3    0    0  0.10984366877E+03 -0.78716493005E+02 -0.76690771078E+03  0.77872289982E+03  0.00000000000E+00 0.  1.
          5    1    4    4  501    0  0.11024869328E+02  0.80892558530E+02 -0.89824451947E+02  0.12145393504E+03  0.41800000000E+01 0. -1.
         -5    1    4    4    0  501 -0.11150382296E+03  0.56894401322E+02 -0.68690051725E+02  0.14284911985E+03  0.41800000000E+01 0. -1.
</event>
<event>
11    1  0.8039394E-009  0.1864187E+03  0.7561462E-02  0.1064566E+00
         22   -1    0    0    0    0  0.00000000000E+00  0.00000000000E+00  0.23155687261E+04  0.23155687261E+04  0.00000000000E+00 0.  1.
         22   -1    0    0    0    0 -0.00000000000E+00 -0.00000000000E+00 -0.82978796367E+02  0.82978796367E+02  0.00000000000E+00 0.  1.
        -24    2    1    2    0    0 -0.93195004328E+02  0.59637033888E+02 -0.57888861407E+01  0.13084890176E+03  0.69613499027E+02 0.  0.
         25    2    1    2    0    0  0.33931301107E+02 -0.16843299543E+03  0.14754088533E+04  0.14906374889E+04  0.12509129389E+03 0.  0.
         24    2    1    2    0    0  0.59263703221E+02  0.10879596154E+03  0.76296996261E+03  0.77706113183E+03  0.79700006213E+02 0.  0.
        -13    1    5    5    0    0  0.51418860099E+02  0.88139839213E+02  0.73165018280E+03  0.73873169718E+03  0.00000000000E+00 0.  1.
         14    1    5    5    0    0  0.78448431224E+01  0.20656122325E+02  0.31319779809E+02  0.38329434647E+02  0.00000000000E+00 0. -1.
         11    1    3    3    0    0  0.45842502086E+01 -0.16214079898E+01 -0.14346721934E+02  0.15148357802E+02  0.00000000000E+00 0. -1.
        -12    1    3    3    0    0 -0.97779254536E+02  0.61258441878E+02  0.85578357933E+01  0.11570054396E+03  0.00000000000E+00 0.  1.
          5    1    4    4  501    0  0.53622837552E+02 -0.26247745907E+02  0.65746833721E+03  0.66018667035E+03  0.41800000000E+01 0. -1.
         -5    1    4    4    0  501 -0.19691536445E+02 -0.14218524952E+03  0.81794051607E+03  0.83045081854E+03  0.41800000000E+01 0. -1.
</event>
<event>
11    1  0.8039394E-009  0.2074348E+03  0.7561462E-02  0.1049387E+00
         22   -1    0    0    0    0  0.00000000000E+00  0.00000000000E+00  0.24685043502E+04  0.24685043502E+04  0.00000000000E+00 0.  1.
         22   -1    0    0    0    0 -0.00000000000E+00 -0.00000000000E+00 -0.89911484443E+02  0.89911484443E+02  0.00000000000E+00 0. -1.
         24    2    1    2    0    0  0.16429632763E+03 -0.44414373036E+02  0.13874325204E+03  0.23241506825E+03  0.76165308111E+02 0.  0.
         25    2    1    2    0    0 -0.15985670742E+03  0.15143279095E+02  0.20344828527E+03  0.28778900738E+03  0.12509125541E+03 0.  0.
        -24    2    1    2    0    0 -0.44396202079E+01  0.29271093940E+02  0.20364013284E+04  0.20382117590E+04  0.80624418666E+02 0.  0.
        -11    1    3    3    0    0  0.14628193671E+02  0.15398130139E+02  0.34343393890E+02  0.40380133305E+02  0.00000000000E+00 0.  1.
         12    1    3    3    0    0  0.14966813396E+03 -0.59812503174E+02  0.10439985815E+03  0.19203493495E+03  0.00000000000E+00 0. -1.
         11    1    5    5    0    0  0.33742034710E+02  0.11740546703E+02  0.51863759107E+03  0.51986663311E+03  0.00000000000E+00 0. -1.
        -12    1    5    5    0    0 -0.38181654918E+02  0.17530547238E+02  0.15177637373E+04  0.15183451259E+04  0.00000000000E+00 0.  1.
          5    1    4    4  501    0 -0.99551751721E+02 -0.52284020678E+02  0.12234833761E+03  0.16622502280E+03  0.41800000000E+01 0. -1.
         -5    1    4    4    0  501 -0.60304955701E+02  0.67427299774E+02  0.81099947657E+02  0.12156398458E+03  0.41800000000E+01 0. -1.
</event>
<event>
11    1  0.8039394E-009  0.2512049E+03  0.7561462E-02  0.1023259E+00
         22   -1    0    0    0    0  0.00000000000E+00  0.00000000000E+00  0.18157547884E+04  0.18157547884E+04  0.00000000000E+00 0. -1.
         22   -1    0    0    0    0 -0.00000000000E+00 -0.00000000000E+00 -0.14454824094E+03  0.14454824094E+03  0.00000000000E+00 0.  1.
        -24    2    1    2    0    0  0.53780523898E+02  0.16570866239E+01 -0.37868333803E+02  0.10384835742E+03  0.80345379122E+02 0.  0.
         25    2    1    2    0    0  0.91219302429E+02  0.16659593296E+03  0.13421168808E+03  0.26407695505E+03  0.12509474392E+03 0.  0.
         24    2    1    2    0    0 -0.14499982633E+03 -0.16825301959E+03  0.15748631932E+04  0.15923777169E+04  0.78349777887E+02 0.  0.
        -13    1    5    5    0    0  0.96726183347E+01 -0.11350857990E+02  0.12090480661E+03  0.12182107283E+03  0.00000000000E+00 0.  1.
         14    1    5    5    0    0 -0.15467244466E+03 -0.15690216160E+03  0.14539583866E+04  0.14705566440E+04  0.00000000000E+00 0. -1.
         13    1    3    3    0    0  0.52372609728E+02  0.15882610302E+02  0.84480547248E+01  0.55376142773E+02  0.00000000000E+00 0. -1.
        -14    1    3    3    0    0  0.14079141699E+01 -0.14225523678E+02 -0.46316388528E+02  0.48472214644E+02  0.00000000000E+00 0.  1.
          5    1    4    4  501    0  0.11280197608E+03  0.80728139880E+02  0.83402967650E+02  0.16190999286E+03  0.41800000000E+01 0. -1.
         -5    1    4    4    0  501 -0.21582673652E+02  0.85867793082E+02  0.50808720429E+02  0.10216696219E+03  0.41800000000E+01 0. -1.
</event>
<event>
11    1  0.9661322E-009  0.2639215E+03  0.7561462E-02  0.1016734E+00
         22   -1    0    0    0    0  0.00000000000E+00  0.00000000000E+00  0.43736665575E+03  0.43736665575E+03  0.00000000000E+00 0.  1.
         22   -1    0    0    0    0 -0.00000000000E+00 -0.00000000000E+00 -0.29431948440E+04  0.29431948440E+04  0.00000000000E+00 0.  1.
         24    2    1    2    0    0 -0.86296490450E+02 -0.39604755478E+02 -0.22884136779E+04  0.22918374255E+04  0.81645590745E+02 0.  0.
         25    2    1    2    0    0 -0.12677338947E+03 -0.66170984250E+02 -0.60064465595E+03  0.62997761721E+03  0.12509078315E+03 0.  0.
        -24    2    1    2    0    0  0.21306987992E+03  0.10577573973E+03  0.38323014566E+03  0.45874645706E+03  0.83640220462E+02 0.  0.
        -11    1    3    3    0    0 -0.17486265293E+02 -0.50244154028E+02 -0.77571056579E+03  0.77753271723E+03  0.00000000000E+00 0.  1.
         12    1    3    3    0    0 -0.68810225157E+02  0.10639398551E+02 -0.15127031121E+04  0.15143047082E+04  0.00000000000E+00 0. -1.
         11    1    5    5    0    0  0.32697911190E+02 -0.13142089808E+02  0.41415146161E+02  0.54379060789E+02  0.00000000000E+00 0. -1.
        -12    1    5    5    0    0  0.18037196873E+03  0.11891782954E+03  0.34181499949E+03  0.40436739627E+03  0.00000000000E+00 0.  1.
          5    1    4    4  501    0 -0.13706573136E+03 -0.59259957212E+02 -0.37080150976E+03  0.39976241605E+03  0.41800000000E+01 0. -1.
         -5    1    4    4    0  501  0.10292341891E+02 -0.69110270374E+01 -0.22984314619E+03  0.23021520117E+03  0.41800000000E+01 0. -1.
</event>
<event>
11    1  0.8039394E-009  0.2618423E+03  0.7561462E-02  0.1017773E+00
         22   -1    0    0    0    0  0.00000000000E+00  0.00000000000E+00  0.13354804699E+04  0.13354804699E+04  0.00000000000E+00 0. -1.
         22   -1    0    0    0    0 -0.00000000000E+00 -0.00000000000E+00 -0.73294205179E+03  0.73294205179E+03  0.00000000000E+00 0.  1.
         24    2    1    2    0    0  0.20554535862E+03 -0.65144790251E+02 -0.34359228487E+03  0.41328169040E+03  0.79078184394E+02 0.  0.
         25    2    1    2    0    0 -0.20554190456E+03  0.17133223851E+03 -0.28852296958E+03  0.41291044791E+03  0.12508926229E+03 0.  0.
        -24    2    1    2    0    0 -0.34540655852E-02 -0.10618744826E+03  0.12346536725E+04  0.12422303833E+04  0.86549754760E+02 0.  0.
        -13    1    3    3    0    0  0.17951681812E+03 -0.76020494874E+02 -0.32657340558E+03  0.38033615771E+03  0.00000000000E+00 0.  1.
         14    1    3    3    0    0  0.26028540505E+02  0.10875704622E+02 -0.17018879289E+02  0.32945532688E+02  0.00000000000E+00 0. -1.
         13    1    5    5    0    0  0.13694931937E+02 -0.59436506642E+02  0.10320972272E+04  0.10338979331E+04  0.00000000000E+00 0. -1.
        -14    1    5    5    0    0 -0.13698386003E+02 -0.46750941614E+02  0.20255644528E+03  0.20833245029E+03  0.00000000000E+00 0.  1.
          5    1    4    4  501    0 -0.70404898557E+01 -0.15324823722E+02 -0.41951278889E+02  0.45407058041E+02  0.41800000000E+01 0. -1.
         -5    1    4    4    0  501 -0.19850141470E+03  0.18665706223E+03 -0.24657169069E+03  0.36750338987E+03  0.41800000000E+01 0. -1.
</event>
<event>
11    1  0.8039394E-009  0.1635742E+03  0.7561462E-02  0.1083763E+00
         22   -1    0    0    0    0  0.00000000000E+00  0.00000000000E+00  0.14519179610E+04  0.14519179610E+04  0.00000000000E+00 0. -1.
         22   -1    0    0    0    0 -0.00000000000E+00 -0.00000000000E+00 -0.39846719284E+03  0.39846719284E+03  0.00000000000E+00 0.  1.
         24    2    1    2    0    0 -0.27503362282E+02  0.18705326080E+02 -0.28868095588E+03  0.30162560670E+03  0.80839273691E+02 0.  0.
         25    2    1    2    0    0  0.12158241578E+03  0.27686055965E+02 -0.22312563819E+02  0.17802943040E+03  0.12509127093E+03 0.  0.
        -24    2    1    2    0    0 -0.94079053497E+02 -0.46391382045E+02  0.13644442879E+04  0.13707301168E+04  0.78675343434E+02 0.  0.
        -13    1    3    3    0    0 -0.22731113474E+01 -0.16743520290E+02 -0.21780593505E+03  0.21846038050E+03  0.00000000000E+00 0.  1.
         14    1    3    3    0    0 -0.25230250934E+02  0.35448846369E+02 -0.70875020828E+02  0.83165226197E+02  0.00000000000E+00 0. -1.
         11    1    5    5    0    0 -0.85419252167E+02 -0.51304565518E+02  0.13467167597E+04  0.13503979554E+04  0.00000000000E+00 0. -1.
        -12    1    5    5    0    0 -0.86598013296E+01  0.49131834738E+01  0.17727528197E+02  0.20332161392E+02  0.00000000000E+00 0.  1.
          5    1    4    4  501    0  0.36107550109E+02  0.22094161916E+01  0.50884394361E+02  0.62572603304E+02  0.41800000000E+01 0. -1.
         -5    1    4    4    0  501  0.85474865670E+02  0.25476639773E+02 -0.73196958180E+02  0.11545682709E+03  0.41800000000E+01 0. -1.
</event>
<event>
11    1  0.8039394E-009  0.1459621E+03  0.7561462E-02  0.1101078E+00
         22   -1    0    0    0    0  0.00000000000E+00  0.00000000000E+00  0.81504444622E+03  0.81504444622E+03  0.00000000000E+00 0. -1.
         22   -1    0    0    0    0 -0.00000000000E+00 -0.00000000000E+00 -0.53246049222E+03  0.53246049222E+03  0.00000000000E+00 0.  1.
         24    2    1    2    0    0 -0.41334046392E+02  0.48543337277E+02 -0.49562528182E+03  0.50568312615E+03  0.77498678084E+02 0.  0.
         25    2    1    2    0    0  0.81440082354E+01 -0.11078740917E+03  0.23887722222E+03  0.29163344906E+03  0.12509023308E+03 0.  0.
        -24    2    1    2    0    0  0.33190038157E+02  0.62244071895E+02  0.53933201360E+03  0.55018836323E+03  0.82778686999E+02 0.  0.
        -11    1    3    3    0    0 -0.51316947211E+02  0.14585955777E+02 -0.40317000293E+03  0.40668443594E+03  0.00000000000E+00 0.  1.
         12    1    3    3    0    0  0.99829008187E+01  0.33957381500E+02 -0.92455278895E+02  0.98998690207E+02  0.00000000000E+00 0. -1.
         11    1    5    5    0    0  0.27772039383E+02  0.82785738382E+02  0.44623932960E+03  0.45470243449E+03  0.00000000000E+00 0. -1.
        -12    1    5    5    0    0  0.54179987735E+01 -0.20541666486E+02  0.93092683995E+02  0.95485928734E+02  0.00000000000E+00 0.  1.
          5    1    4    4  501    0 -0.19403529924E+01 -0.51918382746E+02  0.22393980891E+03  0.22992562678E+03  0.41800000000E+01 0.  1.
         -5    1    4    4    0  501  0.10084361228E+02 -0.58869026426E+02  0.14937413314E+02  0.61707822278E+02  0.41800000000E+01 0.  1.
</event>
<event>
11    1  0.8039394E-009  0.1416377E+03  0.7561462E-02  0.1105743E+00
         22   -1    0    0    0    0  0.00000000000E+00  0.00000000000E+00  0.22538075368E+04  0.22538075368E+04  0.00000000000E+00 0.  1.
         22   -1    0    0    0    0 -0.00000000000E+00 -0.00000000000E+00 -0.10404660569E+04  0.10404660569E+04  0.00000000000E+00 0.  1.
         24    2    1    2    0    0  0.56028637493E+02  0.35944500097E+02 -0.10284779508E+04  0.10335997708E+04  0.78296715134E+02 0.  0.
         25    2    1    2    0    0 -0.43949703591E+02 -0.36463931890E+01  0.52177159837E+03  0.53836617889E+03  0.12509064344E+03 0.  0.
        -24    2    1    2    0    0 -0.12078933903E+02 -0.32298106908E+02  0.17200478323E+04  0.17223076441E+04  0.81178859139E+02 0.  0.
        -11    1    3    3    0    0  0.50691477466E+02  0.57547480619E+02 -0.65797899968E+03  0.66243316828E+03  0.00000000000E+00 0.  1.
         12    1    3    3    0    0  0.53371600278E+01 -0.21602980522E+02 -0.37049895109E+03  0.37116660249E+03  0.00000000000E+00 0. -1.
         13    1    5    5    0    0 -0.42462960637E+02 -0.31807053892E+02  0.13387334801E+04  0.13397843566E+04  0.00000000000E+00 0. -1.
        -14    1    5    5    0    0  0.30384026734E+02 -0.49105301582E+00  0.38131435223E+03  0.38252328744E+03  0.00000000000E+00 0.  1.
          5    1    4    4  501    0  0.10051250216E+02  0.26976943110E+02  0.40507702499E+03  0.40612024287E+03  0.41800000000E+01 0.  1.
         -5    1    4    4    0  501 -0.54000953807E+02 -0.30623336299E+02  0.11669457338E+03  0.13224593602E+03  0.41800000000E+01 0.  1.
</event>
<event>
11    1  0.8039394E-009  0.2090509E+03  0.7561462E-02  0.1048302E+00
         22   -1    0    0    0    0  0.00000000000E+00  0.00000000000E+00  0.83062534480E+02  0.83062534480E+02  0.00000000000E+00 0. -1.
         22   -1    0    0    0    0 -0.00000000000E+00 -0.00000000000E+00 -0.21834648859E+04  0.21834648859E+04  0.00000000000E+00 0.  1.
        -24    2    1    2    0    0 -0.34616076416E+00  0.15987609179E+03 -0.15477155836E+04  0.15590096229E+04  0.97606312133E+02 0.  0.
         25    2    1    2    0    0 -0.63174001913E+02 -0.20008165190E+03 -0.55571813656E+03  0.60703640619E+03  0.12508768600E+03 0.  0.
         24    2    1    2    0    0  0.63520162677E+02  0.40205560113E+02  0.30313687262E+01  0.10048139126E+03  0.66603473356E+02 0.  0.
        -11    1    5    5    0    0  0.32584784037E+02 -0.15044702042E+02  0.86293803798E+01  0.36913106290E+02  0.00000000000E+00 0.  1.
         12    1    5    5    0    0  0.30935378640E+02  0.55250262155E+02 -0.55980116536E+01  0.63568284972E+02  0.00000000000E+00 0. -1.
         13    1    3    3    0    0 -0.29135304628E+02  0.72692842692E+02 -0.39786523205E+03  0.40549951693E+03  0.00000000000E+00 0. -1.
        -14    1    3    3    0    0  0.28789143863E+02  0.87183249094E+02 -0.11498503515E+04  0.11535101060E+04  0.00000000000E+00 0.  1.
          5    1    4    4  501    0 -0.85727547672E+02 -0.16684872052E+03 -0.52109226240E+03  0.55384323260E+03  0.41800000000E+01 0. -1.
         -5    1    4    4    0  501  0.22553545759E+02 -0.33232931383E+02 -0.34625874166E+02  0.53193173588E+02  0.41800000000E+01 0. -1.
</event>
<event>
11    1  0.8039394E-009  0.1352225E+03  0.7561462E-02  0.1113014E+00
         22   -1    0    0    0    0  0.00000000000E+00  0.00000000000E+00  0.85517057786E+03  0.85517057786E+03  0.00000000000E+00 0. -1.
         22   -1    0    0    0    0 -0.00000000000E+00 -0.00000000000E+00 -0.16839876807E+04  0.16839876807E+04  0.00000000000E+00 0.  1.
         24    2    1    2    0    0  0.32700988226E+02  0.11150929466E+02 -0.83959858502E+03  0.84366560319E+03  0.75180903018E+02 0.  0.
         25    2    1    2    0    0 -0.22796406388E+02  0.39355605597E+02 -0.83423536029E+03  0.84478356774E+03  0.12506838183E+03 0.  0.
        -24    2    1    2    0    0 -0.99045818377E+01 -0.50506535063E+02  0.84501684244E+03  0.85070908765E+03  0.83686779062E+02 0.  0.
        -13    1    3    3    0    0  0.33236260094E+02  0.13057872746E+01 -0.82699491970E+03  0.82766354957E+03  0.00000000000E+00 0.  1.
         14    1    3    3    0    0 -0.53527186773E+00  0.98451421918E+01 -0.12603665317E+02  0.16002053624E+02  0.00000000000E+00 0. -1.
         11    1    5    5    0    0 -0.44539031765E+02 -0.12892679252E+02  0.45453707552E+03  0.45689593952E+03  0.00000000000E+00 0. -1.
        -12    1    5    5    0    0  0.34634449927E+02 -0.37613855811E+02  0.39047976691E+03  0.39381314813E+03  0.00000000000E+00 0.  1.
          5    1    4    4  501    0 -0.30238180659E+02  0.83071646708E+02 -0.56429130377E+03  0.57118945541E+03  0.41800000000E+01 0.  1.
         -5    1    4    4    0  501  0.74417742708E+01 -0.43716041111E+02 -0.26994405652E+03  0.27359411233E+03  0.41800000000E+01 0.  1.
</event>
<event>
11    1  0.8039394E-009  0.1282099E+03  0.7561462E-02  0.1121488E+00
         22   -1    0    0    0    0  0.00000000000E+00  0.00000000000E+00  0.89285171247E+03  0.89285171247E+03  0.00000000000E+00 0.  1.
         22   -1    0    0    0    0 -0.00000000000E+00 -0.00000000000E+00 -0.28318078790E+03  0.28318078790E+03  0.00000000000E+00 0. -1.
        -24    2    1    2    0    0  0.23182703098E+02  0.12589426971E+01 -0.25313099519E+03  0.26658547853E+03  0.80333641643E+02 0.  0.
         25    2    1    2    0    0 -0.21124163455E+02 -0.29210690210E+02  0.18467330761E+03  0.22594623534E+03  0.12509187030E+03 0.  0.
         24    2    1    2    0    0 -0.20585396425E+01  0.27951747513E+02  0.67812861216E+03  0.68350078650E+03  0.80804534219E+02 0.  0.
        -13    1    5    5    0    0 -0.83969359119E+01  0.56041121709E+02  0.43688685985E+03  0.44054652894E+03  0.00000000000E+00 0.  1.
         14    1    5    5    0    0  0.63383962695E+01 -0.28089374197E+02  0.24124175231E+03  0.24295425756E+03  0.00000000000E+00 0. -1.
         11    1    3    3    0    0  0.12121544012E+02 -0.82073402239E+00 -0.25490256904E+03  0.25519193784E+03  0.00000000000E+00 0. -1.
        -12    1    3    3    0    0  0.11061159086E+02  0.20796767195E+01  0.17715738554E+01  0.11393540692E+02  0.00000000000E+00 0.  1.
          5    1    4    4  501    0  0.44351340587E+02  0.10751080798E+02  0.34838017014E+02  0.57565501644E+02  0.41800000000E+01 0.  1.
         -5    1    4    4    0  501 -0.65475504042E+02 -0.39961771007E+02  0.14983529059E+03  0.16838073369E+03  0.41800000000E+01 0.  1.
</event>
<event>
11    1  0.8039394E-009  0.2369327E+03  0.7561462E-02  0.1031100E+00
         22   -1    0    0    0    0  0.00000000000E+00  0.00000000000E+00  0.37221522085E+02  0.37221522085E+02  0.00000000000E+00 0. -1.
         22   -1    0    0    0    0 -0.00000000000E+00 -0.00000000000E+00 -0.33836569832E+04  0.33836569832E+04  0.00000000000E+00 0. -1.
         24    2    1    2    0    0 -0.10275828276E+03 -0.16706677817E+03 -0.24561355928E+04  0.24653013065E+04  0.81473359008E+02 0.  0.
         25    2    1    2    0    0  0.11447643010E+03  0.19712480844E+03 -0.67836756432E+03  0.72649393137E+03  0.12509131401E+03 0.  0.
        -24    2    1    2    0    0 -0.11718147337E+02 -0.30058030278E+02 -0.21193230394E+03  0.22908326743E+03  0.80765350259E+02 0.  0.
        -11    1    3    3    0    0 -0.36704213133E+02 -0.85072663368E+02 -0.16059758233E+04  0.16086462949E+04  0.00000000000E+00 0.  1.
         12    1    3    3    0    0 -0.66054069628E+02 -0.81994114797E+02 -0.85015976957E+03  0.85665501152E+03  0.00000000000E+00 0. -1.
         11    1    5    5    0    0  0.13881374369E+02 -0.49468663807E+02 -0.97276858133E+02  0.11001194654E+03  0.00000000000E+00 0. -1.
        -12    1    5    5    0    0 -0.25599521706E+02  0.19410633529E+02 -0.11465544581E+03  0.11907132089E+03  0.00000000000E+00 0.  1.
          5    1    4    4  501    0  0.11175579628E+03  0.19976536642E+03 -0.68225437743E+03  0.71964162439E+03  0.41800000000E+01 0.  1.
         -5    1    4    4    0  501  0.27206338189E+01 -0.26405579729E+01  0.38868131137E+01  0.68523069813E+01  0.41800000000E+01 0.  1.
</event>
<event>
11    1  0.8039394E-009  0.1352606E+03  0.7561462E-02  0.1112969E+00
         22   -1    0    0    0    0  0.00000000000E+00  0.00000000000E+00  0.76867210820E+03  0.76867210820E+03  0.00000000000E+00 0. -1.
         22   -1    0    0    0    0 -0.00000000000E+00 -0.00000000000E+00 -0.14796466798E+03  0.14796466798E+03  0.00000000000E+00 0.  1.
        -24    2    1    2    0    0 -0.77575353342E+01  0.13056789281E+02 -0.68821717669E+02  0.10864118929E+03  0.82679018414E+02 0.  0.
         25    2    1    2    0    0 -0.26612849679E+02  0.26421712275E+02  0.20768862477E+02  0.13223056804E+03  0.12508887571E+03 0.  0.
         24    2    1    2    0    0  0.34370385013E+02 -0.39478501556E+02  0.66876029541E+03  0.67576501887E+03  0.81719964237E+02 0.  0.
        -11    1    5    5    0    0 -0.17484675112E+02  0.50068813670E+01  0.49289492901E+02  0.52537956139E+02  0.00000000000E+00 0.  1.
         12    1    5    5    0    0  0.51855060125E+02 -0.44485382923E+02  0.61947080251E+03  0.62322706273E+03  0.00000000000E+00 0. -1.
         11    1    3    3    0    0  0.74954366884E+01  0.31868835000E+01  0.18096296050E+02  0.19844740571E+02  0.00000000000E+00 0. -1.
        -12    1    3    3    0    0 -0.15252972023E+02  0.98699057807E+01 -0.86918013719E+02  0.88796448715E+02  0.00000000000E+00 0.  1.
          5    1    4    4  501    0 -0.34261363339E+02  0.73968397566E+02  0.19267800617E+02  0.83868262155E+02  0.41800000000E+01 0.  1.
         -5    1    4    4    0  501  0.76485136605E+01 -0.47546685291E+02  0.15010618598E+01  0.48362305880E+02  0.41800000000E+01 0.  1.
</event>
<event>
11    1  0.8039394E-009  0.1370317E+03  0.7561462E-02  0.1110919E+00
         22   -1    0    0    0    0  0.00000000000E+00  0.00000000000E+00  0.11219818853E+04  0.11219818853E+04  0.00000000000E+00 0. -1.
         22   -1    0    0    0    0 -0.00000000000E+00 -0.00000000000E+00 -0.71750234283E+03  0.71750234283E+03  0.00000000000E+00 0. -1.
         24    2    1    2    0    0  0.20678740041E+02 -0.51994771798E+02 -0.69767288214E+03  0.70455287139E+03  0.80723178420E+02 0.  0.
         25    2    1    2    0    0  0.31570415764E+01  0.60348576927E+02  0.32717241193E+03  0.35544540196E+03  0.12509088295E+03 0.  0.
        -24    2    1    2    0    0 -0.23835781618E+02 -0.83538051296E+01  0.77498001267E+03  0.77948595478E+03  0.79789743150E+02 0.  0.
        -11    1    3    3    0    0  0.44156090881E+02 -0.38509491090E+01 -0.28724435904E+03  0.29064396084E+03  0.00000000000E+00 0.  1.
         12    1    3    3    0    0 -0.23477350840E+02 -0.48143822689E+02 -0.41042852309E+03  0.41390891055E+03  0.00000000000E+00 0. -1.
         13    1    5    5    0    0 -0.15089886014E+02  0.10019198529E+02  0.72875908945E+03  0.72898415583E+03  0.00000000000E+00 0. -1.
        -14    1    5    5    0    0 -0.87458956037E+01 -0.18373003658E+02  0.46220923218E+02  0.50501798943E+02  0.00000000000E+00 0.  1.
          5    1    4    4  501    0 -0.54538302476E+02  0.19967242579E+02  0.83727316367E+02  0.10198457295E+03  0.41800000000E+01 0.  1.
         -5    1    4    4    0  501  0.57695344052E+02  0.40381334348E+02  0.24344509556E+03  0.25346082901E+03  0.41800000000E+01 0.  1.
</event>
<event>
11    1  0.8039394E-009  0.1597005E+03  0.7561462E-02  0.1087359E+00
         22   -1    0    0    0    0  0.00000000000E+00  0.00000000000E+00  0.28974082213E+04  0.28974082213E+04  0.00000000000E+00 0.  1.
         22   -1    0    0    0    0 -0.00000000000E+00 -0.00000000000E+00 -0.48965647318E+02  0.48965647318E+02  0.00000000000E+00 0. -1.
         24    2    1    2    0    0  0.96077618410E+02 -0.21982627796E+02  0.82336328039E+02  0.15150079205E+03  0.80368366870E+02 0.  0.
         25    2    1    2    0    0 -0.90995250442E+02  0.56213838642E+02  0.48640060941E+03  0.51349063263E+03  0.12508775203E+03 0.  0.
        -24    2    1    2    0    0 -0.50823679687E+01 -0.34231210846E+02  0.22797056366E+04  0.22813824440E+04  0.80314755786E+02 0.  0.
        -11    1    3    3    0    0  0.24111038987E+02  0.19697493188E+02 -0.42747714475E+01  0.31426216919E+02  0.00000000000E+00 0.  1.
         12    1    3    3    0    0  0.71966579424E+02 -0.41680120984E+02  0.86611099487E+02  0.12007457513E+03  0.00000000000E+00 0. -1.
         11    1    5    5    0    0 -0.50691943616E+01 -0.21619640727E+02  0.14956556257E+03  0.15120503664E+03  0.00000000000E+00 0. -1.
        -12    1    5    5    0    0 -0.13173607159E-01 -0.12611570118E+02  0.21301400740E+04  0.21301774073E+04  0.00000000000E+00 0.  1.
          5    1    4    4  501    0 -0.89590211390E+02  0.46243020511E+02  0.17582161228E+03  0.20272033610E+03  0.41800000000E+01 0. -1.
         -5    1    4    4    0  501 -0.14050390515E+01  0.99708181307E+01  0.31057899713E+03  0.31077029653E+03  0.41800000000E+01 0. -1.
</event>
<event>
11    1  0.8039394E-009  0.1481705E+03  0.7561462E-02  0.1098763E+00
         22   -1    0    0    0    0  0.00000000000E+00  0.00000000000E+00  0.50704545013E+03  0.50704545013E+03  0.00000000000E+00 0.  1.
         22   -1    0    0    0    0 -0.00000000000E+00 -0.00000000000E+00 -0.88091142612E+03  0.88091142612E+03  0.00000000000E+00 0.  1.
         24    2    1    2    0    0 -0.82006779114E+01 -0.28984060643E+02 -0.48913784909E+03  0.49632373481E+03  0.78575361486E+02 0.  0.
         25    2    1    2    0    0  0.81225749250E+02 -0.23731929836E+01 -0.36706608282E+03  0.39621901319E+03  0.12509493543E+03 0.  0.
        -24    2    1    2    0    0 -0.73025071339E+02  0.31357253627E+02  0.48233795592E+03  0.49541412825E+03  0.80432060454E+02 0.  0.
        -13    1    3    3    0    0 -0.16260678138E+02 -0.61217035108E+01 -0.44967090091E+03  0.45000644888E+03  0.00000000000E+00 0.  1.
         14    1    3    3    0    0  0.80600002265E+01 -0.22862357132E+02 -0.39466948182E+02  0.46317285932E+02  0.00000000000E+00 0. -1.
         11    1    5    5    0    0  0.86626175809E+01 -0.12312344161E+02  0.13857792144E+03  0.13939323898E+03  0.00000000000E+00 0. -1.
        -12    1    5    5    0    0 -0.81687688919E+02  0.43669597788E+02  0.34376003448E+03  0.35602088927E+03  0.00000000000E+00 0.  1.
          5    1    4    4  501    0 -0.21130474405E+02 -0.29785027731E+02 -0.15263607847E+03  0.15699964865E+03  0.41800000000E+01 0.  1.
         -5    1    4    4    0  501  0.10235622365E+03  0.27411834747E+02 -0.21443000435E+03  0.23921936454E+03  0.41800000000E+01 0.  1.
</event>
<event>
11    1  0.8039394E-009  0.1651219E+03  0.7561462E-02  0.1082357E+00
         22   -1    0    0    0    0  0.00000000000E+00  0.00000000000E+00  0.30097937203E+03  0.30097937203E+03  0.00000000000E+00 0. -1.
         22   -1    0    0    0    0 -0.00000000000E+00 -0.00000000000E+00 -0.88062312757E+03  0.88062312757E+03  0.00000000000E+00 0.  1.
         24    2    1    2    0    0 -0.99548229090E+02 -0.40116900786E+02 -0.81470880753E+03  0.82580337274E+03  0.81740771483E+02 0.  0.
         25    2    1    2    0    0  0.10906166878E+03  0.50403462200E+02  0.10176530456E+03  0.20109899955E+03  0.12509865630E+03 0.  0.
        -24    2    1    2    0    0 -0.95134396924E+01 -0.10286561414E+02  0.13329974742E+03  0.15470012731E+03  0.77246280483E+02 0.  0.
        -11    1    3    3    0    0 -0.79232978275E+02  0.40962733120E+01 -0.36817756075E+03  0.37662894278E+03  0.00000000000E+00 0.  1.
         12    1    3    3    0    0 -0.20315250815E+02 -0.44213174098E+02 -0.44653124678E+03  0.44917442996E+03  0.00000000000E+00 0. -1.
         13    1    5    5    0    0 -0.11869438051E+02  0.48990850681E+01  0.13802633398E+03  0.13862234115E+03  0.00000000000E+00 0. -1.
        -14    1    5    5    0    0  0.23559983582E+01 -0.15185646483E+02 -0.47265865621E+01  0.16077786162E+02  0.00000000000E+00 0.  1.
          5    1    4    4  501    0  0.26709732127E+02  0.22010052147E+02 -0.28025895600E+02  0.44730028057E+02  0.41800000000E+01 0.  1.
         -5    1    4    4    0  501  0.82351936655E+02  0.28393410053E+02  0.12979120016E+03  0.15636897149E+03  0.41800000000E+01 0.  1.
</event>
<event>
11    1  0.8039394E-009  0.1416069E+03  0.7561462E-02  0.1105777E+00
         22   -1    0    0    0    0  0.00000000000E+00  0.00000000000E+00  0.99955597103E+03  0.99955597103E+03  0.00000000000E+00 0. -1.
         22   -1    0    0    0    0 -0.00000000000E+00 -0.00000000000E+00 -0.14762436408E+04  0.14762436408E+04  0.00000000000E+00 0. -1.
        -24    2    1    2    0    0  0.54645960402E+01  0.28750603876E+02 -0.14197573670E+04  0.14223436592E+04  0.80585636756E+02 0.  0.
         25    2    1    2    0    0 -0.30190753803E+02 -0.88629279357E+02  0.64944380191E+02  0.16920845955E+03  0.12508836673E+03 0.  0.
         24    2    1    2    0    0  0.24726157763E+02  0.59878675481E+02  0.87812531699E+03  0.88424749307E+03  0.81195554084E+02 0.  0.
        -11    1    5    5    0    0  0.54324118400E+02  0.33656508464E+02  0.50279260321E+03  0.50683752056E+03  0.00000000000E+00 0.  1.
         12    1    5    5    0    0 -0.29597960638E+02  0.26222167016E+02  0.37533271378E+03  0.37740997251E+03  0.00000000000E+00 0. -1.
         13    1    3    3    0    0 -0.12169755988E+02  0.11771573397E+02 -0.12999838848E+04  0.13000941403E+04  0.00000000000E+00 0. -1.
        -14    1    3    3    0    0  0.17634352028E+02  0.16979030479E+02 -0.11977348216E+03  0.12224951892E+03  0.00000000000E+00 0.  1.
          5    1    4    4  501    0 -0.40037696697E+02 -0.88170026686E+02  0.95962854195E+02  0.13639396082E+03  0.41800000000E+01 0.  1.
         -5    1    4    4    0  501  0.98469428942E+01 -0.45925267133E+00 -0.31018474005E+02  0.32814498731E+02  0.41800000000E+01 0.  1.
</event>
<event>
11    1  0.8039394E-009  0.1407584E+03  0.7561462E-02  0.1106714E+00
         22   -1    0    0    0    0  0.00000000000E+00  0.00000000000E+00  0.92619534903E+03  0.92619534903E+03  0.00000000000E+00 0. -1.
         22   -1    0    0    0    0 -0.00000000000E+00 -0.00000000000E+00 -0.98012172943E+03  0.98012172943E+03  0.00000000000E+00 0.  1.
         24    2    1    2    0    0 -0.28516041314E+02 -0.58036026736E+02 -0.96024082612E+03  0.96599342614E+03  0.83063290343E+02 0.  0.
         25    2    1    2    0    0  0.68775590138E+01  0.52511624068E+02  0.31003462607E+03  0.33848822704E+03  0.12509212205E+03 0.  0.
        -24    2    1    2    0    0  0.21638482301E+02  0.55244026680E+01  0.59627981965E+03  0.60183542527E+03  0.78469821302E+02 0.  0.
        -11    1    3    3    0    0  0.16197432418E+02 -0.13979559268E+02 -0.59595493315E+03  0.59633888624E+03  0.00000000000E+00 0.  1.
         12    1    3    3    0    0 -0.44713473733E+02 -0.44056467468E+02 -0.36428589297E+03  0.36965453991E+03  0.00000000000E+00 0. -1.
         11    1    5    5    0    0  0.26256664887E+02 -0.14433837295E+01  0.59173793959E+03  0.59232194368E+03  0.00000000000E+00 0. -1.
        -12    1    5    5    0    0 -0.46181825862E+01  0.69677863975E+01  0.45418800553E+01  0.95134815981E+01  0.00000000000E+00 0.  1.
          5    1    4    4  501    0 -0.42640364042E+02  0.54083477294E+02  0.92817915925E+02  0.11565405777E+03  0.41800000000E+01 0.  1.
         -5    1    4    4    0  501  0.49517923055E+02 -0.15718532262E+01  0.21721671015E+03  0.22283416927E+03  0.41800000000E+01 0.  1.
</event>
<event>
11    1  0.8039394E-009  0.1965203E+03  0.7561462E-02  0.1057012E+00
         22   -1    0    0    0    0  0.00000000000E+00  0.00000000000E+00  0.17368188497E+03  0.17368188497E+03  0.00000000000E+00 0. -1.
         22   -1    0    0    0    0 -0.00000000000E+00 -0.00000000000E+00 -0.10076475050E+04  0.10076475050E+04  0.00000000000E+00 0. -1.
        -24    2    1    2    0    0  0.80943277226E+02 -0.12713667095E+03 -0.81416436560E+03  0.83186550494E+03  0.80131497396E+02 0.  0.
         25    2    1    2    0    0 -0.11579263308E+03  0.11245581510E+03 -0.10247559912E+03  0.22848056505E+03  0.12509147040E+03 0.  0.
         24    2    1    2    0    0  0.34849355856E+02  0.14680855853E+02  0.82674344722E+02  0.12098331994E+03  0.79824252558E+02 0.  0.
        -13    1    5    5    0    0 -0.23507898346E+00 -0.23575801984E+02  0.25321938184E+00  0.23578333727E+02  0.00000000000E+00 0.  1.
         14    1    5    5    0    0  0.35084434839E+02  0.38256657837E+02  0.82421125341E+02  0.97404986214E+02  0.00000000000E+00 0. -1.
         11    1    3    3    0    0  0.69144159500E+02 -0.13756254548E+03 -0.76101069764E+03  0.77642878014E+03  0.00000000000E+00 0. -1.
        -12    1    3    3    0    0  0.11799117727E+02  0.10425874536E+02 -0.53153667961E+02  0.55436724801E+02  0.00000000000E+00 0.  1.
          5    1    4    4  501    0 -0.22051279952E+02  0.66855156392E+02 -0.10217831651E+03  0.12415213107E+03  0.41800000000E+01 0.  1.
         -5    1    4    4    0  501 -0.93741353131E+02  0.45600658703E+02 -0.29728260862E+00  0.10432843399E+03  0.41800000000E+01 0.  1.
</event>
<event>
11    1  0.8039394E-009  0.2168817E+03  0.7561462E-02  0.1043189E+00
         22   -1    0    0    0    0  0.00000000000E+00  0.00000000000E+00  0.58867979604E+03  0.58867979604E+03  0.00000000000E+00 0. -1.
         22   -1    0    0    0    0 -0.00000000000E+00 -0.00000000000E+00 -0.10194282203E+04  0.10194282203E+04  0.00000000000E+00 0.  1.
         24    2    1    2    0    0 -0.23550939980E+02 -0.26524506798E+01 -0.88727837429E+03  0.89118840273E+03  0.79951068912E+02 0.  0.
         25    2    1    2    0    0 -0.90647762522E+01  0.17702715245E+03 -0.37087513640E+01  0.21698386927E+03  0.12508981499E+03 0.  0.
        -24    2    1    2    0    0  0.32615716232E+02 -0.17437470177E+03  0.46023870142E+03  0.49993574431E+03  0.81521559052E+02 0.  0.
        -13    1    3    3    0    0 -0.23354446166E+02  0.31286301959E+02 -0.68256927315E+03  0.68368492414E+03  0.00000000000E+00 0.  1.
         14    1    3    3    0    0 -0.19649381465E+00 -0.33938752639E+02 -0.20470910113E+03  0.20750347859E+03  0.00000000000E+00 0. -1.
         13    1    5    5    0    0  0.21789488333E+02 -0.17625206181E+03  0.45353042033E+03  0.48706202198E+03  0.00000000000E+00 0. -1.
        -14    1    5    5    0    0  0.10826227900E+02  0.18773600473E+01  0.67082810920E+01  0.12873722325E+02  0.00000000000E+00 0.  1.
          5    1    4    4  501    0 -0.59002074744E+02  0.14184006436E+03 -0.16068583924E+02  0.15451705560E+03  0.41800000000E+01 0.  1.
         -5    1    4    4    0  501  0.49937298492E+02  0.35187088085E+02  0.12359832560E+02  0.62466813665E+02  0.41800000000E+01 0.  1.
</event>
<event>
11    1  0.8039394E-009  0.1640630E+03  0.7561462E-02  0.1083317E+00
         22   -1    0    0    0    0  0.00000000000E+00  0.00000000000E+00  0.12021771923E+04  0.12021771923E+04  0.00000000000E+00 0. -1.
         22   -1    0    0    0    0 -0.00000000000E+00 -0.00000000000E+00 -0.33999251959E+03  0.33999251959E+03  0.00000000000E+00 0.  1.
         24    2    1    2    0    0  0.98815415334E+02  0.38421863794E+02 -0.30492947727E+03  0.33277771877E+03  0.80735977588E+02 0.  0.
         25    2    1    2    0    0 -0.11366914102E+03 -0.10322986804E+02  0.36174689713E+03  0.39941873812E+03  0.12508906069E+03 0.  0.
        -24    2    1    2    0    0  0.14853725689E+02 -0.28098876989E+02  0.80536725288E+03  0.80997325502E+03  0.80187790742E+02 0.  0.
        -13    1    3    3    0    0  0.89778785792E+02  0.60101902880E+02 -0.22724852252E+03  0.25162344902E+03  0.00000000000E+00 0.  1.
         14    1    3    3    0    0  0.90366295423E+01 -0.21680039087E+02 -0.77680954746E+02  0.81154269749E+02  0.00000000000E+00 0. -1.
         13    1    5    5    0    0  0.13858382303E+02  0.25669036776E+02  0.39869474685E+03  0.39976049752E+03  0.00000000000E+00 0. -1.
        -14    1    5    5    0    0  0.99534338617E+00 -0.53767913765E+02  0.40667250603E+03  0.41021275750E+03  0.00000000000E+00 0.  1.
          5    1    4    4  501    0 -0.86589986131E+02 -0.37977888741E+02  0.34372947698E+03  0.35652148810E+03  0.41800000000E+01 0.  1.
         -5    1    4    4    0  501 -0.27079154892E+02  0.27654901937E+02  0.18017420147E+02  0.42897250023E+02  0.41800000000E+01 0.  1.
</event>
<event>
11    1  0.8039394E-009  0.1392164E+03  0.7561462E-02  0.1108437E+00
         22   -1    0    0    0    0  0.00000000000E+00  0.00000000000E+00  0.10887869761E+04  0.10887869761E+04  0.00000000000E+00 0. -1.
         22   -1    0    0    0    0 -0.00000000000E+00 -0.00000000000E+00 -0.14573296990E+03  0.14573296990E+03  0.00000000000E+00 0.  1.
        -24    2    1    2    0    0 -0.33341778355E+02 -0.69724883739E+01 -0.86475313112E+02  0.12577073371E+03  0.84734927284E+02 0.  0.
         25    2    1    2    0    0 -0.22329168552E+02  0.36214371436E+02  0.81316876732E+02  0.15514198211E+03  0.12508608118E+03 0.  0.
         24    2    1    2    0    0  0.55670946907E+02 -0.29241883062E+02  0.94821244257E+03  0.95360723017E+03  0.79407626378E+02 0.  0.
        -13    1    5    5    0    0  0.75279728489E+01  0.34456648233E+01  0.77316719900E+01  0.11327918302E+02  0.00000000000E+00 0.  1.
         14    1    5    5    0    0  0.48142974058E+02 -0.32687547885E+02  0.94048077058E+03  0.94227931186E+03  0.00000000000E+00 0. -1.
         11    1    3    3    0    0 -0.33990608194E+02 -0.33574522165E+02 -0.15912006291E+02  0.50356746601E+02  0.00000000000E+00 0. -1.
        -12    1    3    3    0    0  0.64882983885E+00  0.26602033791E+02 -0.70563306821E+02  0.75413987108E+02  0.00000000000E+00 0.  1.
          5    1    4    4  501    0 -0.18412526611E+02  0.82679917095E+02  0.58748275314E+02  0.10316890074E+03  0.41800000000E+01 0.  1.
         -5    1    4    4    0  501 -0.39166419410E+01 -0.46465545660E+02  0.22568601418E+02  0.51973081374E+02  0.41800000000E+01 0.  1.
</event>
<event>
11    1  0.8039394E-009  0.1458545E+03  0.7561462E-02  0.1101192E+00
         22   -1    0    0    0    0  0.00000000000E+00  0.00000000000E+00  0.99937879863E+02  0.99937879863E+02  0.00000000000E+00 0. -1.
         22   -1    0    0    0    0 -0.00000000000E+00 -0.00000000000E+00 -0.23135131795E+04  0.23135131795E+04  0.00000000000E+00 0. -1.
         24    2    1    2    0    0  0.21317741863E+02 -0.46199000394E+01 -0.19077527165E+04  0.19095640812E+04  0.80241906352E+02 0.  0.
         25    2    1    2    0    0 -0.92963349323E+02 -0.10420323537E+02 -0.35208478131E+03  0.38518050376E+03  0.12509820057E+03 0.  0.
        -24    2    1    2    0    0  0.71645607459E+02  0.15040223576E+02  0.46262198149E+02  0.11870647437E+03  0.81189498618E+02 0.  0.
        -13    1    3    3    0    0 -0.22550046239E+02  0.77456262755E+01 -0.23841283198E+03  0.23960212387E+03  0.00000000000E+00 0.  1.
         14    1    3    3    0    0  0.43867788102E+02 -0.12365526315E+02 -0.16693398845E+04  0.16699619574E+04  0.00000000000E+00 0. -1.
         11    1    5    5    0    0  0.26926800124E+02 -0.32518188254E+02  0.77886973228E+01  0.42931910489E+02  0.00000000000E+00 0. -1.
        -12    1    5    5    0    0  0.44718807336E+02  0.47558411830E+02  0.38473500826E+02  0.75774563880E+02  0.00000000000E+00 0.  1.
          5    1    4    4  501    0 -0.12317309240E+03 -0.17208225163E+02 -0.29335427738E+03  0.31865645790E+03  0.41800000000E+01 0. -1.
         -5    1    4    4    0  501  0.30209743078E+02  0.67879016264E+01 -0.58730503936E+02  0.66524045862E+02  0.41800000000E+01 0. -1.
</event>
<event>
11    1  0.8039394E-009  0.1563417E+03  0.7561462E-02  0.1090569E+00
         22   -1    0    0    0    0  0.00000000000E+00  0.00000000000E+00  0.73152664729E+03  0.73152664729E+03  0.00000000000E+00 0.  1.
         22   -1    0    0    0    0 -0.00000000000E+00 -0.00000000000E+00 -0.15720204360E+04  0.15720204360E+04  0.00000000000E+00 0. -1.
         24    2    1    2    0    0  0.93271125505E+02  0.92854947771E+01 -0.15083488289E+04  0.15133125617E+04  0.78822562021E+02 0.  0.
         25    2    1    2    0    0 -0.99050212942E+02  0.23686335970E+02  0.53413704000E+02  0.16991575646E+03  0.12508538412E+03 0.  0.
        -24    2    1    2    0    0  0.57790874372E+01 -0.32971830747E+02  0.61444133622E+03  0.62031876518E+03  0.78336934487E+02 0.  0.
        -11    1    3    3    0    0  0.25729292929E+02  0.22842560525E+02 -0.18502077962E+03  0.18819263529E+03  0.00000000000E+00 0.  1.
         12    1    3    3    0    0  0.67541832576E+02 -0.13557065748E+02 -0.13233280493E+04  0.13251199264E+04  0.00000000000E+00 0. -1.
         11    1    5    5    0    0 -0.34002436649E+02 -0.29678257011E+02  0.34366938776E+03  0.34662027165E+03  0.00000000000E+00 0. -1.
        -12    1    5    5    0    0  0.39781524086E+02 -0.32935737354E+01  0.27077194846E+03  0.27369849353E+03  0.00000000000E+00 0.  1.
          5    1    4    4  501    0  0.25819597898E+02  0.54220423080E+01  0.32268035978E+02  0.41889720986E+02  0.41800000000E+01 0.  1.
         -5    1    4    4    0  501 -0.12486981084E+03  0.18264293662E+02  0.21145668022E+02  0.12802603547E+03  0.41800000000E+01 0.  1.
</event>
<event>
11    1  0.8039394E-009  0.1498970E+03  0.7561462E-02  0.1096984E+00
         22   -1    0    0    0    0  0.00000000000E+00  0.00000000000E+00  0.34592725445E+03  0.34592725445E+03  0.00000000000E+00 0.  1.
         22   -1    0    0    0    0 -0.00000000000E+00 -0.00000000000E+00 -0.17422935709E+03  0.17422935709E+03  0.00000000000E+00 0. -1.
         24    2    1    2    0    0  0.22507408497E+02 -0.39509575387E+02 -0.25698047189E+02  0.98937282893E+02  0.84027414172E+02 0.  0.
         25    2    1    2    0    0 -0.10051283018E+03  0.16955045792E+02 -0.32505776959E+02  0.16457946316E+03  0.12505787281E+03 0.  0.
        -24    2    1    2    0    0  0.78005421679E+02  0.22554529595E+02  0.22990172150E+03  0.25663986549E+03  0.80097855102E+02 0.  0.
        -13    1    3    3    0    0  0.33202737519E+01  0.15833595780E+01  0.28233304467E+02  0.28471928745E+02  0.00000000000E+00 0.  1.
         14    1    3    3    0    0  0.19187134745E+02 -0.41092934965E+02 -0.53931351656E+02  0.70465354148E+02  0.00000000000E+00 0. -1.
         11    1    5    5    0    0 -0.12010848435E+02  0.20631788358E+02  0.53677546216E+02  0.58747001105E+02  0.00000000000E+00 0. -1.
        -12    1    5    5    0    0  0.90016270113E+02  0.19227412367E+01  0.17622417529E+03  0.19789286439E+03  0.00000000000E+00 0.  1.
          5    1    4    4  501    0 -0.31319135755E+01  0.52848523810E+02  0.67630023179E+01  0.53534904052E+02  0.41800000000E+01 0.  1.
         -5    1    4    4    0  501 -0.97380916600E+02 -0.35893478018E+02 -0.39268779277E+02  0.11104455911E+03  0.41800000000E+01 0.  1.
</event>
<event>
11    1  0.8039394E-009  0.1442850E+03  0.7561462E-02  0.1102866E+00
         22   -1    0    0    0    0  0.00000000000E+00  0.00000000000E+00  0.29935993518E+03  0.29935993518E+03  0.00000000000E+00 0. -1.
         22   -1    0    0    0    0 -0.00000000000E+00 -0.00000000000E+00 -0.36263237217E+03  0.36263237217E+03  0.00000000000E+00 0.  1.
        -24    2    1    2    0    0  0.57000740554E+02 -0.23238722050E+02 -0.17023925618E+03  0.19903585925E+03  0.82732981919E+02 0.  0.
         25    2    1    2    0    0 -0.82196143076E+02  0.58727529114E+02 -0.13135470174E+03  0.20762123055E+03  0.12508952431E+03 0.  0.
         24    2    1    2    0    0  0.25195402522E+02 -0.35488807064E+02  0.23832152093E+03  0.25533521755E+03  0.80651486328E+02 0.  0.
        -11    1    5    5    0    0 -0.13055609917E+02  0.19309938502E+02  0.83804393657E+02  0.86985625661E+02  0.00000000000E+00 0.  1.
         12    1    5    5    0    0  0.38251012439E+02 -0.54798745566E+02  0.15451712728E+03  0.16834959189E+03  0.00000000000E+00 0. -1.
         11    1    3    3    0    0  0.51932438065E+01  0.29326515139E+01  0.89081349294E+01  0.10720312218E+02  0.00000000000E+00 0. -1.
        -12    1    3    3    0    0  0.51807496747E+02 -0.26171373564E+02 -0.17914739111E+03  0.18831554703E+03  0.00000000000E+00 0.  1.
          5    1    4    4  501    0  0.29299110153E+02 -0.81496530740E+01 -0.24257440129E+02  0.39124806742E+02  0.41800000000E+01 0. -1.
         -5    1    4    4    0  501 -0.11149525323E+03  0.66877182188E+02 -0.10709726162E+03  0.16849642381E+03  0.41800000000E+01 0. -1.
</event>
<event>
11    1  0.8039394E-009  0.1560835E+03  0.7561462E-02  0.1090820E+00
         22   -1    0    0    0    0  0.00000000000E+00  0.00000000000E+00  0.87174019087E+02  0.87174019087E+02  0.00000000000E+00 0. -1.
         22   -1    0    0    0    0 -0.00000000000E+00 -0.00000000000E+00 -0.72365880676E+03  0.72365880676E+03  0.00000000000E+00 0. -1.
         24    2    1    2    0    0 -0.15279215997E+01 -0.41760852919E+02 -0.28302387149E+03  0.29618783506E+03  0.76670844691E+02 0.  0.
         25    2    1    2    0    0  0.59619571065E+02  0.10897579742E+03 -0.35417251360E+03  0.39562131251E+03  0.12509131001E+03 0.  0.
        -24    2    1    2    0    0 -0.58091649466E+02 -0.67214944497E+02  0.71159741780E+00  0.11902367828E+03  0.79206319941E+02 0.  0.
        -11    1    3    3    0    0 -0.15908393908E+01  0.22035220227E+02 -0.51575084447E+02  0.56107673594E+02  0.00000000000E+00 0.  1.
         12    1    3    3    0    0  0.62917791094E-01 -0.63796073146E+02 -0.23144878704E+03  0.24008016147E+03  0.00000000000E+00 0. -1.
         11    1    5    5    0    0 -0.54724373733E+02 -0.74084337573E+02 -0.22306775417E+02  0.94767285408E+02  0.00000000000E+00 0. -1.
        -12    1    5    5    0    0 -0.33672757329E+01  0.68693930765E+01  0.23018372835E+02  0.24256392870E+02  0.00000000000E+00 0.  1.
          5    1    4    4  501    0 -0.23909673590E+02  0.13064619394E+02 -0.16717266077E+03  0.16943000821E+03  0.41800000000E+01 0. -1.
         -5    1    4    4    0  501  0.83529244655E+02  0.95911178022E+02 -0.18699985283E+03  0.22619130430E+03  0.41800000000E+01 0. -1.
</event>
<event>
11    1  0.8039394E-009  0.1532747E+03  0.7561462E-02  0.1093579E+00
         22   -1    0    0    0    0  0.00000000000E+00  0.00000000000E+00  0.28649578988E+03  0.28649578988E+03  0.00000000000E+00 0. -1.
         22   -1    0    0    0    0 -0.00000000000E+00 -0.00000000000E+00 -0.13808951315E+04  0.13808951315E+04  0.00000000000E+00 0. -1.
         24    2    1    2    0    0 -0.51464472661E+01  0.41596250164E+02 -0.11294687676E+04  0.11333654460E+04  0.84028586351E+02 0.  0.
         25    2    1    2    0    0 -0.57281438330E+01  0.48701258052E+02 -0.21616920745E+03  0.25452160312E+03  0.12508995179E+03 0.  0.
        -24    2    1    2    0    0  0.10874591099E+02 -0.90297508216E+02  0.25123863337E+03  0.27950387228E+03  0.82034547583E+02 0.  0.
        -11    1    3    3    0    0 -0.18615021584E+02  0.15415315115E+02 -0.82117582471E+02  0.85600515884E+02  0.00000000000E+00 0.  1.
         12    1    3    3    0    0  0.13468574318E+02  0.26180935049E+02 -0.10473511851E+04  0.10477649301E+04  0.00000000000E+00 0. -1.
         11    1    5    5    0    0 -0.14332219514E+02 -0.87728189407E+02  0.22951905853E+03  0.24613135916E+03  0.00000000000E+00 0. -1.
        -12    1    5    5    0    0  0.25206810613E+02 -0.25693188090E+01  0.21719574840E+02  0.33372513116E+02  0.00000000000E+00 0.  1.
          5    1    4    4  501    0 -0.40848743178E+02  0.78185107319E+02 -0.14183079510E+03  0.16707775933E+03  0.41800000000E+01 0.  1.
         -5    1    4    4    0  501  0.35120599345E+02 -0.29483849266E+02 -0.74338412348E+02  0.87443843788E+02  0.41800000000E+01 0.  1.
</event>
<event>
11    1  0.8039394E-009  0.1335467E+03  0.7561462E-02  0.1114986E+00
         22   -1    0    0    0    0  0.00000000000E+00  0.00000000000E+00  0.45162020318E+03  0.45162020318E+03  0.00000000000E+00 0.  1.
         22   -1    0    0    0    0 -0.00000000000E+00 -0.00000000000E+00 -0.10168289518E+04  0.10168289518E+04  0.00000000000E+00 0. -1.
        -24    2    1    2    0    0  0.48750433346E+02 -0.12590067177E+02 -0.65364573323E+03  0.66040543562E+03  0.79671075634E+02 0.  0.
         25    2    1    2    0    0 -0.18923427197E+02  0.45337682066E+02 -0.34243699318E+03  0.36786858687E+03  0.12510236368E+03 0.  0.
         24    2    1    2    0    0 -0.29827006150E+02 -0.32747614888E+02  0.43087397783E+03  0.44017513244E+03  0.78356275248E+02 0.  0.
        -11    1    5    5    0    0  0.11005331568E+02 -0.11402205837E+02  0.31611791031E+03  0.31651486670E+03  0.00000000000E+00 0.  1.
         12    1    5    5    0    0 -0.40832337718E+02 -0.21345409052E+02  0.11475606751E+03  0.12366026574E+03  0.00000000000E+00 0. -1.
         13    1    3    3    0    0  0.55251582166E+02 -0.14608944140E+02 -0.65032485664E+03  0.65283120157E+03  0.00000000000E+00 0. -1.
        -14    1    3    3    0    0 -0.65011488194E+01  0.20188769622E+01 -0.33208765842E+01  0.75742340502E+01  0.00000000000E+00 0.  1.
          5    1    4    4  501    0  0.40343997584E+01  0.27101544668E+02 -0.33653004245E+03  0.33766953072E+03  0.41800000000E+01 0. -1.
         -5    1    4    4    0  501 -0.22957826955E+02  0.18236137398E+02 -0.59069507290E+01  0.30199056154E+02  0.41800000000E+01 0. -1.
</event>
<event>
11    1  0.8039394E-009  0.1336758E+03  0.7561462E-02  0.1114833E+00
         22   -1    0    0    0    0  0.00000000000E+00  0.00000000000E+00  0.21527981357E+04  0.21527981357E+04  0.00000000000E+00 0.  1.
         22   -1    0    0    0    0 -0.00000000000E+00 -0.00000000000E+00 -0.21100578362E+03  0.21100578362E+03  0.00000000000E+00 0.  1.
         24    2    1    2    0    0  0.20614326628E+02  0.14557103868E+02 -0.17647948398E+03  0.19554283531E+03  0.80343838832E+02 0.  0.
         25    2    1    2    0    0 -0.14821583850E+02  0.32948487106E+02  0.15355477614E+03  0.20133013058E+03  0.12509784192E+03 0.  0.
        -24    2    1    2    0    0 -0.57927427772E+01 -0.47505590974E+02  0.19647170599E+04  0.19669309534E+04  0.80086909174E+02 0.  0.
        -13    1    3    3    0    0 -0.13076246680E+01  0.45915709969E+02 -0.98304551338E+02  0.10850689894E+03  0.00000000000E+00 0.  1.
         14    1    3    3    0    0  0.21921951296E+02 -0.31358606101E+02 -0.78174932642E+02  0.87035936364E+02  0.00000000000E+00 0. -1.
         11    1    5    5    0    0 -0.21446563116E+01 -0.42421787072E+02  0.40870208942E+03  0.41090340163E+03  0.00000000000E+00 0. -1.
        -12    1    5    5    0    0 -0.36480864657E+01 -0.50838039025E+01  0.15560149705E+04  0.15560275518E+04  0.00000000000E+00 0.  1.
          5    1    4    4  501    0 -0.37243817980E+02 -0.38115698839E+02  0.82347111824E+02  0.98175494404E+02  0.41800000000E+01 0. -1.
         -5    1    4    4    0  501  0.22422234130E+02  0.71064185945E+02  0.71207664319E+02  0.10315463618E+03  0.41800000000E+01 0. -1.
</event>
<event>
11    1  0.8039394E-009  0.1835964E+03  0.7561462E-02  0.1066770E+00
         22   -1    0    0    0    0  0.00000000000E+00  0.00000000000E+00  0.12907739246E+04  0.12907739246E+04  0.00000000000E+00 0.  1.
         22   -1    0    0    0    0 -0.00000000000E+00 -0.00000000000E+00 -0.51640562965E+03  0.51640562965E+03  0.00000000000E+00 0.  1.
         24    2    1    2    0    0  0.74526595497E+02  0.11740883406E+03 -0.35270089667E+03  0.38748983428E+03  0.80071227116E+02 0.  0.
         25    2    1    2    0    0 -0.75441660190E+02 -0.94465992160E+02 -0.92638661643E+02  0.19709083372E+03  0.12509039666E+03 0.  0.
        -24    2    1    2    0    0  0.91506469320E+00 -0.22942841899E+02  0.12197078533E+04  0.12225988863E+04  0.80830551250E+02 0.  0.
        -11    1    3    3    0    0  0.88081697620E+02  0.10953174216E+03 -0.28218569485E+03  0.31525284198E+03  0.00000000000E+00 0.  1.
         12    1    3    3    0    0 -0.13555102123E+02  0.78770919015E+01 -0.70515201816E+02  0.72236992307E+02  0.00000000000E+00 0. -1.
         13    1    5    5    0    0 -0.25887533100E+02  0.12384216468E+02  0.21421185112E+03  0.21612554303E+03  0.00000000000E+00 0. -1.
        -14    1    5    5    0    0  0.26802597793E+02 -0.35327058367E+02  0.10054960022E+04  0.10064733432E+04  0.00000000000E+00 0.  1.
          5    1    4    4  501    0  0.85045518986E+01 -0.83947885546E+02 -0.69192486696E+02  0.10920003437E+03  0.41800000000E+01 0. -1.
         -5    1    4    4    0  501 -0.83946212088E+02 -0.10518106614E+02 -0.23446174948E+02  0.87890799350E+02  0.41800000000E+01 0. -1.
</event>
<event>
11    1  0.8039394E-009  0.1476952E+03  0.7561462E-02  0.1099257E+00
         22   -1    0    0    0    0  0.00000000000E+00  0.00000000000E+00  0.13460690072E+04  0.13460690072E+04  0.00000000000E+00 0.  1.
         22   -1    0    0    0    0 -0.00000000000E+00 -0.00000000000E+00 -0.17689933434E+03  0.17689933434E+03  0.00000000000E+00 0.  1.
        -24    2    1    2    0    0  0.39259805759E+02 -0.32249228633E+02 -0.62603389302E+02  0.11473469857E+03  0.81630396356E+02 0.  0.
         25    2    1    2    0    0 -0.86169553222E+02  0.93362174993E+02  0.72854346055E+01  0.17844282981E+03  0.12508828215E+03 0.  0.
         24    2    1    2    0    0  0.46909747463E+02 -0.61112946360E+02  0.12244876276E+04  0.12297908132E+04  0.84143790404E+02 0.  0.
        -13    1    5    5    0    0  0.56996545878E+02 -0.75756540137E+02  0.10934819070E+04  0.10975838649E+04  0.00000000000E+00 0.  1.
         14    1    5    5    0    0 -0.10086798415E+02  0.14643593777E+02  0.13100572055E+03  0.13220694822E+03  0.00000000000E+00 0. -1.
         13    1    3    3    0    0 -0.12920848834E+02 -0.84182806206E+01  0.12764748059E+02  0.20018855517E+02  0.00000000000E+00 0. -1.
        -14    1    3    3    0    0  0.52180654593E+02 -0.23830948013E+02 -0.75368137361E+02  0.94715843058E+02  0.00000000000E+00 0.  1.
          5    1    4    4  501    0  0.30049256360E+01 -0.14363612209E+02  0.32847369472E+02  0.36218296689E+02  0.41800000000E+01 0.  1.
         -5    1    4    4    0  501 -0.89174478858E+02  0.10772578720E+03 -0.25561934867E+02  0.14222453312E+03  0.41800000000E+01 0.  1.
</event>
<event>
11    1  0.8039394E-009  0.1824812E+03  0.7561462E-02  0.1067653E+00
         22   -1    0    0    0    0  0.00000000000E+00  0.00000000000E+00  0.17041530150E+04  0.17041530150E+04  0.00000000000E+00 0. -1.
         22   -1    0    0    0    0 -0.00000000000E+00 -0.00000000000E+00 -0.89509807271E+03  0.89509807271E+03  0.00000000000E+00 0.  1.
        -24    2    1    2    0    0  0.99078606372E+02  0.90903753031E+02 -0.79673946958E+03  0.81200021267E+03  0.80439420874E+02 0.  0.
         25    2    1    2    0    0 -0.43613245580E+02 -0.11978860389E+03  0.31694328577E+00  0.17859943966E+03  0.12508490949E+03 0.  0.
         24    2    1    2    0    0 -0.55465360792E+02  0.28884850863E+02  0.16054774686E+04  0.16086514354E+04  0.79314548498E+02 0.  0.
        -11    1    5    5    0    0 -0.13486972622E+02  0.10559786745E+02  0.57516688709E+02  0.60013140283E+02  0.00000000000E+00 0.  1.
         12    1    5    5    0    0 -0.41978388170E+02  0.18325064117E+02  0.15479607799E+04  0.15486382951E+04  0.00000000000E+00 0. -1.
         13    1    3    3    0    0  0.60954842531E+02  0.45640106217E+01 -0.36302479379E+03  0.36813492626E+03  0.00000000000E+00 0. -1.
        -14    1    3    3    0    0  0.38123763841E+02  0.86339742410E+02 -0.43371467578E+03  0.44386528641E+03  0.00000000000E+00 0.  1.
          5    1    4    4  501    0  0.76330785884E+01 -0.12053629983E+03  0.21923536938E+02  0.12282254409E+03  0.41800000000E+01 0. -1.
         -5    1    4    4    0  501 -0.51246324168E+02  0.74769593856E+00 -0.21606593652E+02  0.55776895568E+02  0.41800000000E+01 0. -1.
</event>
<event>
11    1  0.8039394E-009  0.1647476E+03  0.7561462E-02  0.1082695E+00
         22   -1    0    0    0    0  0.00000000000E+00  0.00000000000E+00  0.40792341009E+03  0.40792341009E+03  0.00000000000E+00 0. -1.
         22   -1    0    0    0    0 -0.00000000000E+00 -0.00000000000E+00 -0.10143796056E+04  0.10143796056E+04  0.00000000000E+00 0.  1.
         24    2    1    2    0    0 -0.10294083487E+03 -0.27964676701E+02 -0.89772716340E+03  0.90762578756E+03  0.80570911077E+02 0.  0.
         25    2    1    2    0    0  0.10801484142E+03  0.39532681921E+02 -0.38847924156E+02  0.17431634146E+03  0.12508791621E+03 0.  0.
        -24    2    1    2    0    0 -0.50740065504E+01 -0.11568005220E+02  0.33011889207E+03  0.34036088665E+03  0.81899242784E+02 0.  0.
        -11    1    3    3    0    0 -0.82076570504E+02 -0.11396931454E+02 -0.83965350117E+03  0.84373245493E+03  0.00000000000E+00 0.  1.
         12    1    3    3    0    0 -0.20864264363E+02 -0.16567745246E+02 -0.58073662226E+02  0.63893332628E+02  0.00000000000E+00 0. -1.
         13    1    5    5    0    0  0.18513992361E+02 -0.31469450719E+02  0.27306178320E+03  0.27549198116E+03  0.00000000000E+00 0. -1.
        -14    1    5    5    0    0 -0.23587998911E+02  0.19901445499E+02  0.57057108876E+02  0.64868905486E+02  0.00000000000E+00 0.  1.
          5    1    4    4  501    0  0.73333244650E+02 -0.86461977188E+01 -0.74472511751E+02  0.10495784350E+03  0.41800000000E+01 0.  1.
         -5    1    4    4    0  501  0.34681596767E+02  0.48178879639E+02  0.35624587595E+02  0.69358497957E+02  0.41800000000E+01 0.  1.
</event>
<event>
11    1  0.8039394E-009  0.1276175E+03  0.7561462E-02  0.1122231E+00
         22   -1    0    0    0    0  0.00000000000E+00  0.00000000000E+00  0.44081675701E+03  0.44081675701E+03  0.00000000000E+00 0. -1.
         22   -1    0    0    0    0 -0.00000000000E+00 -0.00000000000E+00 -0.39326358729E+03  0.39326358729E+03  0.00000000000E+00 0. -1.
         24    2    1    2    0    0  0.52327418917E+01 -0.24983424153E+02 -0.36203570507E+03  0.37195849602E+03  0.81435360551E+02 0.  0.
         25    2    1    2    0    0  0.87624758582E+01  0.15470687129E+02  0.20179617260E+03  0.23808837640E+03  0.12509299162E+03 0.  0.
        -24    2    1    2    0    0 -0.13995217750E+02  0.95127370242E+01  0.20779270218E+03  0.22403347189E+03  0.82017261351E+02 0.  0.
        -13    1    3    3    0    0 -0.11841991103E+02 -0.23782441374E+02 -0.32494122695E+02  0.41972673023E+02  0.00000000000E+00 0.  1.
         14    1    3    3    0    0  0.17074732995E+02 -0.12009827792E+01 -0.32954158237E+03  0.32998582300E+03  0.00000000000E+00 0. -1.
         13    1    5    5    0    0  0.10628405298E+01 -0.26962611790E+02  0.15903445863E+03  0.16130738079E+03  0.00000000000E+00 0. -1.
        -14    1    5    5    0    0 -0.15058058280E+02  0.36475348814E+02  0.48758243551E+02  0.62726091098E+02  0.00000000000E+00 0.  1.
          5    1    4    4  501    0  0.19470258741E+02 -0.36360196464E+02  0.15311065972E+02  0.44193393212E+02  0.41800000000E+01 0. -1.
         -5    1    4    4    0  501 -0.10707782883E+02  0.51830883593E+02  0.18648510663E+03  0.19389498318E+03  0.41800000000E+01 0. -1.
</event>
<event>
11    1  0.8039394E-009  0.1299881E+03  0.7561462E-02  0.1119284E+00
         22   -1    0    0    0    0  0.00000000000E+00  0.00000000000E+00  0.62470445155E+03  0.62470445155E+03  0.00000000000E+00 0. -1.
         22   -1    0    0    0    0 -0.00000000000E+00 -0.00000000000E+00 -0.11311353936E+04  0.11311353936E+04  0.00000000000E+00 0. -1.
         24    2    1    2    0    0  0.30357394097E+02 -0.17438231682E+02 -0.10862084541E+04  0.10897989313E+04  0.81161823645E+02 0.  0.
         25    2    1    2    0    0 -0.38088642752E+02  0.36767242839E+02  0.76347558485E+02  0.15583728869E+03  0.12511489123E+03 0.  0.
        -24    2    1    2    0    0  0.77312486552E+01 -0.19329011157E+02  0.50342995355E+03  0.51020362517E+03  0.80203728868E+02 0.  0.
        -11    1    3    3    0    0 -0.11990743896E+02  0.19616549713E+02 -0.13631793950E+03  0.13824314663E+03  0.00000000000E+00 0.  1.
         12    1    3    3    0    0  0.42348137993E+02 -0.37054781395E+02 -0.94989051458E+03  0.95155578465E+03  0.00000000000E+00 0. -1.
         13    1    5    5    0    0 -0.77338843963E+01  0.53911266405E+01  0.44306166868E+03  0.44316195625E+03  0.00000000000E+00 0. -1.
        -14    1    5    5    0    0  0.15465133051E+02 -0.24720137797E+02  0.60368284873E+02  0.67041668920E+02  0.00000000000E+00 0.  1.
          5    1    4    4  501    0 -0.34209777543E+02  0.47537427333E+02 -0.17447691615E+02  0.61253654746E+02  0.41800000000E+01 0.  1.
         -5    1    4    4    0  501 -0.38788652087E+01 -0.10770184494E+02  0.93795250100E+02  0.94583633947E+02  0.41800000000E+01 0.  1.
</event>
<event>
11    1  0.8039394E-009  0.1327168E+03  0.7561462E-02  0.1115975E+00
         22   -1    0    0    0    0  0.00000000000E+00  0.00000000000E+00  0.13182881097E+03  0.13182881097E+03  0.00000000000E+00 0.  1.
         22   -1    0    0    0    0 -0.00000000000E+00 -0.00000000000E+00 -0.77750471864E+03  0.77750471864E+03  0.00000000000E+00 0. -1.
        -24    2    1    2    0    0  0.30763626654E+02  0.19210340713E+02 -0.60177459622E+03  0.60816917274E+03  0.80135136517E+02 0.  0.
         25    2    1    2    0    0 -0.39254215637E+02  0.25810021123E+02 -0.12109702913E+03  0.18032751019E+03  0.12508584985E+03 0.  0.
         24    2    1    2    0    0  0.84905889831E+01 -0.45020361836E+02  0.77195717686E+02  0.12083684667E+03  0.80891542222E+02 0.  0.
        -13    1    5    5    0    0  0.40513109040E+02 -0.45422241766E+02  0.48259388822E+02  0.77675354268E+02  0.00000000000E+00 0.  1.
         14    1    5    5    0    0 -0.32022520057E+02  0.40187992972E+00  0.28936328864E+02  0.43161492403E+02  0.00000000000E+00 0. -1.
         11    1    3    3    0    0  0.57589310907E+02  0.91403845549E+01 -0.35820274901E+03  0.36291773829E+03  0.00000000000E+00 0. -1.
        -12    1    3    3    0    0 -0.26825684254E+02  0.10069956158E+02 -0.24357184721E+03  0.24525143446E+03  0.00000000000E+00 0.  1.
          5    1    4    4  501    0  0.24430128069E+02 -0.16522038907E+01  0.13925693560E+02  0.28477329163E+02  0.41800000000E+01 0. -1.
         -5    1    4    4    0  501 -0.63684343705E+02  0.27462225014E+02 -0.13502272269E+03  0.15185018103E+03  0.41800000000E+01 0. -1.
</event>
<event>
11    1  0.8039394E-009  0.2900863E+03  0.7561462E-02  0.1004476E+00
         22   -1    0    0    0    0  0.00000000000E+00  0.00000000000E+00  0.91172241166E+03  0.91172241166E+03  0.00000000000E+00 0. -1.
         22   -1    0    0    0    0 -0.00000000000E+00 -0.00000000000E+00 -0.63609448365E+03  0.63609448365E+03  0.00000000000E+00 0. -1.
         24    2    1    2    0    0 -0.15394116472E+03  0.46886540256E+02 -0.40667396069E+03  0.44461751503E+03  0.80029960098E+02 0.  0.
         25    2    1    2    0    0 -0.12605687650E+03 -0.46145746903E+02 -0.14005981453E+03  0.23081418866E+03  0.12505467593E+03 0.  0.
        -24    2    1    2    0    0  0.27999804122E+03 -0.74079335305E+00  0.82236170323E+03  0.87238519162E+03  0.79860501858E+02 0.  0.
        -11    1    3    3    0    0 -0.17805307580E+02  0.33105039428E+02 -0.49676044531E+02  0.62295120305E+02  0.00000000000E+00 0.  1.
         12    1    3    3    0    0 -0.13613585714E+03  0.13781500827E+02 -0.35699791616E+03  0.38232239472E+03  0.00000000000E+00 0. -1.
         11    1    5    5    0    0  0.23756042832E+03 -0.14355056199E+02  0.75493428834E+03  0.79155972892E+03  0.00000000000E+00 0. -1.
        -12    1    5    5    0    0  0.42437612899E+02  0.13614262846E+02  0.67427414894E+02  0.80825462700E+02  0.00000000000E+00 0.  1.
          5    1    4    4  501    0 -0.36301887434E+02  0.40342309437E+02 -0.20844834320E+02  0.58286434784E+02  0.41800000000E+01 0.  1.
         -5    1    4    4    0  501 -0.89754989064E+02 -0.86488056339E+02 -0.11921498021E+03  0.17252775388E+03  0.41800000000E+01 0.  1.
</event>
<event>
11    1  0.8039394E-009  0.1350779E+03  0.7561462E-02  0.1113183E+00
         22   -1    0    0    0    0  0.00000000000E+00  0.00000000000E+00  0.10419533644E+04  0.10419533644E+04  0.00000000000E+00 0.  1.
         22   -1    0    0    0    0 -0.00000000000E+00 -0.00000000000E+00 -0.17096722567E+04  0.17096722567E+04  0.00000000000E+00 0.  1.
         24    2    1    2    0    0  0.22305293618E+02  0.45591256244E+02 -0.16470843807E+04  0.16497765375E+04  0.79369880652E+02 0.  0.
         25    2    1    2    0    0  0.28600276738E+01 -0.74084817162E+02  0.30381723047E+02  0.14855154261E+03  0.12509105413E+03 0.  0.
        -24    2    1    2    0    0 -0.25165321291E+02  0.28493560918E+02  0.94898376535E+03  0.95329754095E+03  0.82224316820E+02 0.  0.
        -13    1    3    3    0    0  0.39795400079E+02  0.14854713146E+02 -0.13382512935E+04  0.13389252633E+04  0.00000000000E+00 0.  1.
         14    1    3    3    0    0 -0.17490106462E+02  0.30736543099E+02 -0.30883308723E+03  0.31085127420E+03  0.00000000000E+00 0. -1.
         13    1    5    5    0    0  0.25320634929E+02 -0.27679590531E+01  0.15335740992E+03  0.15545832666E+03  0.00000000000E+00 0. -1.
        -14    1    5    5    0    0 -0.50485956220E+02  0.31261519971E+02  0.79562635543E+03  0.79783921430E+03  0.00000000000E+00 0.  1.
          5    1    4    4  501    0  0.48618300706E+02  0.97949580434E+01  0.10381726728E+02  0.50842236541E+02  0.41800000000E+01 0.  1.
         -5    1    4    4    0  501 -0.45758273032E+02 -0.83879775206E+02  0.19999996319E+02  0.97709306068E+02  0.41800000000E+01 0.  1.
</event>
<event>
11    1  0.8039394E-009  0.3555567E+03  0.7561462E-02  0.9790834E-01
         22   -1    0    0    0    0  0.00000000000E+00  0.00000000000E+00  0.10271016119E+04  0.10271016119E+04  0.00000000000E+00 0. -1.
         22   -1    0    0    0    0 -0.00000000000E+00 -0.00000000000E+00 -0.24251097956E+03  0.24251097956E+03  0.00000000000E+00 0. -1.
        -24    2    1    2    0    0  0.70767708200E+02 -0.15792173767E+03 -0.10648565156E+02  0.19136745422E+03  0.80998560741E+02 0.  0.
         25    2    1    2    0    0 -0.24487481797E+03 -0.17011388791E+03  0.22720663889E+03  0.39518721309E+03  0.12509062834E+03 0.  0.
         24    2    1    2    0    0  0.17410710977E+03  0.32803562558E+03  0.56803255863E+03  0.68305792418E+03  0.77372364519E+02 0.  0.
        -13    1    5    5    0    0  0.62302214173E+02  0.51495061990E+02  0.13116290137E+03  0.15406821216E+03  0.00000000000E+00 0.  1.
         14    1    5    5    0    0  0.11180489560E+03  0.27654056359E+03  0.43686965726E+03  0.52898971202E+03  0.00000000000E+00 0. -1.
         13    1    3    3    0    0  0.78566782773E+02 -0.13063735066E+03  0.14918759656E+02  0.15317123141E+03  0.00000000000E+00 0. -1.
        -14    1    3    3    0    0 -0.77990745731E+01 -0.27284387011E+02 -0.25567324812E+02  0.38196222808E+02  0.00000000000E+00 0.  1.
          5    1    4    4  501    0 -0.98511353203E+02 -0.55092960851E+02  0.16744608847E+02  0.11418220251E+03  0.41800000000E+01 0. -1.
         -5    1    4    4    0  501 -0.14636346477E+03 -0.11502092705E+03  0.21046203004E+03  0.28100501058E+03  0.41800000000E+01 0. -1.
</event>
<event>
11    1  0.8039394E-009  0.1472616E+03  0.7561462E-02  0.1099710E+00
         22   -1    0    0    0    0  0.00000000000E+00  0.00000000000E+00  0.43836721798E+03  0.43836721798E+03  0.00000000000E+00 0. -1.
         22   -1    0    0    0    0 -0.00000000000E+00 -0.00000000000E+00 -0.13776043965E+03  0.13776043965E+03  0.00000000000E+00 0.  1.
         24    2    1    2    0    0 -0.11925500264E+02  0.21604325544E+02 -0.35121646858E+02  0.91666138611E+02  0.80994977937E+02 0.  0.
         25    2    1    2    0    0 -0.62459723839E+02  0.88845016039E+01  0.13017840078E+02  0.14070575772E+03  0.12509394320E+03 0.  0.
        -24    2    1    2    0    0  0.74385224103E+02 -0.30488827148E+02  0.32271058511E+03  0.34375576129E+03  0.86966496619E+02 0.  0.
        -11    1    3    3    0    0 -0.45821518845E+01 -0.34902048622E+01 -0.57172750828E+02  0.57462170887E+02  0.00000000000E+00 0.  1.
         12    1    3    3    0    0 -0.73433483798E+01  0.25094530406E+02  0.22051103970E+02  0.34203967724E+02  0.00000000000E+00 0. -1.
         11    1    5    5    0    0  0.41737826597E+02 -0.87896916118E+01  0.28877087814E+03  0.29190396522E+03  0.00000000000E+00 0. -1.
        -12    1    5    5    0    0  0.32647397506E+02 -0.21699135536E+02  0.33939706966E+02  0.51851796072E+02  0.00000000000E+00 0.  1.
          5    1    4    4  501    0  0.21404274692E+02 -0.21511383679E+02 -0.28848566783E+02  0.42078436382E+02  0.41800000000E+01 0. -1.
         -5    1    4    4    0  501 -0.83863998531E+02  0.30395885283E+02  0.41866406862E+02  0.98627321343E+02  0.41800000000E+01 0. -1.
</event>
<event>
11    1  0.8039394E-009  0.1329548E+03  0.7561462E-02  0.1115691E+00
         22   -1    0    0    0    0  0.00000000000E+00  0.00000000000E+00  0.12581285633E+03  0.12581285633E+03  0.00000000000E+00 0. -1.
         22   -1    0    0    0    0 -0.00000000000E+00 -0.00000000000E+00 -0.63957548147E+03  0.63957548147E+03  0.00000000000E+00 0. -1.
        -24    2    1    2    0    0  0.54832662525E+01  0.28143861946E+02 -0.47830847087E+03  0.48635861427E+03  0.83328057680E+02 0.  0.
         25    2    1    2    0    0  0.30953442626E+02 -0.51224220711E+02 -0.94721852801E+02  0.16792950341E+03  0.12508418093E+03 0.  0.
         24    2    1    2    0    0 -0.36436708878E+02  0.23080358765E+02  0.59267698524E+02  0.11110022013E+03  0.83488095612E+02 0.  0.
        -11    1    5    5    0    0 -0.31381123266E+02  0.56326994544E+01 -0.14574898107E+02  0.35056095838E+02  0.00000000000E+00 0.  1.
         12    1    5    5    0    0 -0.50555856121E+01  0.17447659311E+02  0.73842596631E+02  0.76044124287E+02  0.00000000000E+00 0. -1.
         11    1    3    3    0    0 -0.25409845426E+02  0.55296519674E+01 -0.37953359940E+03  0.38042343562E+03  0.00000000000E+00 0. -1.
        -12    1    3    3    0    0  0.30893111679E+02  0.22614209978E+02 -0.98774871471E+02  0.10593517865E+03  0.00000000000E+00 0.  1.
          5    1    4    4  501    0  0.70808419507E+01 -0.18354295353E+02  0.30322038917E+02  0.36385669222E+02  0.41800000000E+01 0. -1.
         -5    1    4    4    0  501  0.23872600675E+02 -0.32869925359E+02 -0.12504389172E+03  0.13154383419E+03  0.41800000000E+01 0. -1.
</event>
<event>
11    1  0.8039394E-009  0.1701023E+03  0.7561462E-02  0.1077943E+00
         22   -1    0    0    0    0  0.00000000000E+00  0.00000000000E+00  0.24361436434E+04  0.24361436434E+04  0.00000000000E+00 0.  1.
         22   -1    0    0    0    0 -0.00000000000E+00 -0.00000000000E+00 -0.12838611453E+03  0.12838611453E+03  0.00000000000E+00 0. -1.
         24    2    1    2    0    0  0.68126378294E+02  0.88818475804E+02 -0.64946686701E+02  0.15578366594E+03  0.86721124289E+02 0.  0.
         25    2    1    2    0    0 -0.16097019785E+03 -0.95365678368E+02  0.79697221974E+03  0.82814255297E+03  0.12509736925E+03 0.  0.
        -24    2    1    2    0    0  0.92843819554E+02  0.65472025639E+01  0.15757319958E+04  0.15806035390E+04  0.81935243735E+02 0.  0.
        -13    1    3    3    0    0 -0.11405031035E+02  0.10247196671E+02  0.12499257649E+02  0.19781587759E+02  0.00000000000E+00 0.  1.
         14    1    3    3    0    0  0.79531409328E+02  0.78571279133E+02 -0.77445944350E+02  0.13600207819E+03  0.00000000000E+00 0. -1.
         11    1    5    5    0    0  0.16069845756E+01  0.26811198020E+02  0.21603380833E+03  0.21769710398E+03  0.00000000000E+00 0. -1.
        -12    1    5    5    0    0  0.91236834979E+02 -0.20263995456E+02  0.13596981875E+04  0.13629064350E+04  0.00000000000E+00 0.  1.
          5    1    4    4  501    0 -0.16501634260E+03 -0.11384796972E+03  0.65947996763E+03  0.68929170432E+03  0.41800000000E+01 0.  1.
         -5    1    4    4    0  501  0.40461447562E+01  0.18482291350E+02  0.13749225211E+03  0.13885084865E+03  0.41800000000E+01 0.  1.
</event>
<event>
11    1  0.8039394E-009  0.1377949E+03  0.7561462E-02  0.1110046E+00
         22   -1    0    0    0    0  0.00000000000E+00  0.00000000000E+00  0.42865566568E+03  0.42865566568E+03  0.00000000000E+00 0.  1.
         22   -1    0    0    0    0 -0.00000000000E+00 -0.00000000000E+00 -0.76681958349E+03  0.76681958349E+03  0.00000000000E+00 0.  1.
        -24    2    1    2    0    0  0.56863518636E+02  0.15668342331E+02 -0.71546877514E+03  0.72233297160E+03  0.79939958509E+02 0.  0.
         25    2    1    2    0    0 -0.15447662999E+02 -0.28450945347E+02  0.59138492167E+02  0.14210564935E+03  0.12509423544E+03 0.  0.
         24    2    1    2    0    0 -0.41415855636E+02  0.12782603017E+02  0.31816636516E+03  0.33103662822E+03  0.80478228521E+02 0.  0.
        -13    1    5    5    0    0 -0.34303870614E+02 -0.74225787550E+01  0.30242372573E+03  0.30445354342E+03  0.00000000000E+00 0.  1.
         14    1    5    5    0    0 -0.71119850229E+01  0.20205181772E+02  0.15742639428E+02  0.26583084801E+02  0.00000000000E+00 0. -1.
         11    1    3    3    0    0 -0.14537123623E+02  0.16764867907E+02 -0.85603632186E+02  0.88432859292E+02  0.00000000000E+00 0. -1.
        -12    1    3    3    0    0  0.71400642259E+02 -0.10965255764E+01 -0.62986514295E+03  0.63390011231E+03  0.00000000000E+00 0.  1.
          5    1    4    4  501    0  0.42831916783E+02  0.20592842006E+02  0.37929402432E+01  0.47859137402E+02  0.41800000000E+01 0.  1.
         -5    1    4    4    0  501 -0.58279579782E+02 -0.49043787354E+02  0.55345551923E+02  0.94246511953E+02  0.41800000000E+01 0.  1.
</event>
<event>
11    1  0.8039394E-009  0.1632871E+03  0.7561462E-02  0.1084026E+00
         22   -1    0    0    0    0  0.00000000000E+00  0.00000000000E+00  0.38608284597E+03  0.38608284597E+03  0.00000000000E+00 0.  1.
         22   -1    0    0    0    0 -0.00000000000E+00 -0.00000000000E+00 -0.48282189341E+03  0.48282189341E+03  0.00000000000E+00 0.  1.
         24    2    1    2    0    0 -0.24204529908E+02 -0.34724815227E+02 -0.20439146434E+03  0.22247648758E+03  0.76995095770E+02 0.  0.
         25    2    1    2    0    0  0.71867467034E+02 -0.59824788841E+02 -0.23300063746E+03  0.28050025893E+03  0.12508860869E+03 0.  0.
        -24    2    1    2    0    0 -0.47662937126E+02  0.94549604068E+02  0.34065305435E+03  0.36592799287E+03  0.81531646121E+02 0.  0.
        -13    1    3    3    0    0 -0.43377058610E+02  0.64957770521E+00 -0.71541151450E+02  0.83666764701E+02  0.00000000000E+00 0.  1.
         14    1    3    3    0    0  0.19172528702E+02 -0.35374392932E+02 -0.13285031289E+03  0.13880972288E+03  0.00000000000E+00 0. -1.
         11    1    5    5    0    0 -0.12064134535E+01 -0.14180128108E+02  0.23773069959E+02  0.27707225084E+02  0.00000000000E+00 0. -1.
        -12    1    5    5    0    0 -0.46456523673E+02  0.10872973218E+03  0.31687998440E+03  0.33822076779E+03  0.00000000000E+00 0.  1.
          5    1    4    4  501    0 -0.31644105411E+02 -0.36513480307E+02 -0.55905459149E+02  0.74009975099E+02  0.41800000000E+01 0.  1.
         -5    1    4    4    0  501  0.10351157245E+03 -0.23311308534E+02 -0.17709517831E+03  0.20649028383E+03  0.41800000000E+01 0.  1.
</event>
<event>
11    1  0.8039394E-009  0.2961384E+03  0.7561462E-02  0.1001839E+00
         22   -1    0    0    0    0  0.00000000000E+00  0.00000000000E+00  0.10848096532E+04  0.10848096532E+04  0.00000000000E+00 0.  1.
         22   -1    0    0    0    0 -0.00000000000E+00 -0.00000000000E+00 -0.15798813350E+03  0.15798813350E+03  0.00000000000E+00 0.  1.
        -24    2    1    2    0    0  0.57577000351E+02 -0.18707939605E+03  0.31213477490E+03  0.37836515679E+03  0.86129337450E+02 0.  0.
         25    2    1    2    0    0 -0.28902801002E+03  0.15807531050E+03  0.28309613860E+03  0.45201072286E+03  0.12508107581E+03 0.  0.
         24    2    1    2    0    0  0.23145100967E+03  0.29004085559E+02  0.33159060624E+03  0.41242190709E+03  0.75688126214E+02 0.  0.
        -11    1    5    5    0    0  0.23687106008E+03  0.26972625635E+02  0.31637190303E+03  0.39613962521E+03  0.00000000000E+00 0.  1.
         12    1    5    5    0    0 -0.54200504121E+01  0.20314599240E+01  0.15218703208E+02  0.16282281880E+02  0.00000000000E+00 0. -1.
         13    1    3    3    0    0 -0.17605268196E+02 -0.94485262035E+01  0.19795602562E+02  0.28126251021E+02  0.00000000000E+00 0. -1.
        -14    1    3    3    0    0  0.75182268547E+02 -0.17763086985E+03  0.29233917234E+03  0.35023890577E+03  0.00000000000E+00 0.  1.
          5    1    4    4  501    0 -0.23180688128E+02 -0.12789913371E+02  0.58311562344E+02  0.64176607024E+02  0.41800000000E+01 0. -1.
         -5    1    4    4    0  501 -0.26584732189E+03  0.17086522387E+03  0.22478457625E+03  0.38783411584E+03  0.41800000000E+01 0. -1.
</event>
<event>
11    1  0.8039394E-009  0.2120554E+03  0.7561462E-02  0.1046312E+00
         22   -1    0    0    0    0  0.00000000000E+00  0.00000000000E+00  0.88102780438E+03  0.88102780438E+03  0.00000000000E+00 0.  1.
         22   -1    0    0    0    0 -0.00000000000E+00 -0.00000000000E+00 -0.24183315029E+03  0.24183315029E+03  0.00000000000E+00 0. -1.
         24    2    1    2    0    0 -0.34906147415E+02  0.16810235184E+03 -0.17418759420E+03  0.25728180690E+03  0.79848421191E+02 0.  0.
         25    2    1    2    0    0  0.28607681387E+01 -0.16748830411E+03  0.56482705266E+03  0.60227787305E+03  0.12509404838E+03 0.  0.
        -24    2    1    2    0    0  0.32045379277E+02 -0.61404773725E+00  0.24855519564E+03  0.26330127472E+03  0.80750186408E+02 0.  0.
        -13    1    3    3    0    0 -0.23224266232E+02  0.34044917104E+02 -0.56249796823E+01  0.41594029849E+02  0.00000000000E+00 0.  1.
         14    1    3    3    0    0 -0.11681881183E+02  0.13405743474E+03 -0.16856261452E+03  0.21568777705E+03  0.00000000000E+00 0. -1.
         13    1    5    5    0    0  0.26012613130E+01 -0.70059872576E+01  0.22482323448E+03  0.22494740981E+03  0.00000000000E+00 0. -1.
        -14    1    5    5    0    0  0.29444117964E+02  0.63919395204E+01  0.23731961158E+02  0.38353864915E+02  0.00000000000E+00 0.  1.
          5    1    4    4  501    0  0.47286562810E+02 -0.26097149539E+02  0.92153198127E+02  0.10689604558E+03  0.41800000000E+01 0.  1.
         -5    1    4    4    0  501 -0.44425794672E+02 -0.14139115457E+03  0.47267385453E+03  0.49538182746E+03  0.41800000000E+01 0.  1.
</event>
<event>
11    1  0.8039394E-009  0.1574559E+03  0.7561462E-02  0.1089495E+00
         22   -1    0    0    0    0  0.00000000000E+00  0.00000000000E+00  0.15537596272E+04  0.15537596272E+04  0.00000000000E+00 0. -1.
         22   -1    0    0    0    0 -0.00000000000E+00 -0.00000000000E+00 -0.31772638870E+03  0.31772638870E+03  0.00000000000E+00 0. -1.
         24    2    1    2    0    0  0.19516752023E+02 -0.12398942948E+02 -0.25139419482E+03  0.26420290115E+03  0.77906959852E+02 0.  0.
         25    2    1    2    0    0 -0.10499131909E+03  0.53052230144E+02  0.71121464006E+02  0.18585803482E+03  0.12508888942E+03 0.  0.
        -24    2    1    2    0    0  0.85474567068E+02 -0.40653287196E+02  0.14163059693E+04  0.14214250799E+04  0.74619486479E+02 0.  0.
        -11    1    3    3    0    0  0.22613657264E+02 -0.86272769804E+01 -0.16579436604E+02  0.29337435488E+02  0.00000000000E+00 0.  1.
         12    1    3    3    0    0 -0.30969052406E+01 -0.37716659681E+01 -0.23481475822E+03  0.23486546566E+03  0.00000000000E+00 0. -1.
         13    1    5    5    0    0  0.67860256320E+01 -0.29404133363E+02  0.71356897232E+03  0.71420678480E+03  0.00000000000E+00 0. -1.
        -14    1    5    5    0    0  0.78688541436E+02 -0.11249153833E+02  0.70273699696E+03  0.70721829509E+03  0.00000000000E+00 0.  1.
          5    1    4    4  501    0 -0.51103601811E+01 -0.36676144636E+02  0.12667089250E+02  0.39359661032E+02  0.41800000000E+01 0.  1.
         -5    1    4    4    0  501 -0.99880958910E+02  0.89728374780E+02  0.58454374756E+02  0.14649837378E+03  0.41800000000E+01 0.  1.
</event>
<event>
11    1  0.8039394E-009  0.1513900E+03  0.7561462E-02  0.1095467E+00
         22   -1    0    0    0    0  0.00000000000E+00  0.00000000000E+00  0.29838441604E+03  0.29838441604E+03  0.00000000000E+00 0. -1.
         22   -1    0    0    0    0 -0.00000000000E+00 -0.00000000000E+00 -0.21232158760E+04  0.21232158760E+04  0.00000000000E+00 0. -1.
         24    2    1    2    0    0 -0.23906728078E+02 -0.26909765390E+02 -0.20601731854E+04  0.20621716786E+04  0.83323532475E+02 0.  0.
         25    2    1    2    0    0  0.92473286588E+01  0.10125447015E+03  0.13745034009E+03  0.21184435671E+03  0.12508978641E+03 0.  0.
        -24    2    1    2    0    0  0.14659399420E+02 -0.74344704762E+02  0.97891385325E+02  0.14758425675E+03  0.80351455506E+02 0.  0.
        -13    1    3    3    0    0  0.10810323606E+02  0.33686713004E+01 -0.42795383334E+02  0.44268000604E+02  0.00000000000E+00 0.  1.
         14    1    3    3    0    0 -0.34717051684E+02 -0.30278436690E+02 -0.20173778021E+04  0.20179036780E+04  0.00000000000E+00 0. -1.
         11    1    5    5    0    0  0.32992253226E+02 -0.75614488065E+02  0.99364499509E+02  0.12914853209E+03  0.00000000000E+00 0. -1.
        -12    1    5    5    0    0 -0.18332853807E+02  0.12697833025E+01 -0.14731141837E+01  0.18435724660E+02  0.00000000000E+00 0.  1.
          5    1    4    4  501    0 -0.14009878713E+02  0.12607905644E+03  0.10877116944E+03  0.16715515210E+03  0.41800000000E+01 0. -1.
         -5    1    4    4    0  501  0.23257207372E+02 -0.24824586285E+02  0.28679170652E+02  0.44689204605E+02  0.41800000000E+01 0. -1.
</event>
<event>
11    1  0.8039394E-009  0.1545027E+03  0.7561462E-02  0.1092365E+00
         22   -1    0    0    0    0  0.00000000000E+00  0.00000000000E+00  0.97862725927E+03  0.97862725927E+03  0.00000000000E+00 0. -1.
         22   -1    0    0    0    0 -0.00000000000E+00 -0.00000000000E+00 -0.13803629995E+04  0.13803629995E+04  0.00000000000E+00 0. -1.
         24    2    1    2    0    0 -0.80437858242E+02 -0.41795847098E+02 -0.13606744412E+04  0.13660428948E+04  0.80131852044E+02 0.  0.
         25    2    1    2    0    0  0.77225989181E+02  0.60676824506E+02  0.45214913137E+03  0.47930389862E+03  0.12509140578E+03 0.  0.
        -24    2    1    2    0    0  0.32118690608E+01 -0.18880977407E+02  0.50678956954E+03  0.51364346537E+03  0.81407212888E+02 0.  0.
        -13    1    3    3    0    0 -0.29564261870E+01 -0.39677584468E+02 -0.31561742298E+03  0.31811540178E+03  0.00000000000E+00 0.  1.
         14    1    3    3    0    0 -0.77481432055E+02 -0.21182626304E+01 -0.10450570182E+04  0.10479274930E+04  0.00000000000E+00 0. -1.
         13    1    5    5    0    0  0.17775561151E+02 -0.20020550670E+02  0.49243713553E+03  0.49316440004E+03  0.00000000000E+00 0. -1.
        -14    1    5    5    0    0 -0.14563692090E+02  0.11395732633E+01  0.14352434012E+02  0.20479065325E+02  0.00000000000E+00 0.  1.
          5    1    4    4  501    0 -0.17720998183E+02  0.45051652800E+02  0.25847337959E+03  0.26300122729E+03  0.41800000000E+01 0. -1.
         -5    1    4    4    0  501  0.94946987364E+02  0.15625171706E+02  0.19367575178E+03  0.21630267134E+03  0.41800000000E+01 0. -1.
</event>
<event>
11    1  0.8039394E-009  0.1335037E+03  0.7561462E-02  0.1115037E+00
         22   -1    0    0    0    0  0.00000000000E+00  0.00000000000E+00  0.76453216905E+03  0.76453216905E+03  0.00000000000E+00 0. -1.
         22   -1    0    0    0    0 -0.00000000000E+00 -0.00000000000E+00 -0.25758655728E+03  0.25758655728E+03  0.00000000000E+00 0.  1.
        -24    2    1    2    0    0 -0.33259421174E+02 -0.74929655304E+01 -0.22302228023E+03  0.23820719786E+03  0.76429038996E+02 0.  0.
         25    2    1    2    0    0  0.19773683173E+02  0.52221812964E+02  0.18233770220E+03  0.22806452233E+03  0.12509305500E+03 0.  0.
         24    2    1    2    0    0  0.13485738001E+02 -0.44728847434E+02  0.54763018980E+03  0.55584700614E+03  0.82973095233E+02 0.  0.
        -11    1    5    5    0    0  0.21422341522E+02  0.10772177080E+02  0.54522119139E+02  0.59561883707E+02  0.00000000000E+00 0.  1.
         12    1    5    5    0    0 -0.79366035213E+01 -0.55501024514E+02  0.49310807067E+03  0.49628512244E+03  0.00000000000E+00 0. -1.
         11    1    3    3    0    0 -0.11813062504E+02  0.30033132287E+01  0.16230980404E+01  0.12296454095E+02  0.00000000000E+00 0. -1.
        -12    1    3    3    0    0 -0.21446358670E+02 -0.10496278759E+02 -0.22464537827E+03  0.22591074376E+03  0.00000000000E+00 0.  1.
          5    1    4    4  501    0 -0.79936407660E+01  0.26405044799E+02 -0.11740968694E+02  0.30272882740E+02  0.41800000000E+01 0. -1.
         -5    1    4    4    0  501  0.27767323940E+02  0.25816768165E+02  0.19407867089E+03  0.19779163959E+03  0.41800000000E+01 0. -1.
</event>
<event>
11    1  0.8039394E-009  0.1403788E+03  0.7561462E-02  0.1107136E+00
         22   -1    0    0    0    0  0.00000000000E+00  0.00000000000E+00  0.58281507455E+03  0.58281507455E+03  0.00000000000E+00 0. -1.
         22   -1    0    0    0    0 -0.00000000000E+00 -0.00000000000E+00 -0.27448939362E+04  0.27448939362E+04  0.00000000000E+00 0.  1.
        -24    2    1    2    0    0 -0.49408211778E+02  0.40840073568E+02 -0.25966412682E+04  0.25986931126E+04  0.80937844649E+02 0.  0.
         25    2    1    2    0    0  0.31207963041E+02 -0.42794012374E+02 -0.11195027022E+03  0.17602774296E+03  0.12509052257E+03 0.  0.
         24    2    1    2    0    0  0.18200248737E+02  0.19539388060E+01  0.54651267677E+03  0.55298815520E+03  0.82369454229E+02 0.  0.
        -13    1    5    5    0    0 -0.73138903311E+01  0.34322269995E+02  0.13763152147E+03  0.14203502002E+03  0.00000000000E+00 0.  1.
         14    1    5    5    0    0  0.25514139068E+02 -0.32368331189E+02  0.40888115530E+03  0.41095313518E+03  0.00000000000E+00 0. -1.
         11    1    3    3    0    0 -0.16511159062E+02 -0.20502473012E+02 -0.35646117579E+03  0.35743186710E+03  0.00000000000E+00 0. -1.
        -12    1    3    3    0    0 -0.32897052715E+02  0.61342546580E+02 -0.22401800924E+04  0.22412612455E+04  0.00000000000E+00 0.  1.
          5    1    4    4  501    0  0.59718333369E+02 -0.70842817954E+02 -0.93787776876E+02  0.13190376677E+03  0.41800000000E+01 0. -1.
         -5    1    4    4    0  501 -0.28510370328E+02  0.28048805580E+02 -0.18162493349E+02  0.44123976196E+02  0.41800000000E+01 0. -1.
</event>
<event>
11    1  0.8039394E-009  0.1484874E+03  0.7561462E-02  0.1098434E+00
         22   -1    0    0    0    0  0.00000000000E+00  0.00000000000E+00  0.92806471607E+03  0.92806471607E+03  0.00000000000E+00 0. -1.
         22   -1    0    0    0    0 -0.00000000000E+00 -0.00000000000E+00 -0.54350807989E+03  0.54350807989E+03  0.00000000000E+00 0.  1.
        -24    2    1    2    0    0 -0.26001119327E+02 -0.81986369693E+01 -0.17548202512E+03  0.19486247320E+03  0.80213256162E+02 0.  0.
         25    2    1    2    0    0 -0.51557627201E+02  0.28741998229E+02 -0.34127814463E+03  0.36824310159E+03  0.12509164033E+03 0.  0.
         24    2    1    2    0    0  0.77558746528E+02 -0.20543361260E+02  0.90131680593E+03  0.90846722119E+03  0.80643155051E+02 0.  0.
        -11    1    5    5    0    0  0.56400442620E+02 -0.27606558866E+02  0.28895935658E+03  0.29570363842E+03  0.00000000000E+00 0.  1.
         12    1    5    5    0    0  0.21158303908E+02  0.70631976066E+01  0.61235744935E+03  0.61276358276E+03  0.00000000000E+00 0. -1.
         13    1    3    3    0    0 -0.13115704694E+02  0.67595875224E+01  0.31957744460E+01  0.15097241715E+02  0.00000000000E+00 0. -1.
        -14    1    3    3    0    0 -0.12885414633E+02 -0.14958224492E+02 -0.17867779957E+03  0.17976523148E+03  0.00000000000E+00 0.  1.
          5    1    4    4  501    0 -0.22179557521E+02  0.84090975955E+01  0.97443161376E+00  0.24105344037E+02  0.41800000000E+01 0.  1.
         -5    1    4    4    0  501 -0.29378069680E+02  0.20332900633E+02 -0.34225257624E+03  0.34413775755E+03  0.41800000000E+01 0.  1.
</event>
<event>
11    1  0.8039394E-009  0.1346375E+03  0.7561462E-02  0.1113699E+00
         22   -1    0    0    0    0  0.00000000000E+00  0.00000000000E+00  0.29514353693E+02  0.29514353693E+02  0.00000000000E+00 0.  1.
         22   -1    0    0    0    0 -0.00000000000E+00 -0.00000000000E+00 -0.33571685004E+04  0.33571685004E+04  0.00000000000E+00 0.  1.
        -24    2    1    2    0    0  0.47193297840E+02 -0.15275497115E+02 -0.26097245277E+04  0.26114582573E+04  0.81188488374E+02 0.  0.
         25    2    1    2    0    0 -0.60080835397E+02 -0.24099040893E+02 -0.64064275524E+03  0.65594296485E+03  0.12509021842E+03 0.  0.
         24    2    1    2    0    0  0.12887537557E+02  0.39374538008E+02 -0.77286863710E+02  0.11928163194E+03  0.80860407799E+02 0.  0.
        -11    1    5    5    0    0  0.25166474723E+02  0.56486815732E+02 -0.32659694052E+02  0.69934021885E+02  0.00000000000E+00 0.  1.
         12    1    5    5    0    0 -0.12278937165E+02 -0.17112277723E+02 -0.44627169658E+02  0.49347610059E+02  0.00000000000E+00 0. -1.
         11    1    3    3    0    0  0.27699434672E+02  0.19329195312E+02 -0.41433245288E+03  0.41570693762E+03  0.00000000000E+00 0. -1.
        -12    1    3    3    0    0  0.19493863169E+02 -0.34604692427E+02 -0.21953920749E+04  0.21957513197E+04  0.00000000000E+00 0.  1.
          5    1    4    4  501    0 -0.96024714416E+02 -0.20480600219E+02 -0.54140095965E+03  0.55024782805E+03  0.41800000000E+01 0.  1.
         -5    1    4    4    0  501  0.35943879019E+02 -0.36184406738E+01 -0.99241795588E+02  0.10569513680E+03  0.41800000000E+01 0.  1.
</event>
<event>
11    1  0.8039394E-009  0.1257182E+03  0.7561462E-02  0.1124645E+00
         22   -1    0    0    0    0  0.00000000000E+00  0.00000000000E+00  0.77068547350E+02  0.77068547350E+02  0.00000000000E+00 0. -1.
         22   -1    0    0    0    0 -0.00000000000E+00 -0.00000000000E+00 -0.13421304707E+04  0.13421304707E+04  0.00000000000E+00 0.  1.
        -24    2    1    2    0    0  0.30133131208E+02 -0.20181758298E-01 -0.10440125365E+04  0.10477406962E+04  0.83008336734E+02 0.  0.
         25    2    1    2    0    0 -0.23565212728E+02  0.12078472092E+02 -0.24750847853E+03  0.27858768215E+03  0.12509772564E+03 0.  0.
         24    2    1    2    0    0 -0.65679184799E+01 -0.12058290334E+02  0.26459091680E+02  0.92870639769E+02  0.87956422617E+02 0.  0.
        -11    1    5    5    0    0 -0.84847755539E+01 -0.27379917683E+02 -0.25684863657E+02  0.38488485676E+02  0.00000000000E+00 0.  1.
         12    1    5    5    0    0  0.19168570740E+01  0.15321627350E+02  0.52143955337E+02  0.54382154093E+02  0.00000000000E+00 0. -1.
         11    1    3    3    0    0  0.16080800180E+02  0.41945398151E+01 -0.36322155236E+02  0.39943525880E+02  0.00000000000E+00 0. -1.
        -12    1    3    3    0    0  0.14052331027E+02 -0.42147215734E+01 -0.10076903813E+04  0.10077971703E+04  0.00000000000E+00 0.  1.
          5    1    4    4  501    0 -0.62736769036E+02  0.39183349956E+02 -0.18914455489E+03  0.20313633881E+03  0.41800000000E+01 0.  1.
         -5    1    4    4    0  501  0.39171556308E+02 -0.27104877864E+02 -0.58363923647E+02  0.75451343335E+02  0.41800000000E+01 0.  1.
</event>
<event>
11    1  0.8039394E-009  0.1471097E+03  0.7561462E-02  0.1099869E+00
         22   -1    0    0    0    0  0.00000000000E+00  0.00000000000E+00  0.20491245224E+03  0.20491245224E+03  0.00000000000E+00 0.  1.
         22   -1    0    0    0    0 -0.00000000000E+00 -0.00000000000E+00 -0.26112703067E+04  0.26112703067E+04  0.00000000000E+00 0.  1.
         24    2    1    2    0    0  0.50151502763E+02  0.53008172970E+02 -0.24570004220E+04  0.24593452228E+04  0.78757929914E+02 0.  0.
         25    2    1    2    0    0  0.77905922240E+01  0.11464462849E+02 -0.10403330120E+03  0.16328563259E+03  0.12508853990E+03 0.  0.
        -24    2    1    2    0    0 -0.57942094987E+02 -0.64472635819E+02  0.15467586881E+03  0.19355190350E+03  0.77612549343E+02 0.  0.
        -11    1    3    3    0    0  0.55875122580E+02  0.23305476059E+02 -0.21513412486E+04  0.21521929148E+04  0.00000000000E+00 0.  1.
         12    1    3    3    0    0 -0.57236198171E+01  0.29702696911E+02 -0.30565917342E+03  0.30715230802E+03  0.00000000000E+00 0. -1.
         13    1    5    5    0    0 -0.61094469750E+02 -0.38303535567E+02  0.55671609475E+02  0.91098974596E+02  0.00000000000E+00 0. -1.
        -14    1    5    5    0    0  0.31523747630E+01 -0.26169100253E+02  0.99004259332E+02  0.10245292890E+03  0.00000000000E+00 0.  1.
          5    1    4    4  501    0 -0.45641839220E+02 -0.13629003817E+01 -0.33628988559E+00  0.45854339770E+02  0.41800000000E+01 0.  1.
         -5    1    4    4    0  501  0.53432431444E+02  0.12827363231E+02 -0.10369701131E+03  0.11743129282E+03  0.41800000000E+01 0.  1.
</event>
<event>
11    1  0.8039394E-009  0.3476661E+03  0.7561462E-02  0.9818193E-01
         22   -1    0    0    0    0  0.00000000000E+00  0.00000000000E+00  0.95358875435E+03  0.95358875435E+03  0.00000000000E+00 0.  1.
         22   -1    0    0    0    0 -0.00000000000E+00 -0.00000000000E+00 -0.41673681242E+03  0.41673681242E+03  0.00000000000E+00 0. -1.
        -24    2    1    2    0    0  0.80849160414E+02 -0.53626096413E+02 -0.25630376446E+03  0.28641056854E+03  0.83228896066E+02 0.  0.
         25    2    1    2    0    0  0.26856365793E+03  0.38524256407E+02  0.12197167166E+03  0.32270040192E+03  0.12509158252E+03 0.  0.
         24    2    1    2    0    0 -0.34941281835E+03  0.15101840006E+02  0.67118403473E+03  0.76121459632E+03  0.81500122508E+02 0.  0.
        -13    1    5    5    0    0 -0.34394585030E+03  0.21629746999E+02  0.62013542920E+03  0.70946074200E+03  0.00000000000E+00 0.  1.
         14    1    5    5    0    0 -0.54669680432E+01 -0.65279069932E+01  0.51048605537E+02  0.51753854316E+02  0.00000000000E+00 0. -1.
         13    1    3    3    0    0  0.63245043812E+02 -0.75599198063E+02 -0.21381158801E+03  0.23543697561E+03  0.00000000000E+00 0. -1.
        -14    1    3    3    0    0  0.17604116602E+02  0.21973101651E+02 -0.42492176448E+02  0.50973592935E+02  0.00000000000E+00 0.  1.
          5    1    4    4  501    0  0.25545244603E+03  0.66186266390E+02  0.12427997961E+03  0.29171828838E+03  0.41800000000E+01 0. -1.
         -5    1    4    4    0  501  0.13111211902E+02 -0.27662009983E+02 -0.23083079560E+01  0.30982113541E+02  0.41800000000E+01 0. -1.
</event>
<event>
11    1  0.8039394E-009  0.1298536E+03  0.7561462E-02  0.1119449E+00
         22   -1    0    0    0    0  0.00000000000E+00  0.00000000000E+00  0.13514689575E+03  0.13514689575E+03  0.00000000000E+00 0.  1.
         22   -1    0    0    0    0 -0.00000000000E+00 -0.00000000000E+00 -0.11351992275E+04  0.11351992275E+04  0.00000000000E+00 0. -1.
        -24    2    1    2    0    0  0.50482965406E+01  0.39442192800E+02 -0.92559334867E+03  0.92995332873E+03  0.80678216741E+02 0.  0.
         25    2    1    2    0    0 -0.28474147636E+02 -0.10383431797E+02 -0.16632593017E+03  0.21030375206E+03  0.12507901641E+03 0.  0.
         24    2    1    2    0    0  0.23425851095E+02 -0.29058761004E+02  0.91866947041E+02  0.13008904249E+03  0.84204755959E+02 0.  0.
        -11    1    5    5    0    0  0.51130350796E+02 -0.55130512552E+01  0.72519768588E+02  0.88903449554E+02  0.00000000000E+00 0.  1.
         12    1    5    5    0    0 -0.27704499700E+02 -0.23545709748E+02  0.19347178454E+02  0.41185592934E+02  0.00000000000E+00 0. -1.
         13    1    3    3    0    0  0.69237207430E+01  0.45639810385E+02 -0.92065082995E+03  0.92180739902E+03  0.00000000000E+00 0. -1.
        -14    1    3    3    0    0 -0.18754242023E+01 -0.61976175844E+01 -0.49425187207E+01  0.81459297177E+01  0.00000000000E+00 0.  1.
          5    1    4    4  501    0 -0.32065441213E+02  0.47731771410E+02 -0.37249327109E+02  0.68640361976E+02  0.41800000000E+01 0.  1.
         -5    1    4    4    0  501  0.35912935769E+01 -0.58115203207E+02 -0.12907660306E+03  0.14166339009E+03  0.41800000000E+01 0.  1.
</event>
<event>
11    1  0.8039394E-009  0.1499270E+03  0.7561462E-02  0.1096953E+00
         22   -1    0    0    0    0  0.00000000000E+00  0.00000000000E+00  0.24913031623E+04  0.24913031623E+04  0.00000000000E+00 0.  1.
         22   -1    0    0    0    0 -0.00000000000E+00 -0.00000000000E+00 -0.81426161848E+02  0.81426161848E+02  0.00000000000E+00 0.  1.
         24    2    1    2    0    0  0.29078626891E+02 -0.77911464226E+02 -0.24046535165E+02  0.11823818069E+03  0.80537374670E+02 0.  0.
         25    2    1    2    0    0  0.85476607880E+01  0.83595970327E+02  0.61003710366E+03  0.62837393196E+03  0.12508869560E+03 0.  0.
        -24    2    1    2    0    0 -0.37626287679E+02 -0.56845061011E+01  0.18238864319E+04  0.18261172115E+04  0.81818716237E+02 0.  0.
        -11    1    3    3    0    0  0.26432776015E+02 -0.45173636404E+02 -0.52975660877E+02  0.74469924931E+02  0.00000000000E+00 0.  1.
         12    1    3    3    0    0  0.26458508763E+01 -0.32737827822E+02  0.28929125712E+02  0.43768255755E+02  0.00000000000E+00 0. -1.
         11    1    5    5    0    0  0.49166049496E+01 -0.30321525893E+01  0.87765243361E+01  0.10506870751E+02  0.00000000000E+00 0. -1.
        -12    1    5    5    0    0 -0.42542892629E+02 -0.26523535118E+01  0.18151099076E+04  0.18156103407E+04  0.00000000000E+00 0.  1.
          5    1    4    4  501    0 -0.25650129138E+01 -0.31086681838E+02  0.80555921304E+02  0.86485200676E+02  0.41800000000E+01 0. -1.
         -5    1    4    4    0  501  0.11112673702E+02  0.11468265216E+03  0.52948118235E+03  0.54188873128E+03  0.41800000000E+01 0. -1.
</event>
<event>
11    1  0.8039394E-009  0.2084469E+03  0.7561462E-02  0.1048706E+00
         22   -1    0    0    0    0  0.00000000000E+00  0.00000000000E+00  0.12053774934E+04  0.12053774934E+04  0.00000000000E+00 0. -1.
         22   -1    0    0    0    0 -0.00000000000E+00 -0.00000000000E+00 -0.13186487685E+04  0.13186487685E+04  0.00000000000E+00 0.  1.
         24    2    1    2    0    0  0.13476607285E+03  0.94039493352E+02 -0.12201437393E+04  0.12337965690E+04  0.80609605481E+02 0.  0.
         25    2    1    2    0    0 -0.19932030555E+03 -0.13239263206E+03  0.11672371967E+03  0.29415682499E+03  0.12508963876E+03 0.  0.
        -24    2    1    2    0    0  0.64554232701E+02  0.38353138705E+02  0.99014874450E+03  0.99607286791E+03  0.78284160299E+02 0.  0.
        -13    1    3    3    0    0  0.12468008267E+03  0.10146608968E+03 -0.96112099689E+03  0.97447116994E+03  0.00000000000E+00 0.  1.
         14    1    3    3    0    0  0.10085990180E+02 -0.74265963279E+01 -0.25902274237E+03  0.25932539906E+03  0.00000000000E+00 0. -1.
         11    1    5    5    0    0  0.28104010813E+02 -0.18712288238E+02  0.51725969737E+03  0.51836047272E+03  0.00000000000E+00 0. -1.
        -12    1    5    5    0    0  0.36450221888E+02  0.57065426943E+02  0.47288904713E+03  0.47771239519E+03  0.00000000000E+00 0.  1.
          5    1    4    4  501    0 -0.21146721896E+02 -0.62990455283E+02 -0.61008566659E+01  0.66855621722E+02  0.41800000000E+01 0. -1.
         -5    1    4    4    0  501 -0.17817358366E+03 -0.69402176774E+02  0.12282457634E+03  0.22730120327E+03  0.41800000000E+01 0. -1.
</event>
<event>
11    1  0.8039394E-009  0.1733515E+04  0.7561462E-02  0.8185959E-01
         22   -1    0    0    0    0  0.00000000000E+00  0.00000000000E+00  0.25074111580E+04  0.25074111580E+04  0.00000000000E+00 0. -1.
         22   -1    0    0    0    0 -0.00000000000E+00 -0.00000000000E+00 -0.25291654831E+04  0.25291654831E+04  0.00000000000E+00 0. -1.
        -24    2    1    2    0    0 -0.15158629540E+04 -0.83121372118E+03 -0.82218030541E+03  0.19160964484E+04  0.81782635114E+02 0.  0.
         25    2    1    2    0    0  0.14865413307E+04  0.88454944969E+03 -0.50878711546E+03  0.18074138383E+04  0.12509035491E+03 0.  0.
         24    2    1    2    0    0  0.29321623235E+02 -0.53335728508E+02  0.13092130958E+04  0.13130663544E+04  0.79999146029E+02 0.  0.
        -13    1    5    5    0    0  0.34419552121E+02  0.53891904920E+01  0.27874995980E+03  0.28091865198E+03  0.00000000000E+00 0.  1.
         14    1    5    5    0    0 -0.50979288865E+01 -0.58724919000E+02  0.10304631360E+04  0.10321477024E+04  0.00000000000E+00 0. -1.
         11    1    3    3    0    0 -0.13081919657E+04 -0.68436708546E+03 -0.70233840812E+03  0.16349323430E+04  0.00000000000E+00 0. -1.
        -12    1    3    3    0    0 -0.20767098832E+03 -0.14684663572E+03 -0.11984189729E+03  0.28116410539E+03  0.00000000000E+00 0.  1.
          5    1    4    4  501    0  0.48892121761E+03  0.34670280776E+03 -0.21261013671E+03  0.63597746545E+03  0.41800000000E+01 0.  1.
         -5    1    4    4    0  501  0.99762011314E+03  0.53784664193E+03 -0.29617697876E+03  0.11714363728E+04  0.41800000000E+01 0.  1.
</event>
<event>
11    1  0.1160611E-008  0.2256637E+03  0.7561462E-02  0.1037726E+00
         22   -1    0    0    0    0  0.00000000000E+00  0.00000000000E+00  0.51906969930E+03  0.51906969930E+03  0.00000000000E+00 0. -1.
         22   -1    0    0    0    0 -0.00000000000E+00 -0.00000000000E+00 -0.14886928147E+04  0.14886928147E+04  0.00000000000E+00 0. -1.
        -24    2    1    2    0    0 -0.65888552362E+02 -0.74881025300E+02 -0.10663297257E+04  0.10740574763E+04  0.81190574353E+02 0.  0.
         25    2    1    2    0    0  0.76741004628E+01  0.25062268057E+03 -0.34725777356E+03  0.44621979347E+03  0.12511403980E+03 0.  0.
         24    2    1    2    0    0  0.58214451899E+02 -0.17574165527E+03  0.44396438378E+03  0.48748524424E+03  0.79141881947E+02 0.  0.
        -13    1    5    5    0    0 -0.26072777453E+01 -0.42932207115E+02  0.43335254884E+02  0.61056667293E+02  0.00000000000E+00 0.  1.
         14    1    5    5    0    0  0.60821729644E+02 -0.13280944815E+03  0.40062912889E+03  0.42642857694E+03  0.00000000000E+00 0. -1.
         13    1    3    3    0    0 -0.38083507268E+02 -0.83296057670E+02 -0.93898174076E+03  0.94343801928E+03  0.00000000000E+00 0. -1.
        -14    1    3    3    0    0 -0.27805045093E+02  0.84150323699E+01 -0.12734798490E+03  0.13061945705E+03  0.00000000000E+00 0.  1.
          5    1    4    4  501    0  0.41797190875E+01  0.19451138027E+03 -0.33666056795E+03  0.38885724568E+03  0.41800000000E+01 0.  1.
         -5    1    4    4    0  501  0.34943813753E+01  0.56111300300E+02 -0.10597205611E+02  0.57362547793E+02  0.41800000000E+01 0.  1.
</event>
<event>
11    1  0.8039394E-009  0.1640897E+03  0.7561462E-02  0.1083293E+00
         22   -1    0    0    0    0  0.00000000000E+00  0.00000000000E+00  0.14015301394E+03  0.14015301394E+03  0.00000000000E+00 0. -1.
         22   -1    0    0    0    0 -0.00000000000E+00 -0.00000000000E+00 -0.10916268237E+04  0.10916268237E+04  0.00000000000E+00 0. -1.
        -24    2    1    2    0    0 -0.30359337845E+02  0.85349434426E+02 -0.59980369077E+03  0.61201680852E+03  0.81202777650E+02 0.  0.
         25    2    1    2    0    0  0.71925721468E+02 -0.15202011798E+03 -0.43327851726E+03  0.48131123797E+03  0.12508720400E+03 0.  0.
         24    2    1    2    0    0 -0.41566383623E+02  0.66670683551E+02  0.81608398227E+02  0.13845179120E+03  0.79600399065E+02 0.  0.
        -13    1    5    5    0    0  0.28940823364E+01  0.19707461248E+02 -0.13048561895E+02  0.23812280633E+02  0.00000000000E+00 0.  1.
         14    1    5    5    0    0 -0.44460465959E+02  0.46963222303E+02  0.94656960122E+02  0.11463951056E+03  0.00000000000E+00 0. -1.
         13    1    3    3    0    0  0.29260453046E+01  0.69990900338E+02 -0.51341770894E+03  0.51817471158E+03  0.00000000000E+00 0. -1.
        -14    1    3    3    0    0 -0.33285383149E+02  0.15358534088E+02 -0.86385981834E+02  0.93842096940E+02  0.00000000000E+00 0.  1.
          5    1    4    4  501    0  0.44141542556E+02 -0.13276916328E+02 -0.22347150783E+03  0.22821424035E+03  0.41800000000E+01 0. -1.
         -5    1    4    4    0  501  0.27784178912E+02 -0.13874320165E+03 -0.20980700943E+03  0.25309699763E+03  0.41800000000E+01 0. -1.
</event>
<event>
11    1  0.8039394E-009  0.1479998E+03  0.7561462E-02  0.1098940E+00
         22   -1    0    0    0    0  0.00000000000E+00  0.00000000000E+00  0.65526043174E+02  0.65526043174E+02  0.00000000000E+00 0. -1.
         22   -1    0    0    0    0 -0.00000000000E+00 -0.00000000000E+00 -0.19786525354E+04  0.19786525354E+04  0.00000000000E+00 0.  1.
        -24    2    1    2    0    0 -0.24497963963E+02 -0.10470676635E+02 -0.15815238647E+04  0.15837474848E+04  0.79552346348E+02 0.  0.
         25    2    1    2    0    0 -0.32834336889E+01 -0.66795874040E+02 -0.31347163204E+03  0.34407032201E+03  0.12508977844E+03 0.  0.
         24    2    1    2    0    0  0.27781397651E+02  0.77266550676E+02 -0.18130995543E+02  0.11636077178E+03  0.80431152553E+02 0.  0.
        -11    1    5    5    0    0  0.11446757538E+01 -0.57774565652E+01  0.20241379507E+02  0.21080861730E+02  0.00000000000E+00 0.  1.
         12    1    5    5    0    0  0.26636721898E+02  0.83044007241E+02 -0.38372375050E+02  0.95279910050E+02  0.00000000000E+00 0. -1.
         13    1    3    3    0    0  0.26741420814E+02  0.44081652692E+01 -0.34038281137E+03  0.34146009106E+03  0.00000000000E+00 0. -1.
        -14    1    3    3    0    0 -0.51239384777E+02 -0.14878841905E+02 -0.12411410533E+04  0.12422873938E+04  0.00000000000E+00 0.  1.
          5    1    4    4  501    0  0.49930622927E+02 -0.67267090117E+02 -0.14696207273E+03  0.16921362753E+03  0.41800000000E+01 0.  1.
         -5    1    4    4    0  501 -0.53214056616E+02  0.47121607706E+00 -0.16650955930E+03  0.17485669448E+03  0.41800000000E+01 0.  1.
</event>
<event>
11    1  0.8039394E-009  0.1327283E+03  0.7561462E-02  0.1115961E+00
         22   -1    0    0    0    0  0.00000000000E+00  0.00000000000E+00  0.33907761283E+03  0.33907761283E+03  0.00000000000E+00 0.  1.
         22   -1    0    0    0    0 -0.00000000000E+00 -0.00000000000E+00 -0.54428244123E+03  0.54428244123E+03  0.00000000000E+00 0. -1.
        -24    2    1    2    0    0  0.32542670420E+02 -0.31911704029E+02 -0.35994128755E+03  0.37157422041E+03  0.80201549494E+02 0.  0.
         25    2    1    2    0    0 -0.36816071698E+02  0.74680629177E+02 -0.13845961738E+03  0.20432716778E+03  0.12508359739E+03 0.  0.
         24    2    1    2    0    0  0.42734012780E+01 -0.42768925148E+02  0.29319607653E+03  0.30745866587E+03  0.81972245346E+02 0.  0.
        -13    1    5    5    0    0  0.18784715230E+02 -0.16712561753E+02  0.26571994455E+03  0.26690684551E+03  0.00000000000E+00 0.  1.
         14    1    5    5    0    0 -0.14511313952E+02 -0.26056363395E+02  0.27476131982E+02  0.40551820362E+02  0.00000000000E+00 0. -1.
         13    1    3    3    0    0 -0.24101111229E+02 -0.10113664215E+02 -0.17467563502E+03  0.17662029112E+03  0.00000000000E+00 0. -1.
        -14    1    3    3    0    0  0.56643781649E+02 -0.21798039815E+02 -0.18526565253E+03  0.19495392929E+03  0.00000000000E+00 0.  1.
          5    1    4    4  501    0 -0.11213065734E+01  0.80504118870E+02 -0.23850507122E+02  0.84074309830E+02  0.41800000000E+01 0.  1.
         -5    1    4    4    0  501 -0.35694765125E+02 -0.58234896926E+01 -0.11460911026E+03  0.12025285795E+03  0.41800000000E+01 0.  1.
</event>
<event>
11    1  0.1244220E-008  0.1463036E+03  0.7561462E-02  0.1100717E+00
         22   -1    0    0    0    0  0.00000000000E+00  0.00000000000E+00  0.10662612831E+04  0.10662612831E+04  0.00000000000E+00 0. -1.
         22   -1    0    0    0    0 -0.00000000000E+00 -0.00000000000E+00 -0.15076815249E+04  0.15076815249E+04  0.00000000000E+00 0.  1.
        -24    2    1    2    0    0  0.72324609646E+02  0.39347761301E+02 -0.10954994167E+04  0.11015335392E+04  0.80486461186E+02 0.  0.
         25    2    1    2    0    0 -0.25059978293E+02 -0.55617296523E+02 -0.39511086741E+03  0.41890489725E+03  0.12508968465E+03 0.  0.
         24    2    1    2    0    0 -0.47264631354E+02  0.16269535222E+02  0.10491900423E+04  0.10535043715E+04  0.81074488355E+02 0.  0.
        -13    1    5    5    0    0 -0.63197888708E+02  0.16051452024E+02  0.51968320963E+03  0.52375782631E+03  0.00000000000E+00 0.  1.
         14    1    5    5    0    0  0.15933257354E+02  0.21808319732E+00  0.52950683270E+03  0.52974654517E+03  0.00000000000E+00 0. -1.
         13    1    3    3    0    0  0.25293155282E+02  0.15949561320E+02 -0.93651316867E+02  0.98309213003E+02  0.00000000000E+00 0. -1.
        -14    1    3    3    0    0  0.47031454364E+02  0.23398199981E+02 -0.10018480999E+04  0.10032243262E+04  0.00000000000E+00 0.  1.
          5    1    4    4  501    0  0.10800302874E+02 -0.29583110932E+02 -0.13189095495E+02  0.34398134173E+02  0.41800000000E+01 0.  1.
         -5    1    4    4    0  501 -0.35860281167E+02 -0.26034185590E+02 -0.38192177192E+03  0.38450676307E+03  0.41800000000E+01 0.  1.
</event>
<event>
11    1  0.8039394E-009  0.1419199E+03  0.7561462E-02  0.1105433E+00
         22   -1    0    0    0    0  0.00000000000E+00  0.00000000000E+00  0.16300571151E+04  0.16300571151E+04  0.00000000000E+00 0. -1.
         22   -1    0    0    0    0 -0.00000000000E+00 -0.00000000000E+00 -0.55810737734E+03  0.55810737734E+03  0.00000000000E+00 0. -1.
         24    2    1    2    0    0  0.37424552379E+02 -0.22829766604E+02 -0.52903587091E+03  0.53690199900E+03  0.80392838332E+02 0.  0.
         25    2    1    2    0    0  0.90013486521E+01  0.72053099724E+02  0.20268178401E+03  0.24899860200E+03  0.12509086604E+03 0.  0.
        -24    2    1    2    0    0 -0.46425901031E+02 -0.49223333120E+02  0.13983038247E+04  0.14022638915E+04  0.80697796541E+02 0.  0.
        -13    1    3    3    0    0  0.29536424485E+02  0.27181903598E+02 -0.26961591967E+03  0.27258760132E+03  0.00000000000E+00 0.  1.
         14    1    3    3    0    0  0.78881278935E+01 -0.50011670202E+02 -0.25941995125E+03  0.26431439768E+03  0.00000000000E+00 0. -1.
         11    1    5    5    0    0  0.14847487181E+02 -0.38641985542E+02  0.68767685440E+03  0.68892169874E+03  0.00000000000E+00 0. -1.
        -12    1    5    5    0    0 -0.61273388212E+02 -0.10581347578E+02  0.71062697028E+03  0.71334219271E+03  0.00000000000E+00 0.  1.
          5    1    4    4  501    0  0.63077441978E+02  0.57302588733E+02  0.96150021229E+02  0.12854823742E+03  0.41800000000E+01 0. -1.
         -5    1    4    4    0  501 -0.54076093326E+02  0.14750510991E+02  0.10653176279E+03  0.12045036457E+03  0.41800000000E+01 0. -1.
</event>
<event>
11    1  0.8039394E-009  0.1274059E+03  0.7561462E-02  0.1122498E+00
         22   -1    0    0    0    0  0.00000000000E+00  0.00000000000E+00  0.92492963983E+03  0.92492963983E+03  0.00000000000E+00 0. -1.
         22   -1    0    0    0    0 -0.00000000000E+00 -0.00000000000E+00 -0.87170769218E+02  0.87170769218E+02  0.00000000000E+00 0.  1.
         24    2    1    2    0    0 -0.11128280913E+02 -0.16462427229E+02 -0.13761765135E+02  0.83968149582E+02  0.80414015061E+02 0.  0.
         25    2    1    2    0    0  0.25293036759E+02  0.34585637739E+02  0.85286028263E+02  0.15734419791E+03  0.12509031118E+03 0.  0.
        -24    2    1    2    0    0 -0.14164755846E+02 -0.18123210511E+02  0.76623460748E+03  0.77078806156E+03  0.80434265515E+02 0.  0.
        -13    1    3    3    0    0 -0.27487372229E+02 -0.58987692270E+01 -0.41470229447E+02  0.50101207978E+02  0.00000000000E+00 0.  1.
         14    1    3    3    0    0  0.16359091316E+02 -0.10563658002E+02  0.27708464312E+02  0.33866941604E+02  0.00000000000E+00 0. -1.
         11    1    5    5    0    0 -0.46026308907E+02 -0.51541742567E-01  0.48473957439E+03  0.48691978677E+03  0.00000000000E+00 0. -1.
        -12    1    5    5    0    0  0.31861553060E+02 -0.18071668768E+02  0.28149503309E+03  0.28386827479E+03  0.00000000000E+00 0.  1.
          5    1    4    4  501    0  0.10784146716E+02  0.40262707259E+02  0.11562706664E+03  0.12298160170E+03  0.41800000000E+01 0. -1.
         -5    1    4    4    0  501  0.14508890044E+02 -0.56770695193E+01 -0.30341038376E+02  0.34362596211E+02  0.41800000000E+01 0. -1.
</event>
<event>
11    1  0.8039394E-009  0.2167486E+03  0.7561462E-02  0.1043274E+00
         22   -1    0    0    0    0  0.00000000000E+00  0.00000000000E+00  0.66208070907E+03  0.66208070907E+03  0.00000000000E+00 0.  1.
         22   -1    0    0    0    0 -0.00000000000E+00 -0.00000000000E+00 -0.64786306263E+03  0.64786306263E+03  0.00000000000E+00 0. -1.
        -24    2    1    2    0    0 -0.50451141116E+02  0.15541636729E+03 -0.33812990495E+03  0.38386360405E+03  0.79497603941E+02 0.  0.
         25    2    1    2    0    0  0.89903697169E+02 -0.18915602713E+03 -0.23042353084E+03  0.33556648386E+03  0.12508870517E+03 0.  0.
         24    2    1    2    0    0 -0.39452556053E+02  0.33739659836E+02  0.58277108223E+03  0.59051368379E+03  0.79933770338E+02 0.  0.
        -11    1    5    5    0    0 -0.39332987022E+02  0.47462393884E+02  0.56346713550E+03  0.56682887673E+03  0.00000000000E+00 0.  1.
         12    1    5    5    0    0 -0.11956903174E+00 -0.13722734048E+02  0.19303946725E+02  0.23684807064E+02  0.00000000000E+00 0. -1.
         11    1    3    3    0    0 -0.89412376901E+01  0.91349284767E+02 -0.25492084071E+03  0.27094145601E+03  0.00000000000E+00 0. -1.
        -12    1    3    3    0    0 -0.41509903426E+02  0.64067082526E+02 -0.83209064237E+02  0.11292214804E+03  0.00000000000E+00 0.  1.
          5    1    4    4  501    0  0.57882737066E+02 -0.14922097905E+03 -0.23461222414E+03  0.28403816637E+03  0.41800000000E+01 0.  1.
         -5    1    4    4    0  501  0.32020960103E+02 -0.39935048082E+02  0.41886933072E+01  0.51528317486E+02  0.41800000000E+01 0.  1.
</event>
<event>
11    1  0.8039394E-009  0.1373889E+03  0.7561462E-02  0.1110510E+00
         22   -1    0    0    0    0  0.00000000000E+00  0.00000000000E+00  0.21531546057E+04  0.21531546057E+04  0.00000000000E+00 0.  1.
         22   -1    0    0    0    0 -0.00000000000E+00 -0.00000000000E+00 -0.51413625801E+02  0.51413625801E+02  0.00000000000E+00 0.  1.
        -24    2    1    2    0    0  0.45338208737E+02  0.19688060088E+02  0.29530756198E+02  0.98519179216E+02  0.79942418216E+02 0.  0.
         25    2    1    2    0    0 -0.70221517638E+02  0.30966296814E+02  0.33409362035E+03  0.36490577997E+03  0.12509079910E+03 0.  0.
         24    2    1    2    0    0  0.24883308901E+02 -0.50654356902E+02  0.17381166034E+04  0.17411432723E+04  0.85706037954E+02 0.  0.
        -13    1    5    5    0    0  0.33631269739E+02 -0.31550235983E+02  0.16465981791E+04  0.16472437716E+04  0.00000000000E+00 0.  1.
         14    1    5    5    0    0 -0.87479608372E+01 -0.19104120919E+02  0.91518424278E+02  0.93899500729E+02  0.00000000000E+00 0. -1.
         11    1    3    3    0    0 -0.22873581394E+02  0.95477880673E+01  0.10958130982E+02  0.27100583340E+02  0.00000000000E+00 0. -1.
        -12    1    3    3    0    0  0.68211790131E+02  0.10140272021E+02  0.18572625216E+02  0.71418595876E+02  0.00000000000E+00 0.  1.
          5    1    4    4  501    0 -0.30477860256E+02  0.75734651466E+02  0.14423087427E+03  0.16578496582E+03  0.41800000000E+01 0. -1.
         -5    1    4    4    0  501 -0.39743657382E+02 -0.44768354652E+02  0.18986274608E+03  0.19912081415E+03  0.41800000000E+01 0. -1.
</event>
<event>
11    1  0.8039394E-009  0.1368994E+03  0.7561462E-02  0.1111071E+00
         22   -1    0    0    0    0  0.00000000000E+00  0.00000000000E+00  0.45330347806E+03  0.45330347806E+03  0.00000000000E+00 0. -1.
         22   -1    0    0    0    0 -0.00000000000E+00 -0.00000000000E+00 -0.20224000240E+03  0.20224000240E+03  0.00000000000E+00 0. -1.
        -24    2    1    2    0    0  0.14049356057E+02  0.30816138457E+01 -0.10422668544E+03  0.13250705674E+03  0.80548354287E+02 0.  0.
         25    2    1    2    0    0 -0.90551421930E+01 -0.58323426731E+02 -0.15686135177E+02  0.13920472195E+03  0.12509309361E+03 0.  0.
         24    2    1    2    0    0 -0.49942138639E+01  0.55241812885E+02  0.37097629627E+03  0.38383170178E+03  0.81404931244E+02 0.  0.
        -11    1    5    5    0    0  0.96176558620E+01  0.62086822884E+02  0.15493819134E+03  0.16719185391E+03  0.00000000000E+00 0.  1.
         12    1    5    5    0    0 -0.14611869726E+02 -0.68450099992E+01  0.21603810493E+03  0.21663984786E+03  0.00000000000E+00 0. -1.
         13    1    3    3    0    0  0.31867058470E+02  0.16638187380E+01 -0.10935189069E+03  0.11391274602E+03  0.00000000000E+00 0. -1.
        -14    1    3    3    0    0 -0.17817702413E+02  0.14177951077E+01  0.51252052502E+01  0.18594310719E+02  0.00000000000E+00 0.  1.
          5    1    4    4  501    0  0.22307409362E+02  0.32841062057E+02 -0.15166936627E+02  0.42704381931E+02  0.41800000000E+01 0. -1.
         -5    1    4    4    0  501 -0.31362551555E+02 -0.91164488788E+02 -0.51919855021E+00  0.96500340016E+02  0.41800000000E+01 0. -1.
</event>
<event>
11    1  0.8039394E-009  0.1784904E+03  0.7561462E-02  0.1070870E+00
         22   -1    0    0    0    0  0.00000000000E+00  0.00000000000E+00  0.15472277333E+04  0.15472277333E+04  0.00000000000E+00 0. -1.
         22   -1    0    0    0    0 -0.00000000000E+00 -0.00000000000E+00 -0.17857720387E+03  0.17857720387E+03  0.00000000000E+00 0.  1.
        -24    2    1    2    0    0  0.51619634461E+02  0.12084248043E+03 -0.12727541426E+03  0.19963435184E+03  0.79920908526E+02 0.  0.
         25    2    1    2    0    0 -0.88294387079E+01 -0.81077719029E+02  0.42252552995E+03  0.44813727727E+03  0.12509052846E+03 0.  0.
         24    2    1    2    0    0 -0.42790195754E+02 -0.39764761406E+02  0.10734004138E+04  0.10780333081E+04  0.80963744865E+02 0.  0.
        -13    1    5    5    0    0 -0.25153281670E+02 -0.22184560026E+02  0.12849707435E+03  0.13280188402E+03  0.00000000000E+00 0.  1.
         14    1    5    5    0    0 -0.17636914084E+02 -0.17580201381E+02  0.94490333942E+03  0.94523142407E+03  0.00000000000E+00 0. -1.
         13    1    3    3    0    0 -0.75173311144E+01 -0.85011695691E+01 -0.66916360796E+01  0.13174146824E+02  0.00000000000E+00 0. -1.
        -14    1    3    3    0    0  0.59136965576E+02  0.12934365000E+03 -0.12058377818E+03  0.18646020501E+03  0.00000000000E+00 0.  1.
          5    1    4    4  501    0 -0.53507190357E+01  0.30582373576E+02  0.48292383913E+02  0.57563343473E+02  0.41800000000E+01 0.  1.
         -5    1    4    4    0  501 -0.34787196722E+01 -0.11166009261E+03  0.37423314603E+03  0.39057393380E+03  0.41800000000E+01 0.  1.
</event>
<event>
11    1  0.8039394E-009  0.3829925E+03  0.7561462E-02  0.9701316E-01
         22   -1    0    0    0    0  0.00000000000E+00  0.00000000000E+00  0.13826878608E+04  0.13826878608E+04  0.00000000000E+00 0. -1.
         22   -1    0    0    0    0 -0.00000000000E+00 -0.00000000000E+00 -0.26521400923E+02  0.26521400923E+02  0.00000000000E+00 0. -1.
         24    2    1    2    0    0  0.24788497256E+02 -0.34965313853E+02  0.30099175358E+03  0.31462242184E+03  0.80957951028E+02 0.  0.
         25    2    1    2    0    0 -0.62862920277E+02  0.90522814793E+02  0.44005940260E+03  0.47058323978E+03  0.12510068345E+03 0.  0.
        -24    2    1    2    0    0  0.38074423021E+02 -0.55557500940E+02  0.61511530369E+03  0.62400360009E+03  0.80482038348E+02 0.  0.
        -11    1    3    3    0    0 -0.33238299686E+01 -0.55931458800E+02  0.20078221270E+03  0.20845352687E+03  0.00000000000E+00 0.  1.
         12    1    3    3    0    0  0.28112327225E+02  0.20966144947E+02  0.10020954088E+03  0.10616889497E+03  0.00000000000E+00 0. -1.
         11    1    5    5    0    0  0.57821793440E+02 -0.21521925036E+02  0.28829260923E+03  0.29482059221E+03  0.00000000000E+00 0. -1.
        -12    1    5    5    0    0 -0.19747370419E+02 -0.34035575904E+02  0.32682269446E+03  0.32918300788E+03  0.00000000000E+00 0.  1.
          5    1    4    4  501    0 -0.21419758344E+02  0.67825005257E+00  0.25229430327E+01  0.21979620383E+02  0.41800000000E+01 0. -1.
         -5    1    4    4    0  501 -0.41443161933E+02  0.89844564741E+02  0.43753645957E+03  0.44860361940E+03  0.41800000000E+01 0. -1.
</event>
<event>
11    1  0.8039394E-009  0.1284376E+03  0.7561462E-02  0.1121204E+00
         22   -1    0    0    0    0  0.00000000000E+00  0.00000000000E+00  0.27541118525E+03  0.27541118525E+03  0.00000000000E+00 0. -1.
         22   -1    0    0    0    0 -0.00000000000E+00 -0.00000000000E+00 -0.32384589439E+03  0.32384589439E+03  0.00000000000E+00 0.  1.
        -24    2    1    2    0    0  0.42573195806E+01 -0.20974616489E+02 -0.27488665190E+03  0.28625482165E+03  0.76948633617E+02 0.  0.
         25    2    1    2    0    0 -0.25146810151E+02  0.32030109448E+02  0.12825618619E+03  0.18372833523E+03  0.12509261329E+03 0.  0.
         24    2    1    2    0    0  0.20889490571E+02 -0.11055492959E+02  0.98195756573E+02  0.12927392275E+03  0.80689192302E+02 0.  0.
        -11    1    5    5    0    0 -0.68532092403E+01  0.27644723654E+02  0.65749832662E+02  0.71653595289E+02  0.00000000000E+00 0.  1.
         12    1    5    5    0    0  0.27742699811E+02 -0.38700216613E+02  0.32445923912E+02  0.57620327465E+02  0.00000000000E+00 0. -1.
         11    1    3    3    0    0  0.26813268625E+02 -0.98935801619E+01 -0.35604009778E+02  0.45656103809E+02  0.00000000000E+00 0. -1.
        -12    1    3    3    0    0 -0.22555949044E+02 -0.11081036327E+02 -0.23928264212E+03  0.24059871784E+03  0.00000000000E+00 0.  1.
          5    1    4    4  501    0 -0.74056869909E+02  0.21635387795E+02  0.54621558515E+02  0.94622920269E+02  0.41800000000E+01 0.  1.
         -5    1    4    4    0  501  0.48910059757E+02  0.10394721653E+02  0.73634627672E+02  0.89105414965E+02  0.41800000000E+01 0.  1.
</event>
<event>
11    1  0.8039394E-009  0.1539477E+03  0.7561462E-02  0.1092912E+00
         22   -1    0    0    0    0  0.00000000000E+00  0.00000000000E+00  0.16895315873E+03  0.16895315873E+03  0.00000000000E+00 0.  1.
         22   -1    0    0    0    0 -0.00000000000E+00 -0.00000000000E+00 -0.49571712013E+03  0.49571712013E+03  0.00000000000E+00 0. -1.
         24    2    1    2    0    0 -0.35237454686E+02  0.81120786827E+02 -0.38822527272E+03  0.40635518528E+03  0.81138239776E+02 0.  0.
         25    2    1    2    0    0  0.47500652365E+02 -0.91294807903E+02  0.13022749111E+02  0.16248259829E+03  0.12505978102E+03 0.  0.
        -24    2    1    2    0    0 -0.12263197679E+02  0.10174021077E+02  0.48438562216E+02  0.95832495293E+02  0.81139855326E+02 0.  0.
        -13    1    3    3    0    0 -0.56148988463E+02  0.64304648920E+02 -0.21962930090E+03  0.23563706541E+03  0.00000000000E+00 0.  1.
         14    1    3    3    0    0  0.20911533776E+02  0.16816137907E+02 -0.16859597182E+03  0.17071811987E+03  0.00000000000E+00 0. -1.
         13    1    5    5    0    0  0.28739463141E+02 -0.83189722694E+01  0.25975861979E+00  0.29920386291E+02  0.00000000000E+00 0. -1.
        -14    1    5    5    0    0 -0.41002660819E+02  0.18492993346E+02  0.48178803597E+02  0.65912109003E+02  0.00000000000E+00 0.  1.
          5    1    4    4  501    0  0.35609531872E+02 -0.31642192222E+02  0.66142493303E+02  0.81618434861E+02  0.41800000000E+01 0.  1.
         -5    1    4    4    0  501  0.11891120493E+02 -0.59652615681E+02 -0.53119744192E+02  0.80864163430E+02  0.41800000000E+01 0.  1.
</event>
<event>
11    1  0.8039394E-009  0.1292989E+03  0.7561462E-02  0.1120133E+00
         22   -1    0    0    0    0  0.00000000000E+00  0.00000000000E+00  0.24174752933E+03  0.24174752933E+03  0.00000000000E+00 0. -1.
         22   -1    0    0    0    0 -0.00000000000E+00 -0.00000000000E+00 -0.47810996974E+03  0.47810996974E+03  0.00000000000E+00 0. -1.
        -24    2    1    2    0    0 -0.32573741926E+02  0.55453239628E+01 -0.41819360608E+03  0.42694418953E+03  0.79395525857E+02 0.  0.
         25    2    1    2    0    0  0.28680655043E+02  0.19021531274E+02  0.54511020443E+02  0.14072556041E+03  0.12509130016E+03 0.  0.
         24    2    1    2    0    0  0.38930868826E+01 -0.24566855237E+02  0.12732014523E+03  0.15218774914E+03  0.79573897140E+02 0.  0.
        -13    1    5    5    0    0 -0.10159254287E+02  0.24986297738E+02  0.21482473038E+02  0.34482200772E+02  0.00000000000E+00 0.  1.
         14    1    5    5    0    0  0.14052341169E+02 -0.49553152975E+02  0.10583767219E+03  0.11770554837E+03  0.00000000000E+00 0. -1.
         13    1    3    3    0    0 -0.58146588933E+02  0.81953053921E+01 -0.25045807447E+03  0.25724975394E+03  0.00000000000E+00 0. -1.
        -14    1    3    3    0    0  0.25572847007E+02 -0.26499814293E+01 -0.16773553161E+03  0.16969443559E+03  0.00000000000E+00 0.  1.
          5    1    4    4  501    0  0.32915043768E+02 -0.41794853543E+02  0.58878477214E+02  0.79462930779E+02  0.41800000000E+01 0.  1.
         -5    1    4    4    0  501 -0.42343887248E+01  0.60816384817E+02 -0.43674567711E+01  0.61262629627E+02  0.41800000000E+01 0.  1.
</event>
<event>
11    1  0.8039394E-009  0.1357431E+03  0.7561462E-02  0.1112407E+00
         22   -1    0    0    0    0  0.00000000000E+00  0.00000000000E+00  0.12110333827E+04  0.12110333827E+04  0.00000000000E+00 0. -1.
         22   -1    0    0    0    0 -0.00000000000E+00 -0.00000000000E+00 -0.19577621313E+03  0.19577621313E+03  0.00000000000E+00 0. -1.
        -24    2    1    2    0    0 -0.13871035273E+01  0.54801377456E+02 -0.10604144799E+03  0.15528378662E+03  0.99313396221E+02 0.  0.
         25    2    1    2    0    0  0.63900272346E+02 -0.35254301705E+02  0.21020431676E+02  0.14633846460E+03  0.12508787742E+03 0.  0.
         24    2    1    2    0    0 -0.62513168819E+02 -0.19547075751E+02  0.11002781859E+04  0.11051873446E+04  0.80851690793E+02 0.  0.
        -11    1    5    5    0    0 -0.33315429950E+02 -0.82362784237E+01  0.13153521353E+03  0.13593846606E+03  0.00000000000E+00 0.  1.
         12    1    5    5    0    0 -0.29197738868E+02 -0.11310797327E+02  0.96874297239E+03  0.96924887859E+03  0.00000000000E+00 0. -1.
         13    1    3    3    0    0  0.86195056302E+01  0.82953710654E+02 -0.74364733628E+02  0.11173955251E+03  0.00000000000E+00 0. -1.
        -14    1    3    3    0    0 -0.10006609158E+02 -0.28152333198E+02 -0.31676714361E+02  0.43544234108E+02  0.00000000000E+00 0.  1.
          5    1    4    4  501    0  0.88266246691E+02 -0.25960785120E+02  0.51890701828E+02  0.10571191988E+03  0.41800000000E+01 0. -1.
         -5    1    4    4    0  501 -0.24365974344E+02 -0.92935165853E+01 -0.30870270152E+02  0.40626544716E+02  0.41800000000E+01 0. -1.
</event>
<event>
11    1  0.8039394E-009  0.1427648E+03  0.7561462E-02  0.1104510E+00
         22   -1    0    0    0    0  0.00000000000E+00  0.00000000000E+00  0.33480288336E+04  0.33480288336E+04  0.00000000000E+00 0.  1.
         22   -1    0    0    0    0 -0.00000000000E+00 -0.00000000000E+00 -0.40798448090E+02  0.40798448090E+02  0.00000000000E+00 0.  1.
        -24    2    1    2    0    0  0.27866646325E+02 -0.31259100362E+02  0.44522007287E+02  0.99462528026E+02  0.78465941755E+02 0.  0.
         25    2    1    2    0    0  0.23092933879E+02  0.77348893768E+02  0.43653411420E+03  0.46122249224E+03  0.12509204423E+03 0.  0.
         24    2    1    2    0    0 -0.50959580205E+02 -0.46089793407E+02  0.28261742640E+04  0.28281422614E+04  0.80040816702E+02 0.  0.
        -13    1    5    5    0    0 -0.46223470491E+02 -0.97053518105E+01  0.23778614345E+04  0.23783304659E+04  0.00000000000E+00 0.  1.
         14    1    5    5    0    0 -0.47361097137E+01 -0.36384441596E+02  0.44831282953E+03  0.44981179558E+03  0.00000000000E+00 0. -1.
         11    1    3    3    0    0 -0.26258309027E+02 -0.88029195838E+01  0.26051302270E+02  0.38021842882E+02  0.00000000000E+00 0. -1.
        -12    1    3    3    0    0  0.54124955353E+02 -0.22456180778E+02  0.18470705017E+02  0.61440685144E+02  0.00000000000E+00 0.  1.
          5    1    4    4  501    0 -0.18528074628E+02 -0.22514382887E+02  0.18565998869E+03  0.18798215550E+03  0.41800000000E+01 0.  1.
         -5    1    4    4    0  501  0.41621008507E+02  0.99863276656E+02  0.25087412551E+03  0.27324033674E+03  0.41800000000E+01 0.  1.
</event>
<event>
11    1  0.8039394E-009  0.1579741E+03  0.7561462E-02  0.1088998E+00
         22   -1    0    0    0    0  0.00000000000E+00  0.00000000000E+00  0.11954949074E+04  0.11954949074E+04  0.00000000000E+00 0. -1.
         22   -1    0    0    0    0 -0.00000000000E+00 -0.00000000000E+00 -0.37222473268E+03  0.37222473268E+03  0.00000000000E+00 0. -1.
         24    2    1    2    0    0  0.32053208579E+02  0.94952113734E+02 -0.31650425620E+03  0.34170936778E+03  0.80913755025E+02 0.  0.
         25    2    1    2    0    0 -0.80935734975E+02 -0.27477083654E+02  0.10385331459E+03  0.18368085234E+03  0.12509021241E+03 0.  0.
        -24    2    1    2    0    0  0.48882526395E+02 -0.67475030080E+02  0.10359211163E+04  0.10423294199E+04  0.79847851515E+02 0.  0.
        -13    1    3    3    0    0 -0.15746454735E+02  0.66297483408E+02 -0.12631254120E+03  0.14352060900E+03  0.00000000000E+00 0.  1.
         14    1    3    3    0    0  0.47799663314E+02  0.28654630326E+02 -0.19019171500E+03  0.19818875878E+03  0.00000000000E+00 0. -1.
         11    1    5    5    0    0  0.39392026064E+02 -0.85962914189E+02  0.83559961984E+03  0.84093286237E+03  0.00000000000E+00 0. -1.
        -12    1    5    5    0    0  0.94905003317E+01  0.18487884109E+02  0.20032149646E+03  0.20139655757E+03  0.00000000000E+00 0.  1.
          5    1    4    4  501    0  0.13201006737E+02 -0.48777265493E+02  0.57074079011E+02  0.76344031219E+02  0.41800000000E+01 0. -1.
         -5    1    4    4    0  501 -0.94136741711E+02  0.21300181839E+02  0.46779235578E+02  0.10733682112E+03  0.41800000000E+01 0. -1.
</event>
<event>
11    1  0.8039394E-009  0.1268774E+03  0.7561462E-02  0.1123166E+00
         22   -1    0    0    0    0  0.00000000000E+00  0.00000000000E+00  0.42740882302E+03  0.42740882302E+03  0.00000000000E+00 0. -1.
         22   -1    0    0    0    0 -0.00000000000E+00 -0.00000000000E+00 -0.45380074645E+03  0.45380074645E+03  0.00000000000E+00 0. -1.
        -24    2    1    2    0    0  0.21714144198E+02  0.21862825964E+00 -0.40737989385E+03  0.41607790535E+03  0.81797882330E+02 0.  0.
         25    2    1    2    0    0 -0.88633172857E+01  0.10077092213E+02  0.71272113226E+02  0.14459431886E+03  0.12509075402E+03 0.  0.
         24    2    1    2    0    0 -0.12850826913E+02 -0.10295720472E+02  0.30971585719E+03  0.32053734525E+03  0.80926706927E+02 0.  0.
        -11    1    5    5    0    0 -0.45029630557E+02 -0.16847269834E+02  0.21435379228E+03  0.21967941732E+03  0.00000000000E+00 0.  1.
         12    1    5    5    0    0  0.32178803644E+02  0.65515493617E+01  0.95362064909E+02  0.10085792793E+03  0.00000000000E+00 0. -1.
         13    1    3    3    0    0  0.44758020440E+02  0.23459628138E+02 -0.28228409286E+03  0.28677158790E+03  0.00000000000E+00 0. -1.
        -14    1    3    3    0    0 -0.23043876242E+02 -0.23240999878E+02 -0.12509580099E+03  0.12930631745E+03  0.00000000000E+00 0.  1.
          5    1    4    4  501    0  0.54685893756E+02 -0.15485300373E+02  0.28350553368E+02  0.63651926757E+02  0.41800000000E+01 0.  1.
         -5    1    4    4    0  501 -0.63549211042E+02  0.25562392585E+02  0.42921559859E+02  0.80942392104E+02  0.41800000000E+01 0.  1.
</event>
<event>
11    1  0.8039394E-009  0.1939013E+03  0.7561462E-02  0.1058922E+00
         22   -1    0    0    0    0  0.00000000000E+00  0.00000000000E+00  0.11524474688E+04  0.11524474688E+04  0.00000000000E+00 0.  1.
         22   -1    0    0    0    0 -0.00000000000E+00 -0.00000000000E+00 -0.19547706609E+03  0.19547706609E+03  0.00000000000E+00 0. -1.
        -24    2    1    2    0    0  0.14364016276E+03  0.28376759749E+02 -0.13227656116E+03  0.21342622573E+03  0.81338357153E+02 0.  0.
         25    2    1    2    0    0 -0.18476314815E+03  0.39137431049E+01  0.74569914814E+03  0.77837546834E+03  0.12509361248E+03 0.  0.
         24    2    1    2    0    0  0.41122985391E+02 -0.32290502854E+02  0.34354781573E+03  0.35612284081E+03  0.77875538832E+02 0.  0.
        -11    1    5    5    0    0  0.53778621605E+02 -0.19512132709E+02  0.13266412388E+03  0.14447364199E+03  0.00000000000E+00 0.  1.
         12    1    5    5    0    0 -0.12655636214E+02 -0.12778370145E+02  0.21088369185E+03  0.21164919882E+03  0.00000000000E+00 0. -1.
         11    1    3    3    0    0  0.13025410201E+03  0.49494221088E+02 -0.95388422003E+02  0.16886314004E+03  0.00000000000E+00 0. -1.
        -12    1    3    3    0    0  0.13386060757E+02 -0.21117461339E+02 -0.36888139161E+02  0.44563085696E+02  0.00000000000E+00 0.  1.
          5    1    4    4  501    0 -0.90528425150E+02  0.40712327120E+02  0.19947870754E+03  0.22284998655E+03  0.41800000000E+01 0. -1.
         -5    1    4    4    0  501 -0.94234723004E+02 -0.36798584015E+02  0.54622044059E+03  0.55552548180E+03  0.41800000000E+01 0. -1.
</event>
<event>
11    1  0.8039394E-009  0.1810996E+03  0.7561462E-02  0.1068757E+00
         22   -1    0    0    0    0  0.00000000000E+00  0.00000000000E+00  0.18675244294E+04  0.18675244294E+04  0.00000000000E+00 0.  1.
         22   -1    0    0    0    0 -0.00000000000E+00 -0.00000000000E+00 -0.20889623566E+03  0.20889623566E+03  0.00000000000E+00 0. -1.
         24    2    1    2    0    0 -0.31870157340E+02  0.51638648127E+02 -0.14161393430E+03  0.17358445224E+03  0.79967485658E+02 0.  0.
         25    2    1    2    0    0  0.14133183672E+03 -0.11653538479E+03  0.20985252627E+03  0.30533818284E+03  0.12505254551E+03 0.  0.
        -24    2    1    2    0    0 -0.10946167938E+03  0.64896736666E+02  0.15903896018E+04  0.15974980300E+04  0.80420300411E+02 0.  0.
        -13    1    3    3    0    0 -0.16073112545E+01 -0.19729111911E+02 -0.13906846225E+02  0.24191355444E+02  0.00000000000E+00 0.  1.
         14    1    3    3    0    0 -0.30262846086E+02  0.71367760038E+02 -0.12770708807E+03  0.14939309680E+03  0.00000000000E+00 0. -1.
         11    1    5    5    0    0  0.60046842409E+01  0.23227537566E+02  0.42100870519E+03  0.42169171746E+03  0.00000000000E+00 0. -1.
        -12    1    5    5    0    0 -0.11546636362E+03  0.41669199100E+02  0.11693808966E+04  0.11758063125E+04  0.00000000000E+00 0.  1.
          5    1    4    4  501    0  0.64655571101E+02  0.33923197080E+01  0.19761891598E+02  0.67822234311E+02  0.41800000000E+01 0. -1.
         -5    1    4    4    0  501  0.76676265617E+02 -0.11992770450E+03  0.19009063467E+03  0.23751594853E+03  0.41800000000E+01 0. -1.
</event>
<event>
11    1  0.8039394E-009  0.1797343E+03  0.7561462E-02  0.1069858E+00
         22   -1    0    0    0    0  0.00000000000E+00  0.00000000000E+00  0.30643735805E+03  0.30643735805E+03  0.00000000000E+00 0. -1.
         22   -1    0    0    0    0 -0.00000000000E+00 -0.00000000000E+00 -0.78087473043E+03  0.78087473043E+03  0.00000000000E+00 0.  1.
        -24    2    1    2    0    0  0.45218257691E+02 -0.54303619871E+02 -0.66304309605E+03  0.67506813991E+03  0.10534359179E+03 0.  0.
         25    2    1    2    0    0  0.50898355302E+02  0.13767649356E+03  0.32767816299E+02  0.19561885947E+03  0.12509016326E+03 0.  0.
         24    2    1    2    0    0 -0.96116612993E+02 -0.83372873690E+02  0.15583790737E+03  0.21662508910E+03  0.80321457236E+02 0.  0.
        -11    1    5    5    0    0 -0.10915712874E+02 -0.59890599376E+02  0.50291686000E+02  0.78963854781E+02  0.00000000000E+00 0.  1.
         12    1    5    5    0    0 -0.85200900119E+02 -0.23482274314E+02  0.10554622137E+03  0.13766123432E+03  0.00000000000E+00 0. -1.
         11    1    3    3    0    0 -0.25920784776E+02 -0.17410960844E+02 -0.70174136867E+02  0.76807799903E+02  0.00000000000E+00 0. -1.
        -12    1    3    3    0    0  0.71139042467E+02 -0.36892659028E+02 -0.59286895919E+03  0.59826034000E+03  0.00000000000E+00 0.  1.
          5    1    4    4  501    0  0.80483832014E+02  0.72000354565E+02  0.53441707106E+02  0.12056196221E+03  0.41800000000E+01 0.  1.
         -5    1    4    4    0  501 -0.29585476712E+02  0.65676138997E+02 -0.20673890807E+02  0.75056897265E+02  0.41800000000E+01 0.  1.
</event>
<event>
11    1  0.8039394E-009  0.1588014E+03  0.7561462E-02  0.1088210E+00
         22   -1    0    0    0    0  0.00000000000E+00  0.00000000000E+00  0.76809987924E+03  0.76809987924E+03  0.00000000000E+00 0. -1.
         22   -1    0    0    0    0 -0.00000000000E+00 -0.00000000000E+00 -0.28984377906E+03  0.28984377906E+03  0.00000000000E+00 0.  1.
         24    2    1    2    0    0 -0.67669239465E+02 -0.77707509767E+02 -0.21323149166E+03  0.25106673105E+03  0.83362169840E+02 0.  0.
         25    2    1    2    0    0  0.54926107552E+02  0.46968521927E+02  0.40485692010E+02  0.15003071690E+03  0.12508879012E+03 0.  0.
        -24    2    1    2    0    0  0.12743131913E+02  0.30738987840E+02  0.65100189982E+03  0.65684621035E+03  0.80846754397E+02 0.  0.
        -11    1    3    3    0    0  0.14081641633E+02 -0.34461537277E+02 -0.39671215330E+02  0.54403083629E+02  0.00000000000E+00 0.  1.
         12    1    3    3    0    0 -0.81750881099E+02 -0.43245972489E+02 -0.17356027633E+03  0.19666364742E+03  0.00000000000E+00 0. -1.
         13    1    5    5    0    0  0.45596496501E+02  0.92568897642E+01  0.28884328940E+03  0.29256653317E+03  0.00000000000E+00 0. -1.
        -14    1    5    5    0    0 -0.32853364588E+02  0.21482098075E+02  0.36215861042E+03  0.36427967718E+03  0.00000000000E+00 0.  1.
          5    1    4    4  501    0  0.26761311520E+02  0.68025364891E+02 -0.23500408481E+02  0.76898372295E+02  0.41800000000E+01 0. -1.
         -5    1    4    4    0  501  0.28164796032E+02 -0.21056842964E+02  0.63986100491E+02  0.73132344604E+02  0.41800000000E+01 0. -1.
</event>
<event>
11    1  0.8039394E-009  0.1317255E+03  0.7561462E-02  0.1117167E+00
         22   -1    0    0    0    0  0.00000000000E+00  0.00000000000E+00  0.96002543567E+02  0.96002543567E+02  0.00000000000E+00 0.  1.
         22   -1    0    0    0    0 -0.00000000000E+00 -0.00000000000E+00 -0.31685685420E+04  0.31685685420E+04  0.00000000000E+00 0. -1.
        -24    2    1    2    0    0  0.26880247255E+02  0.34062968029E+02 -0.20716133717E+04  0.20735040315E+04  0.77163288929E+02 0.  0.
         25    2    1    2    0    0  0.32467438127E+01 -0.41365832162E+02 -0.10720085413E+04  0.10800792216E+04  0.12508852399E+03 0.  0.
         24    2    1    2    0    0 -0.30126991068E+02  0.73028641329E+01  0.71055914567E+02  0.11098783255E+03  0.79425364732E+02 0.  0.
        -11    1    5    5    0    0 -0.21668198438E+02  0.72767500679E+01  0.88605385593E+02  0.91506154280E+02  0.00000000000E+00 0.  1.
         12    1    5    5    0    0 -0.84587926300E+01  0.26114064978E-01 -0.17549471026E+02  0.19481678265E+02  0.00000000000E+00 0. -1.
         13    1    3    3    0    0  0.47760646969E+02  0.24612852850E+02 -0.18342352530E+04  0.18350220259E+04  0.00000000000E+00 0. -1.
        -14    1    3    3    0    0 -0.20880399714E+02  0.94501151790E+01 -0.23737811868E+03  0.23848200561E+03  0.00000000000E+00 0.  1.
          5    1    4    4  501    0  0.37916844495E+02 -0.68048003294E+02 -0.46648573847E+03  0.47296367138E+03  0.41800000000E+01 0. -1.
         -5    1    4    4    0  501 -0.34670100683E+02  0.26682171132E+02 -0.60552280286E+03  0.60711555022E+03  0.41800000000E+01 0. -1.
</event>
<event>
11    1  0.8558241E-009  0.2171961E+03  0.7561462E-02  0.1042988E+00
         22   -1    0    0    0    0  0.00000000000E+00  0.00000000000E+00  0.26233486719E+03  0.26233486719E+03  0.00000000000E+00 0.  1.
         22   -1    0    0    0    0 -0.00000000000E+00 -0.00000000000E+00 -0.16481617381E+04  0.16481617381E+04  0.00000000000E+00 0.  1.
        -24    2    1    2    0    0 -0.35821138266E+02 -0.17562014559E+02 -0.68444790934E+03  0.69033680371E+03  0.80649759171E+02 0.  0.
         25    2    1    2    0    0 -0.39963831548E+02 -0.14436893345E+03 -0.91216328071E+03  0.93280810366E+03  0.12509840449E+03 0.  0.
         24    2    1    2    0    0  0.75784969815E+02  0.16193094801E+03  0.21078431911E+03  0.28735169795E+03  0.78587375325E+02 0.  0.
        -13    1    5    5    0    0  0.52308336524E+02  0.16082841214E+03  0.19868705434E+03  0.26091854243E+03  0.00000000000E+00 0.  1.
         14    1    5    5    0    0  0.23476633291E+02  0.11025358732E+01  0.12097264764E+02  0.26433155521E+02  0.00000000000E+00 0. -1.
         11    1    3    3    0    0 -0.31206208231E+02 -0.22423717400E+02 -0.12330966599E+03  0.12915852377E+03  0.00000000000E+00 0. -1.
        -12    1    3    3    0    0 -0.46149300355E+01  0.48617028415E+01 -0.56113824334E+03  0.56117827994E+03  0.00000000000E+00 0.  1.
          5    1    4    4  501    0 -0.75350059501E+02 -0.45120414556E+02 -0.47822573368E+03  0.48624151204E+03  0.41800000000E+01 0.  1.
         -5    1    4    4    0  501  0.35386227952E+02 -0.99248518896E+02 -0.43393754703E+03  0.44656659162E+03  0.41800000000E+01 0.  1.
</event>
<event>
11    1  0.8039394E-009  0.1499367E+03  0.7561462E-02  0.1096943E+00
         22   -1    0    0    0    0  0.00000000000E+00  0.00000000000E+00  0.49231395876E+03  0.49231395876E+03  0.00000000000E+00 0. -1.
         22   -1    0    0    0    0 -0.00000000000E+00 -0.00000000000E+00 -0.24321527343E+04  0.24321527343E+04  0.00000000000E+00 0.  1.
         24    2    1    2    0    0 -0.45004088351E+02 -0.82374309402E+01 -0.23756997504E+04  0.23774825081E+04  0.79878337715E+02 0.  0.
         25    2    1    2    0    0 -0.27018732676E+01  0.79016286778E+02  0.71057442339E+02  0.16415783419E+03  0.12509100975E+03 0.  0.
        -24    2    1    2    0    0  0.47705961619E+02 -0.70778855837E+02  0.36480353253E+03  0.38282635080E+03  0.78669513228E+02 0.  0.
        -11    1    3    3    0    0 -0.41222405405E+02 -0.17130148502E+02 -0.23419801939E+04  0.23424055919E+04  0.00000000000E+00 0.  1.
         12    1    3    3    0    0 -0.37816829462E+01  0.88927175622E+01 -0.33719556564E+02  0.35076916147E+02  0.00000000000E+00 0. -1.
         11    1    5    5    0    0  0.23266958334E+02 -0.48167638124E+02  0.33130691878E+03  0.33559759705E+03  0.00000000000E+00 0. -1.
        -12    1    5    5    0    0  0.24439003285E+02 -0.22611217714E+02  0.33496613747E+02  0.47228753748E+02  0.00000000000E+00 0.  1.
          5    1    4    4  501    0  0.25746443542E+02 -0.21573224405E+02 -0.57998445133E+01  0.34342305727E+02  0.41800000000E+01 0. -1.
         -5    1    4    4    0  501 -0.28448316809E+02  0.10058951118E+03  0.76857286852E+02  0.12981552847E+03  0.41800000000E+01 0. -1.
</event>
<event>
11    1  0.8039394E-009  0.1415378E+03  0.7561462E-02  0.1105853E+00
         22   -1    0    0    0    0  0.00000000000E+00  0.00000000000E+00  0.24548509182E+04  0.24548509182E+04  0.00000000000E+00 0. -1.
         22   -1    0    0    0    0 -0.00000000000E+00 -0.00000000000E+00 -0.34142346868E+02  0.34142346868E+02  0.00000000000E+00 0. -1.
         24    2    1    2    0    0 -0.26303803294E+02  0.15644764844E+02  0.48308989673E+02  0.97980592006E+02  0.79559972297E+02 0.  0.
         25    2    1    2    0    0 -0.18082082449E+02 -0.65788006909E+02  0.64780498081E+03  0.66329258217E+03  0.12510288902E+03 0.  0.
        -24    2    1    2    0    0  0.44385885743E+02  0.50143242065E+02  0.17245946008E+04  0.17277200908E+04  0.79408586504E+02 0.  0.
        -11    1    3    3    0    0 -0.45103380388E+02  0.23039650889E+02  0.56769886594E+02  0.76078646540E+02  0.00000000000E+00 0.  1.
         12    1    3    3    0    0  0.18799577094E+02 -0.73948860446E+01 -0.84608969206E+01  0.21901945466E+02  0.00000000000E+00 0. -1.
         11    1    5    5    0    0  0.49323882728E+02  0.12206703549E+02  0.13929176403E+04  0.13938441095E+04  0.00000000000E+00 0. -1.
        -12    1    5    5    0    0 -0.49379969849E+01  0.37936538516E+02  0.33167696054E+03  0.33387598135E+03  0.00000000000E+00 0.  1.
          5    1    4    4  501    0 -0.56699530866E+02 -0.67022483948E+02  0.28072785587E+03  0.29416398763E+03  0.41800000000E+01 0.  1.
         -5    1    4    4    0  501  0.38617448417E+02  0.12344770383E+01  0.36707712494E+03  0.36912859454E+03  0.41800000000E+01 0.  1.
</event>
<event>
11    1  0.8039394E-009  0.1333680E+03  0.7561462E-02  0.1115199E+00
         22   -1    0    0    0    0  0.00000000000E+00  0.00000000000E+00  0.92780088318E+03  0.92780088318E+03  0.00000000000E+00 0.  1.
         22   -1    0    0    0    0 -0.00000000000E+00 -0.00000000000E+00 -0.60667471590E+03  0.60667471590E+03  0.00000000000E+00 0. -1.
        -24    2    1    2    0    0 -0.27446093631E+02 -0.36760022138E+02 -0.57683978662E+03  0.58461980495E+03  0.83256168714E+02 0.  0.
         25    2    1    2    0    0  0.12675995169E+02  0.78546262128E+02  0.21688100743E+03  0.26270401560E+03  0.12508330137E+03 0.  0.
         24    2    1    2    0    0  0.14770098462E+02 -0.41786239989E+02  0.68108494647E+03  0.68715177852E+03  0.79602869036E+02 0.  0.
        -13    1    5    5    0    0  0.40190003232E+02 -0.15533691965E+02  0.52843856490E+03  0.53019227533E+03  0.00000000000E+00 0.  1.
         14    1    5    5    0    0 -0.25419904771E+02 -0.26252548024E+02  0.15264638157E+03  0.15695950319E+03  0.00000000000E+00 0. -1.
         11    1    3    3    0    0  0.19647733239E+02 -0.39248105963E+02 -0.36285668193E+03  0.36550159899E+03  0.00000000000E+00 0. -1.
        -12    1    3    3    0    0 -0.47093826870E+02  0.24880838249E+01 -0.21398310469E+03  0.21911820596E+03  0.00000000000E+00 0.  1.
          5    1    4    4  501    0 -0.18958998109E+02  0.31678025394E+02  0.20017557489E+03  0.20359438618E+03  0.41800000000E+01 0. -1.
         -5    1    4    4    0  501  0.31634993278E+02  0.46868236734E+02  0.16705432546E+02  0.59109629426E+02  0.41800000000E+01 0. -1.
</event>
<event>
11    1  0.8039394E-009  0.1260701E+03  0.7561462E-02  0.1124194E+00
         22   -1    0    0    0    0  0.00000000000E+00  0.00000000000E+00  0.15347165686E+04  0.15347165686E+04  0.00000000000E+00 0.  1.
         22   -1    0    0    0    0 -0.00000000000E+00 -0.00000000000E+00 -0.37734190245E+02  0.37734190245E+02  0.00000000000E+00 0. -1.
        -24    2    1    2    0    0 -0.95688519623E+01  0.10832041703E+02  0.32818352163E+02  0.91452844730E+02  0.84128963593E+02 0.  0.
         25    2    1    2    0    0 -0.85186561868E-01 -0.37246927173E+02  0.69524961300E+03  0.70739477269E+03  0.12509196307E+03 0.  0.
         24    2    1    2    0    0  0.96540385241E+01  0.26414885469E+02  0.76891441320E+03  0.77360314142E+03  0.80258949420E+02 0.  0.
        -13    1    5    5    0    0 -0.40965329314E+01  0.41963995594E+02  0.20420860500E+03  0.20851597747E+03  0.00000000000E+00 0.  1.
         14    1    5    5    0    0  0.13750571456E+02 -0.15549110125E+02  0.56470580820E+03  0.56508716395E+03  0.00000000000E+00 0. -1.
         11    1    3    3    0    0  0.67155896986E+01  0.44297885483E+02  0.51949877454E+01  0.45104209348E+02  0.00000000000E+00 0. -1.
        -12    1    3    3    0    0 -0.16284441661E+02 -0.33465843779E+02  0.27623364418E+02  0.46348635382E+02  0.00000000000E+00 0.  1.
          5    1    4    4  501    0 -0.56878325494E+02 -0.87063603394E+01  0.46256092609E+03  0.46614485663E+03  0.41800000000E+01 0. -1.
         -5    1    4    4    0  501  0.56793138932E+02 -0.28540566833E+02  0.23268868691E+03  0.24124991606E+03  0.41800000000E+01 0. -1.
</event>
<event>
11    1  0.8039394E-009  0.1391722E+03  0.7561462E-02  0.1108486E+00
         22   -1    0    0    0    0  0.00000000000E+00  0.00000000000E+00  0.35515544039E+03  0.35515544039E+03  0.00000000000E+00 0.  1.
         22   -1    0    0    0    0 -0.00000000000E+00 -0.00000000000E+00 -0.18261209083E+04  0.18261209083E+04  0.00000000000E+00 0. -1.
         24    2    1    2    0    0 -0.37592349206E+02  0.47387571335E+02 -0.14601639213E+04  0.14636292455E+04  0.80455730543E+02 0.  0.
         25    2    1    2    0    0 -0.15796766584E+02 -0.77318940636E+02 -0.34062348395E+03  0.37134820461E+03  0.12508946730E+03 0.  0.
        -24    2    1    2    0    0  0.53389115790E+02  0.29931369302E+02  0.32982193734E+03  0.34629889858E+03  0.85989140357E+02 0.  0.
        -13    1    3    3    0    0  0.12280323354E+02 -0.38272801378E+01 -0.69840383853E+03  0.69852228031E+03  0.00000000000E+00 0.  1.
         14    1    3    3    0    0 -0.49872672560E+02  0.51214851473E+02 -0.76176008272E+03  0.76510696514E+03  0.00000000000E+00 0. -1.
         11    1    5    5    0    0 -0.22580450161E+02  0.16945605512E+02  0.99232764670E+02  0.10317059591E+03  0.00000000000E+00 0. -1.
        -12    1    5    5    0    0  0.75969565952E+02  0.12985763790E+02  0.23058917266E+03  0.24312830268E+03  0.00000000000E+00 0.  1.
          5    1    4    4  501    0  0.48439065070E+02 -0.58288687090E+02 -0.22727125994E+03  0.23961137716E+03  0.41800000000E+01 0.  1.
         -5    1    4    4    0  501 -0.64235831655E+02 -0.19030253546E+02 -0.11335222401E+03  0.13173682745E+03  0.41800000000E+01 0.  1.
</event>
<event>
11    1  0.8039394E-009  0.1943718E+03  0.7561462E-02  0.1058577E+00
         22   -1    0    0    0    0  0.00000000000E+00  0.00000000000E+00  0.20316048265E+04  0.20316048265E+04  0.00000000000E+00 0.  1.
         22   -1    0    0    0    0 -0.00000000000E+00 -0.00000000000E+00 -0.14944073453E+03  0.14944073453E+03  0.00000000000E+00 0. -1.
         24    2    1    2    0    0  0.64170783733E+02  0.80130579740E+02 -0.89047071645E+02  0.15744068209E+03  0.79494579158E+02 0.  0.
         25    2    1    2    0    0 -0.16372284251E+03  0.33290738699E+02  0.49182048247E+03  0.53427648616E+03  0.12510209528E+03 0.  0.
        -24    2    1    2    0    0  0.99552058774E+02 -0.11342131844E+03  0.14793906811E+04  0.14893283928E+04  0.82019913348E+02 0.  0.
        -13    1    3    3    0    0 -0.73009694470E+01  0.35058127752E+02 -0.16089245978E+01  0.35846410067E+02  0.00000000000E+00 0.  1.
         14    1    3    3    0    0  0.71471753180E+02  0.45072451988E+02 -0.87438147047E+02  0.12159427203E+03  0.00000000000E+00 0. -1.
         13    1    5    5    0    0 -0.14514872085E+02 -0.98947500148E+01  0.17158881178E+03  0.17248567453E+03  0.00000000000E+00 0. -1.
        -14    1    5    5    0    0  0.11406693086E+03 -0.10352656842E+03  0.13078018694E+04  0.13168427182E+04  0.00000000000E+00 0.  1.
          5    1    4    4  501    0 -0.48140928621E+02 -0.47201203286E+02  0.17206892050E+03  0.18485315362E+03  0.41800000000E+01 0. -1.
         -5    1    4    4    0  501 -0.11558191389E+03  0.80491941986E+02  0.31975156197E+03  0.34942333254E+03  0.41800000000E+01 0. -1.
</event>
<event>
11    1  0.8039394E-009  0.1616202E+03  0.7561462E-02  0.1085563E+00
         22   -1    0    0    0    0  0.00000000000E+00  0.00000000000E+00  0.18256688853E+03  0.18256688853E+03  0.00000000000E+00 0. -1.
         22   -1    0    0    0    0 -0.00000000000E+00 -0.00000000000E+00 -0.11814852262E+04  0.11814852262E+04  0.00000000000E+00 0. -1.
        -24    2    1    2    0    0 -0.65777545125E+02  0.77049894759E+02 -0.88665758703E+03  0.89598989387E+03  0.79830079288E+02 0.  0.
         25    2    1    2    0    0  0.12151570815E+03 -0.35133406447E+02 -0.24184569509E+03  0.30022446133E+03  0.12507982799E+03 0.  0.
         24    2    1    2    0    0 -0.55738163020E+02 -0.41916488312E+02  0.12958494442E+03  0.16783775955E+03  0.80706386995E+02 0.  0.
        -11    1    5    5    0    0 -0.13690014762E+02 -0.79607962957E+01 -0.96060666679E+01  0.18522075982E+02  0.00000000000E+00 0.  1.
         12    1    5    5    0    0 -0.42048148259E+02 -0.33955692016E+02  0.13919101109E+03  0.14931568357E+03  0.00000000000E+00 0. -1.
         11    1    3    3    0    0 -0.61100991784E+02  0.88635619214E+02 -0.63803098503E+03  0.64704956691E+03  0.00000000000E+00 0. -1.
        -12    1    3    3    0    0 -0.46765533407E+01 -0.11585724454E+02 -0.24862660200E+03  0.24894032695E+03  0.00000000000E+00 0.  1.
          5    1    4    4  501    0  0.14035642189E+03 -0.79417347873E+01 -0.21720630310E+03  0.25876446206E+03  0.41800000000E+01 0.  1.
         -5    1    4    4    0  501 -0.18840713741E+02 -0.27191671660E+02 -0.24639391991E+02  0.41459999272E+02  0.41800000000E+01 0.  1.
</event>
<event>
11    1  0.8039394E-009  0.1966173E+03  0.7561462E-02  0.1056942E+00
         22   -1    0    0    0    0  0.00000000000E+00  0.00000000000E+00  0.88789658729E+03  0.88789658729E+03  0.00000000000E+00 0. -1.
         22   -1    0    0    0    0 -0.00000000000E+00 -0.00000000000E+00 -0.28807917160E+03  0.28807917160E+03  0.00000000000E+00 0.  1.
         24    2    1    2    0    0  0.66558924505E+02 -0.13451031225E+03 -0.19732773554E+03  0.26073400706E+03  0.80751920656E+02 0.  0.
         25    2    1    2    0    0 -0.81438924860E+02  0.13934193202E+03  0.12770677476E+03  0.24084416832E+03  0.12509364730E+03 0.  0.
        -24    2    1    2    0    0  0.14880000355E+02 -0.48316197717E+01  0.66943837647E+03  0.67439758350E+03  0.80122417460E+02 0.  0.
        -13    1    3    3    0    0  0.80105925538E+02 -0.94767507813E+02 -0.11934483907E+03  0.17216570639E+03  0.00000000000E+00 0.  1.
         14    1    3    3    0    0 -0.13547001033E+02 -0.39742804435E+02 -0.77982896468E+02  0.88568300666E+02  0.00000000000E+00 0. -1.
         13    1    5    5    0    0  0.16537368752E+02 -0.31388591332E+02  0.58002214190E+03  0.58110619798E+03  0.00000000000E+00 0. -1.
        -14    1    5    5    0    0 -0.16573683970E+01  0.26556971560E+02  0.89416234575E+02  0.93291385530E+02  0.00000000000E+00 0.  1.
          5    1    4    4  501    0  0.15499225988E+02  0.94287206874E+02  0.45428590696E+02  0.10588452502E+03  0.41800000000E+01 0.  1.
         -5    1    4    4    0  501 -0.96938150848E+02  0.45054725145E+02  0.82278184060E+02  0.13495964330E+03  0.41800000000E+01 0.  1.
</event>
<event>
11    1  0.8039394E-009  0.1453422E+03  0.7561462E-02  0.1101735E+00
         22   -1    0    0    0    0  0.00000000000E+00  0.00000000000E+00  0.76907337380E+02  0.76907337380E+02  0.00000000000E+00 0. -1.
         22   -1    0    0    0    0 -0.00000000000E+00 -0.00000000000E+00 -0.79136435167E+03  0.79136435167E+03  0.00000000000E+00 0. -1.
         24    2    1    2    0    0  0.57443357023E+02 -0.45837499149E+02 -0.58515163322E+03  0.59533515883E+03  0.81367695568E+02 0.  0.
         25    2    1    2    0    0 -0.49466733486E+02  0.62004921481E+02 -0.11952955443E+03  0.19033165365E+03  0.12508899228E+03 0.  0.
        -24    2    1    2    0    0 -0.79766235364E+01 -0.16167422332E+02 -0.97758266388E+01  0.82604876572E+02  0.80018665192E+02 0.  0.
        -11    1    3    3    0    0  0.79349675587E+01  0.21944790863E+02 -0.83060957679E+02  0.86276649488E+02  0.00000000000E+00 0.  1.
         12    1    3    3    0    0  0.49508389464E+02 -0.67782290013E+02 -0.50209067554E+03  0.50905850934E+03  0.00000000000E+00 0. -1.
         11    1    5    5    0    0  0.12451683212E+02  0.82494479211E+01  0.28888033752E+02  0.32521013205E+02  0.00000000000E+00 0. -1.
        -12    1    5    5    0    0 -0.20428306748E+02 -0.24416870253E+02 -0.38663860390E+02  0.50083863368E+02  0.00000000000E+00 0.  1.
          5    1    4    4  501    0  0.21310138070E+02  0.68112527280E+02 -0.34282055821E+02  0.79285371339E+02  0.41800000000E+01 0.  1.
         -5    1    4    4    0  501 -0.70776871556E+02 -0.61076057986E+01 -0.85247498612E+02  0.11104628231E+03  0.41800000000E+01 0.  1.
</event>
<event>
11    1  0.8039394E-009  0.1569747E+03  0.7561462E-02  0.1089958E+00
         22   -1    0    0    0    0  0.00000000000E+00  0.00000000000E+00  0.57291519268E+03  0.57291519268E+03  0.00000000000E+00 0.  1.
         22   -1    0    0    0    0 -0.00000000000E+00 -0.00000000000E+00 -0.10638253215E+04  0.10638253215E+04  0.00000000000E+00 0. -1.
        -24    2    1    2    0    0 -0.32344627856E+02  0.59227692401E+02 -0.97702165106E+03  0.98288179869E+03  0.83254003205E+02 0.  0.
         25    2    1    2    0    0  0.74086982541E+02 -0.13696114382E+03  0.56123601216E+02  0.20747482077E+03  0.12509479102E+03 0.  0.
         24    2    1    2    0    0 -0.41742354686E+02  0.77733451420E+02  0.42998792101E+03  0.44638389474E+03  0.81142193844E+02 0.  0.
        -11    1    5    5    0    0  0.22060438752E+01  0.69011291612E+02  0.32467876206E+03  0.33193933713E+03  0.00000000000E+00 0.  1.
         12    1    5    5    0    0 -0.43948398561E+02  0.87221598086E+01  0.10530915895E+03  0.11444455761E+03  0.00000000000E+00 0. -1.
         13    1    3    3    0    0  0.15472139554E+02  0.54549426808E+02 -0.63065328261E+03  0.63319711775E+03  0.00000000000E+00 0. -1.
        -14    1    3    3    0    0 -0.47816767410E+02  0.46782655930E+01 -0.34636836846E+03  0.34968468094E+03  0.00000000000E+00 0.  1.
          5    1    4    4  501    0  0.76393455008E+02 -0.91763077271E+02  0.91002492303E+02  0.15018438109E+03  0.41800000000E+01 0.  1.
         -5    1    4    4    0  501 -0.23064724669E+01 -0.45198066551E+02 -0.34878891087E+02  0.57290439679E+02  0.41800000000E+01 0.  1.
</event>
<event>
11    1  0.8039394E-009  0.1544344E+03  0.7561462E-02  0.1092432E+00
         22   -1    0    0    0    0  0.00000000000E+00  0.00000000000E+00  0.12729702890E+04  0.12729702890E+04  0.00000000000E+00 0.  1.
         22   -1    0    0    0    0 -0.00000000000E+00 -0.00000000000E+00 -0.87989118525E+02  0.87989118525E+02  0.00000000000E+00 0.  1.
        -24    2    1    2    0    0 -0.72489694442E+02 -0.37660473223E+02 -0.20170763135E+02  0.11617681577E+03  0.80106964695E+02 0.  0.
         25    2    1    2    0    0  0.12117972874E+03 -0.33060346471E+02  0.51098210665E+03  0.54085801214E+03  0.12508861982E+03 0.  0.
         24    2    1    2    0    0 -0.48690034296E+02  0.70720819694E+02  0.69416982693E+03  0.70392457960E+03  0.79157509808E+02 0.  0.
        -11    1    5    5    0    0 -0.67070797293E+02  0.70408017322E+02  0.54266534551E+03  0.55130885896E+03  0.00000000000E+00 0.  1.
         12    1    5    5    0    0  0.18380762997E+02  0.31280237188E+00  0.15150448142E+03  0.15261572063E+03  0.00000000000E+00 0. -1.
         11    1    3    3    0    0 -0.50442285174E+02 -0.30830469167E+02  0.25981044847E+02  0.64575201540E+02  0.00000000000E+00 0. -1.
        -12    1    3    3    0    0 -0.22047409268E+02 -0.68300040561E+01 -0.46151807982E+02  0.51601614227E+02  0.00000000000E+00 0.  1.
          5    1    4    4  501    0  0.43571686962E+02  0.54498373250E+01  0.33047378895E+02  0.55116188942E+02  0.41800000000E+01 0. -1.
         -5    1    4    4    0  501  0.77608041775E+02 -0.38510183796E+02  0.47793472776E+03  0.48574182319E+03  0.41800000000E+01 0. -1.
</event>
<event>
11    1  0.8039394E-009  0.1960765E+03  0.7561462E-02  0.1057333E+00
         22   -1    0    0    0    0  0.00000000000E+00  0.00000000000E+00  0.11441154749E+04  0.11441154749E+04  0.00000000000E+00 0.  1.
         22   -1    0    0    0    0 -0.00000000000E+00 -0.00000000000E+00 -0.44095218721E+03  0.44095218721E+03  0.00000000000E+00 0.  1.
         24    2    1    2    0    0 -0.14199050760E+03 -0.34490035549E+02 -0.31330987486E+03  0.35500420274E+03  0.80709599639E+02 0.  0.
         25    2    1    2    0    0  0.15102599992E+03  0.14002989324E+03  0.39061263177E+02  0.24410987354E+03  0.12508646781E+03 0.  0.
        -24    2    1    2    0    0 -0.90354923158E+01 -0.10553985769E+03  0.97741189942E+03  0.98595358588E+03  0.74499333578E+02 0.  0.
        -11    1    3    3    0    0 -0.82489043678E+02  0.20062967459E+02 -0.18271935420E+03  0.20147785831E+03  0.00000000000E+00 0.  1.
         12    1    3    3    0    0 -0.59501463923E+02 -0.54553003008E+02 -0.13059052066E+03  0.15352634443E+03  0.00000000000E+00 0. -1.
         13    1    5    5    0    0  0.28503031373E+02 -0.76361492999E+02  0.57688463708E+03  0.58261426769E+03  0.00000000000E+00 0. -1.
        -14    1    5    5    0    0 -0.37538523689E+02 -0.29178364691E+02  0.40052726234E+03  0.40333931820E+03  0.00000000000E+00 0.  1.
          5    1    4    4  501    0  0.11332738221E+03  0.16152789557E+03  0.32522062173E+02  0.20002378242E+03  0.41800000000E+01 0.  1.
         -5    1    4    4    0  501  0.37698617705E+02 -0.21498002327E+02  0.65392010033E+01  0.44086091125E+02  0.41800000000E+01 0.  1.
</event>
<event>
11    1  0.8039394E-009  0.1369666E+03  0.7561462E-02  0.1110994E+00
         22   -1    0    0    0    0  0.00000000000E+00  0.00000000000E+00  0.12539747472E+04  0.12539747472E+04  0.00000000000E+00 0.  1.
         22   -1    0    0    0    0 -0.00000000000E+00 -0.00000000000E+00 -0.46913166382E+03  0.46913166382E+03  0.00000000000E+00 0. -1.
        -24    2    1    2    0    0 -0.24216462543E+02  0.49736105961E+02 -0.44123025442E+03  0.45138053825E+03  0.77460542214E+02 0.  0.
         25    2    1    2    0    0  0.43242351173E+02 -0.68012427742E+02  0.24227633080E+03  0.28432566719E+03  0.12509066029E+03 0.  0.
         24    2    1    2    0    0 -0.19025888630E+02  0.18276321781E+02  0.98379700698E+03  0.98740020557E+03  0.80041280857E+02 0.  0.
        -13    1    5    5    0    0  0.10715628441E+02  0.72211543052E+00  0.81674828638E+03  0.81681889636E+03  0.00000000000E+00 0.  1.
         14    1    5    5    0    0 -0.29741517071E+02  0.17554206351E+02  0.16704872060E+03  0.17058130921E+03  0.00000000000E+00 0. -1.
         13    1    3    3    0    0 -0.21542243672E+02  0.60429748284E+02 -0.43273258316E+03  0.43746235412E+03  0.00000000000E+00 0. -1.
        -14    1    3    3    0    0 -0.26742188714E+01 -0.10693642323E+02 -0.84976712573E+01  0.13918184131E+02  0.00000000000E+00 0.  1.
          5    1    4    4  501    0  0.26856739456E+01  0.32618728146E+02  0.24882447645E+02  0.41325571638E+02  0.41800000000E+01 0. -1.
         -5    1    4    4    0  501  0.40556677227E+02 -0.10063115589E+03  0.21739388316E+03  0.24300009555E+03  0.41800000000E+01 0. -1.
</event>
<event>
11    1  0.8039394E-009  0.2313034E+03  0.7561462E-02  0.1034359E+00
         22   -1    0    0    0    0  0.00000000000E+00  0.00000000000E+00  0.55245860931E+03  0.55245860931E+03  0.00000000000E+00 0.  1.
         22   -1    0    0    0    0 -0.00000000000E+00 -0.00000000000E+00 -0.12888823058E+04  0.12888823058E+04  0.00000000000E+00 0. -1.
         24    2    1    2    0    0  0.53981375727E+02  0.41194233651E+01 -0.10761767294E+04  0.10803538832E+04  0.77956407275E+02 0.  0.
         25    2    1    2    0    0 -0.15787231519E+00 -0.19224660461E+03 -0.11711438661E+03  0.25753140323E+03  0.12509141533E+03 0.  0.
        -24    2    1    2    0    0 -0.53823503412E+02  0.18812718124E+03  0.45686741950E+03  0.50345562873E+03  0.80317652214E+02 0.  0.
        -11    1    3    3    0    0  0.17057861380E+02 -0.31219247770E+02 -0.67466569922E+03  0.67560300308E+03  0.00000000000E+00 0.  1.
         12    1    3    3    0    0  0.36923514347E+02  0.35338671135E+02 -0.40151103017E+03  0.40475088009E+03  0.00000000000E+00 0. -1.
         11    1    5    5    0    0 -0.13465314306E+02  0.25554009646E+02  0.18823790465E+02  0.34476908009E+02  0.00000000000E+00 0. -1.
        -12    1    5    5    0    0 -0.40358189106E+02  0.16257317159E+03  0.43804362903E+03  0.46897872072E+03  0.00000000000E+00 0.  1.
          5    1    4    4  501    0 -0.52603002087E+02 -0.41141682800E+02 -0.17898002008E+02  0.69264166552E+02  0.41800000000E+01 0. -1.
         -5    1    4    4    0  501  0.52445129772E+02 -0.15110492181E+03 -0.99216384605E+02  0.18826723667E+03  0.41800000000E+01 0. -1.
</event>
<event>
11    1  0.8039394E-009  0.3622125E+03  0.7561462E-02  0.9768341E-01
         22   -1    0    0    0    0  0.00000000000E+00  0.00000000000E+00  0.79707411430E+03  0.79707411430E+03  0.00000000000E+00 0.  1.
         22   -1    0    0    0    0 -0.00000000000E+00 -0.00000000000E+00 -0.14669759807E+04  0.14669759807E+04  0.00000000000E+00 0.  1.
        -24    2    1    2    0    0  0.30343019393E+03  0.15612153021E+03 -0.13737606605E+04  0.14176600501E+04  0.78088735586E+02 0.  0.
         25    2    1    2    0    0 -0.24342675036E+03 -0.20576327574E+03  0.42434146972E+03  0.54526080930E+03  0.12509419969E+03 0.  0.
         24    2    1    2    0    0 -0.60003443564E+02  0.49641745530E+02  0.27951732429E+03  0.30112923564E+03  0.80524318325E+02 0.  0.
        -13    1    5    5    0    0  0.18424976454E+02  0.21633257981E+02  0.61502019696E+02  0.67749361878E+02  0.00000000000E+00 0.  1.
         14    1    5    5    0    0 -0.78428420018E+02  0.28008487549E+02  0.21801530460E+03  0.23337987377E+03  0.00000000000E+00 0. -1.
         13    1    3    3    0    0  0.94754233657E+02  0.79657905815E+02 -0.39304269922E+03  0.41207561220E+03  0.00000000000E+00 0. -1.
        -14    1    3    3    0    0  0.20867596027E+03  0.76463624400E+02 -0.98071796124E+03  0.10055844379E+04  0.00000000000E+00 0.  1.
          5    1    4    4  501    0 -0.15827583329E+03 -0.13700216750E+03  0.36474893635E+03  0.42057115008E+03  0.41800000000E+01 0. -1.
         -5    1    4    4    0  501 -0.85150917073E+02 -0.68761108241E+02  0.59592533370E+02  0.12468965923E+03  0.41800000000E+01 0. -1.
</event>
<event>
11    1  0.8039394E-009  0.1906969E+03  0.7561462E-02  0.1061304E+00
         22   -1    0    0    0    0  0.00000000000E+00  0.00000000000E+00  0.78581501347E+03  0.78581501347E+03  0.00000000000E+00 0.  1.
         22   -1    0    0    0    0 -0.00000000000E+00 -0.00000000000E+00 -0.54913088433E+03  0.54913088433E+03  0.00000000000E+00 0.  1.
         24    2    1    2    0    0  0.85326100905E+02  0.11574728891E+03 -0.49600739647E+03  0.52287992348E+03  0.81866346216E+02 0.  0.
         25    2    1    2    0    0 -0.13003156478E+03 -0.85707972384E+02  0.25162252275E+03  0.32127745871E+03  0.12510494455E+03 0.  0.
        -24    2    1    2    0    0  0.44705463877E+02 -0.30039316525E+02  0.48106900286E+03  0.49078851560E+03  0.80901436938E+02 0.  0.
        -13    1    3    3    0    0  0.47613622851E+02  0.10064392162E+03 -0.43886979987E+03  0.45277252267E+03  0.00000000000E+00 0.  1.
         14    1    3    3    0    0  0.37712478054E+02  0.15103367288E+02 -0.57137596596E+02  0.70107400817E+02  0.00000000000E+00 0. -1.
         11    1    5    5    0    0  0.11871948445E+02 -0.54795482568E+02  0.27562580007E+03  0.28127045656E+03  0.00000000000E+00 0. -1.
        -12    1    5    5    0    0  0.32833515431E+02  0.24756166042E+02  0.20544320279E+03  0.20951805904E+03  0.00000000000E+00 0.  1.
          5    1    4    4  501    0 -0.76223406031E+02  0.17552558960E+02  0.67578865642E+02  0.10345276910E+03  0.41800000000E+01 0.  1.
         -5    1    4    4    0  501 -0.53808158751E+02 -0.10326053134E+03  0.18404365711E+03  0.21782468961E+03  0.41800000000E+01 0.  1.
</event>
<event>
11    1  0.8039394E-009  0.2347707E+03  0.7561462E-02  0.1032340E+00
         22   -1    0    0    0    0  0.00000000000E+00  0.00000000000E+00  0.27872747590E+04  0.27872747590E+04  0.00000000000E+00 0.  1.
         22   -1    0    0    0    0 -0.00000000000E+00 -0.00000000000E+00 -0.27467176480E+03  0.27467176480E+03  0.00000000000E+00 0. -1.
         24    2    1    2    0    0 -0.17452050000E+02 -0.79406357253E+01 -0.21023923253E+03  0.22352308381E+03  0.73446622473E+02 0.  0.
         25    2    1    2    0    0  0.20862487163E+03  0.56299446164E+02  0.23932197501E+03  0.34585532687E+03  0.12508770803E+03 0.  0.
        -24    2    1    2    0    0 -0.19117282163E+03 -0.48358810438E+02  0.24835202517E+04  0.24925681131E+04  0.78341148253E+02 0.  0.
        -11    1    3    3    0    0  0.21221597627E+02  0.17229125892E+02 -0.52729277283E+02  0.59393397509E+02  0.00000000000E+00 0.  1.
         12    1    3    3    0    0 -0.38673647628E+02 -0.25169761618E+02 -0.15750995525E+03  0.16412968630E+03  0.00000000000E+00 0. -1.
         13    1    5    5    0    0 -0.53428313220E+02 -0.50585866619E+02  0.97366527124E+03  0.97644128087E+03  0.00000000000E+00 0. -1.
        -14    1    5    5    0    0 -0.13774450841E+03  0.22270561804E+01  0.15098549804E+04  0.15161268322E+04  0.00000000000E+00 0.  1.
          5    1    4    4  501    0  0.13860993255E+03  0.80868170575E+02  0.21362903720E+03  0.26722127975E+03  0.41800000000E+01 0. -1.
         -5    1    4    4    0  501  0.70014939079E+02 -0.24568724411E+02  0.25692937804E+02  0.78634047120E+02  0.41800000000E+01 0. -1.
</event>
<event>
11    1  0.8039394E-009  0.1356123E+03  0.7561462E-02  0.1112559E+00
         22   -1    0    0    0    0  0.00000000000E+00  0.00000000000E+00  0.10146205706E+03  0.10146205706E+03  0.00000000000E+00 0.  1.
         22   -1    0    0    0    0 -0.00000000000E+00 -0.00000000000E+00 -0.78782723344E+03  0.78782723344E+03  0.00000000000E+00 0. -1.
         24    2    1    2    0    0  0.75449368202E+01  0.12028477341E+02 -0.65074279236E+03  0.65614809504E+03  0.82840391547E+02 0.  0.
         25    2    1    2    0    0 -0.41393554439E+02  0.29750900023E+02 -0.34633645414E+02  0.13945109720E+03  0.12509427131E+03 0.  0.
        -24    2    1    2    0    0  0.33848617618E+02 -0.41779377364E+02 -0.98873860892E+00  0.93690098270E+02  0.76717739944E+02 0.  0.
        -11    1    3    3    0    0 -0.32854328826E+02 -0.97529311783E+01 -0.18485964012E+03  0.18800960915E+03  0.00000000000E+00 0.  1.
         12    1    3    3    0    0  0.40399265646E+02  0.21781408520E+02 -0.46588315224E+03  0.46813848588E+03  0.00000000000E+00 0. -1.
         11    1    5    5    0    0  0.88355951630E+01 -0.73703494582E+01 -0.36503605449E+02  0.38274051312E+02  0.00000000000E+00 0. -1.
        -12    1    5    5    0    0  0.25013022455E+02 -0.34409027906E+02  0.35514866840E+02  0.55416046958E+02  0.00000000000E+00 0.  1.
          5    1    4    4  501    0 -0.15185736609E+02 -0.45192023829E+02 -0.36080067306E+02  0.59934708400E+02  0.41800000000E+01 0.  1.
         -5    1    4    4    0  501 -0.26207817829E+02  0.74942923852E+02  0.14464218924E+01  0.79516388796E+02  0.41800000000E+01 0.  1.
</event>
<event>
11    1  0.8039394E-009  0.3330542E+03  0.7561462E-02  0.9870975E-01
         22   -1    0    0    0    0  0.00000000000E+00  0.00000000000E+00  0.50474277788E+03  0.50474277788E+03  0.00000000000E+00 0. -1.
         22   -1    0    0    0    0 -0.00000000000E+00 -0.00000000000E+00 -0.47917448425E+03  0.47917448425E+03  0.00000000000E+00 0. -1.
         24    2    1    2    0    0 -0.23740664429E+03  0.13229233732E+03 -0.79643148261E+02  0.29445196012E+03  0.80596206395E+02 0.  0.
         25    2    1    2    0    0  0.21615891178E+03 -0.35198921006E+03 -0.17335348175E+01  0.43158953844E+03  0.12508175491E+03 0.  0.
        -24    2    1    2    0    0  0.21247732507E+02  0.21969687274E+03  0.10694497670E+03  0.25787576357E+03  0.79652365711E+02 0.  0.
        -11    1    3    3    0    0 -0.34240704934E+02  0.45635452662E+02 -0.40915037932E+02  0.70207269873E+02  0.00000000000E+00 0.  1.
         12    1    3    3    0    0 -0.20316593936E+03  0.86656884657E+02 -0.38728110329E+02  0.22424469024E+03  0.00000000000E+00 0. -1.
         11    1    5    5    0    0  0.29295741589E+02  0.13782270897E+03  0.10475817155E+03  0.17557794306E+03  0.00000000000E+00 0. -1.
        -12    1    5    5    0    0 -0.80480090826E+01  0.81874163768E+02  0.21868051575E+01  0.82297820504E+02  0.00000000000E+00 0.  1.
          5    1    4    4  501    0  0.96840466879E+01  0.23677822103E+00 -0.20284239282E+02  0.22863936394E+02  0.41800000000E+01 0. -1.
         -5    1    4    4    0  501  0.20647486510E+03 -0.35222598828E+03  0.18550704464E+02  0.40872560205E+03  0.41800000000E+01 0. -1.
</event>
<event>
11    1  0.8039394E-009  0.1816638E+03  0.7561462E-02  0.1068305E+00
         22   -1    0    0    0    0  0.00000000000E+00  0.00000000000E+00  0.60032373125E+03  0.60032373125E+03  0.00000000000E+00 0.  1.
         22   -1    0    0    0    0 -0.00000000000E+00 -0.00000000000E+00 -0.53830001719E+03  0.53830001719E+03  0.00000000000E+00 0. -1.
        -24    2    1    2    0    0  0.66258019269E+02  0.11207563311E+03 -0.43626340234E+03  0.46572155988E+03  0.98080285797E+02 0.  0.
         25    2    1    2    0    0 -0.16830310087E+03 -0.68352881362E+02  0.83193679473E+02  0.23572665546E+03  0.12509123725E+03 0.  0.
         24    2    1    2    0    0  0.10204508160E+03 -0.43722751750E+02  0.41509343692E+03  0.43717553311E+03  0.80591610425E+02 0.  0.
        -11    1    5    5    0    0  0.19059052660E+02  0.23084218797E+02  0.11074598955E+03  0.11472054239E+03  0.00000000000E+00 0.  1.
         12    1    5    5    0    0  0.82986028940E+02 -0.66806970547E+02  0.30434744737E+03  0.32245499071E+03  0.00000000000E+00 0. -1.
         11    1    3    3    0    0  0.79625343283E+02  0.73496077855E+02 -0.38623073286E+03  0.40114342542E+03  0.00000000000E+00 0. -1.
        -12    1    3    3    0    0 -0.13367324014E+02  0.38579555258E+02 -0.50032669484E+02  0.64578134464E+02  0.00000000000E+00 0.  1.
          5    1    4    4  501    0 -0.14348161352E+03 -0.37763619417E+02  0.11267212430E+03  0.18634791215E+03  0.41800000000E+01 0.  1.
         -5    1    4    4    0  501 -0.24821487352E+02 -0.30589261945E+02 -0.29478444831E+02  0.49378743305E+02  0.41800000000E+01 0.  1.
</event>
<event>
11    1  0.8039394E-009  0.1758623E+03  0.7561462E-02  0.1073040E+00
         22   -1    0    0    0    0  0.00000000000E+00  0.00000000000E+00  0.38438870357E+03  0.38438870357E+03  0.00000000000E+00 0. -1.
         22   -1    0    0    0    0 -0.00000000000E+00 -0.00000000000E+00 -0.26180186791E+03  0.26180186791E+03  0.00000000000E+00 0.  1.
        -24    2    1    2    0    0 -0.42250299268E+01  0.12332798319E+03 -0.18019988941E+03  0.23242599305E+03  0.79512261866E+02 0.  0.
         25    2    1    2    0    0  0.17587552559E+02 -0.12434648481E+03  0.12120909487E+03  0.21473393471E+03  0.12509055819E+03 0.  0.
         24    2    1    2    0    0 -0.13362522633E+02  0.10185016171E+01  0.18157763020E+03  0.19903064373E+03  0.80393824381E+02 0.  0.
        -13    1    5    5    0    0 -0.41525134788E+02  0.77214998970E+01  0.55903823659E+02  0.70065654065E+02  0.00000000000E+00 0.  1.
         14    1    5    5    0    0  0.28162612156E+02 -0.67029982799E+01  0.12567380654E+03  0.12896498967E+03  0.00000000000E+00 0. -1.
         13    1    3    3    0    0  0.30144072305E+01  0.71709539554E+01  0.79932202782E+01  0.11153510748E+02  0.00000000000E+00 0. -1.
        -14    1    3    3    0    0 -0.72394371573E+01  0.11615702924E+03 -0.18819310968E+03  0.22127248230E+03  0.00000000000E+00 0.  1.
          5    1    4    4  501    0  0.46591584876E+02  0.71271460688E+00  0.18644637771E+02  0.50362472745E+02  0.41800000000E+01 0. -1.
         -5    1    4    4    0  501 -0.29004032317E+02 -0.12505919941E+03  0.10256445710E+03  0.16437146196E+03  0.41800000000E+01 0. -1.
</event>
<event>
11    1  0.8039394E-009  0.2054067E+03  0.7561462E-02  0.1050765E+00
         22   -1    0    0    0    0  0.00000000000E+00  0.00000000000E+00  0.10892736028E+04  0.10892736028E+04  0.00000000000E+00 0.  1.
         22   -1    0    0    0    0 -0.00000000000E+00 -0.00000000000E+00 -0.61994111367E+03  0.61994111367E+03  0.00000000000E+00 0.  1.
         24    2    1    2    0    0  0.10797598933E+03  0.15655785211E+03 -0.50006384809E+03  0.54070994355E+03  0.78321233164E+02 0.  0.
         25    2    1    2    0    0  0.42438146591E+01 -0.92715034958E+02 -0.29183407905E+02  0.15847014958E+03  0.12508808633E+03 0.  0.
        -24    2    1    2    0    0 -0.11221980399E+03 -0.63842817149E+02  0.99857974509E+03  0.10100346233E+04  0.79619364890E+02 0.  0.
        -11    1    3    3    0    0  0.18684978997E+01  0.65203667714E+02 -0.17562074918E+03  0.18734368714E+03  0.00000000000E+00 0.  1.
         12    1    3    3    0    0  0.10610749143E+03  0.91354184393E+02 -0.32444309891E+03  0.35336625642E+03  0.00000000000E+00 0. -1.
         11    1    5    5    0    0 -0.72548944389E+02 -0.80320141834E+02  0.75022853916E+03  0.75799573580E+03  0.00000000000E+00 0. -1.
        -12    1    5    5    0    0 -0.39670859603E+02  0.16477324685E+02  0.24835120593E+03  0.25203888751E+03  0.00000000000E+00 0.  1.
          5    1    4    4  501    0  0.34127890296E+02 -0.11166842198E+03 -0.35850353654E+02  0.12221812313E+03  0.41800000000E+01 0.  1.
         -5    1    4    4    0  501 -0.29884075637E+02  0.18953387023E+02  0.66669457495E+01  0.36252026453E+02  0.41800000000E+01 0.  1.
</event>
<event>
11    1  0.8039394E-009  0.1297113E+03  0.7561462E-02  0.1119624E+00
         22   -1    0    0    0    0  0.00000000000E+00  0.00000000000E+00  0.12027043089E+04  0.12027043089E+04  0.00000000000E+00 0.  1.
         22   -1    0    0    0    0 -0.00000000000E+00 -0.00000000000E+00 -0.17774103983E+03  0.17774103983E+03  0.00000000000E+00 0. -1.
        -24    2    1    2    0    0  0.14466728332E+02 -0.31037645545E+02 -0.15164213803E+03  0.17435920930E+03  0.78950453903E+02 0.  0.
         25    2    1    2    0    0 -0.12538572376E+02  0.33961541127E+02  0.31676865917E+03  0.34249261155E+03  0.12509277942E+03 0.  0.
         24    2    1    2    0    0 -0.19281559560E+01 -0.29238955820E+01  0.85983674798E+03  0.86359352792E+03  0.80388315976E+02 0.  0.
        -11    1    5    5    0    0 -0.32071825369E+01  0.24352571799E+00  0.86015665346E+03  0.86016266707E+03  0.00000000000E+00 0.  1.
         12    1    5    5    0    0  0.12790265809E+01 -0.31674213000E+01 -0.31990548261E+00  0.34308608547E+01  0.00000000000E+00 0. -1.
         13    1    3    3    0    0  0.17090913844E+02  0.24208998190E+02 -0.66837964087E+02  0.73112846837E+02  0.00000000000E+00 0. -1.
        -14    1    3    3    0    0 -0.26241855116E+01 -0.55246643735E+02 -0.84804173948E+02  0.10124636247E+03  0.00000000000E+00 0.  1.
          5    1    4    4  501    0 -0.28955776146E+01  0.38775670180E+02  0.17236807857E+02  0.42737769160E+02  0.41800000000E+01 0.  1.
         -5    1    4    4    0  501 -0.96429947619E+01 -0.48141290529E+01  0.29953185131E+03  0.29975484239E+03  0.41800000000E+01 0.  1.
</event>
<event>
11    1  0.8039394E-009  0.1668462E+03  0.7561462E-02  0.1080809E+00
         22   -1    0    0    0    0  0.00000000000E+00  0.00000000000E+00  0.45980831385E+03  0.45980831385E+03  0.00000000000E+00 0. -1.
         22   -1    0    0    0    0 -0.00000000000E+00 -0.00000000000E+00 -0.52603676669E+03  0.52603676669E+03  0.00000000000E+00 0. -1.
        -24    2    1    2    0    0 -0.99236949779E+02  0.45711844841E+02 -0.46838266031E+03  0.48770898729E+03  0.80871471168E+02 0.  0.
         25    2    1    2    0    0  0.13674050444E+03 -0.31642646674E+02  0.19051334869E+03  0.26766176853E+03  0.12509302003E+03 0.  0.
         24    2    1    2    0    0 -0.37503554660E+02 -0.14069198167E+02  0.21164085878E+03  0.23047432472E+03  0.81988427838E+02 0.  0.
        -11    1    5    5    0    0 -0.54683646885E+01 -0.27688041726E+02  0.17436092009E+02  0.33174507857E+02  0.00000000000E+00 0.  1.
         12    1    5    5    0    0 -0.32035189971E+02  0.13618843559E+02  0.19420476677E+03  0.19729981686E+03  0.00000000000E+00 0. -1.
         13    1    3    3    0    0 -0.90671362941E+02  0.54497781896E+02 -0.28640439201E+03  0.30531750695E+03  0.00000000000E+00 0. -1.
        -14    1    3    3    0    0 -0.85655868378E+01 -0.87859370556E+01 -0.18197826830E+03  0.18239148034E+03  0.00000000000E+00 0.  1.
          5    1    4    4  501    0  0.10245981414E+03 -0.61482354033E+02  0.69426899631E+02  0.13825939449E+03  0.41800000000E+01 0. -1.
         -5    1    4    4    0  501  0.34280690300E+02  0.29839707359E+02  0.12108644906E+03  0.12940237404E+03  0.41800000000E+01 0. -1.
</event>
<event>
11    1  0.8039394E-009  0.1407417E+03  0.7561462E-02  0.1106733E+00
         22   -1    0    0    0    0  0.00000000000E+00  0.00000000000E+00  0.12222533733E+04  0.12222533733E+04  0.00000000000E+00 0.  1.
         22   -1    0    0    0    0 -0.00000000000E+00 -0.00000000000E+00 -0.13019741593E+03  0.13019741593E+03  0.00000000000E+00 0. -1.
         24    2    1    2    0    0  0.81108715582E+01 -0.64762895751E+02 -0.78993563835E+02  0.12984400195E+03  0.79746240112E+02 0.  0.
         25    2    1    2    0    0 -0.34282301316E+02  0.53794109779E+02  0.18348356590E+03  0.23104703718E+03  0.12508969582E+03 0.  0.
        -24    2    1    2    0    0  0.26171429757E+02  0.10968785972E+02  0.98756595534E+03  0.99155975014E+03  0.84255349706E+02 0.  0.
        -13    1    3    3    0    0 -0.17807621380E+01 -0.44726771773E+01  0.16105957962E+02  0.16810051659E+02  0.00000000000E+00 0.  1.
         14    1    3    3    0    0  0.98916336962E+01 -0.60290218574E+02 -0.95099521797E+02  0.11303395029E+03  0.00000000000E+00 0. -1.
         13    1    5    5    0    0  0.12492743883E+02 -0.50619397173E+01  0.22254877841E+02  0.26018675430E+02  0.00000000000E+00 0. -1.
        -14    1    5    5    0    0  0.13678685874E+02  0.16030725690E+02  0.96531107750E+03  0.96554107471E+03  0.00000000000E+00 0.  1.
          5    1    4    4  501    0 -0.54976633779E+02 -0.23376989233E+01  0.15524262954E+03  0.16475934427E+03  0.41800000000E+01 0. -1.
         -5    1    4    4    0  501  0.20694332463E+02  0.56131808702E+02  0.28240936364E+02  0.66287692908E+02  0.41800000000E+01 0. -1.
</event>
<event>
11    1  0.8039394E-009  0.1723686E+03  0.7561462E-02  0.1075989E+00
         22   -1    0    0    0    0  0.00000000000E+00  0.00000000000E+00  0.54764033188E+03  0.54764033188E+03  0.00000000000E+00 0. -1.
         22   -1    0    0    0    0 -0.00000000000E+00 -0.00000000000E+00 -0.27648089917E+03  0.27648089917E+03  0.00000000000E+00 0.  1.
         24    2    1    2    0    0  0.96702076259E+02 -0.50768541505E+02 -0.16358950866E+03  0.21231518425E+03  0.79921672669E+02 0.  0.
         25    2    1    2    0    0  0.69577848868E+01  0.12125175313E+03  0.25407083551E+02  0.17619258172E+03  0.12509159664E+03 0.  0.
        -24    2    1    2    0    0 -0.10365986115E+03 -0.70483211621E+02  0.40934185781E+03  0.43561346508E+03  0.80530022158E+02 0.  0.
        -11    1    3    3    0    0  0.20209207307E+02 -0.10382209037E+02 -0.10597756048E+03  0.10838563396E+03  0.00000000000E+00 0.  1.
         12    1    3    3    0    0  0.76492868952E+02 -0.40386332468E+02 -0.57611948179E+02  0.10392955029E+03  0.00000000000E+00 0. -1.
         13    1    5    5    0    0 -0.10570544834E+03 -0.75253460778E+02  0.41030589385E+03  0.43033434873E+03  0.00000000000E+00 0. -1.
        -14    1    5    5    0    0  0.20455871969E+01  0.47702491569E+01 -0.96403603466E+00  0.52791163537E+01  0.00000000000E+00 0.  1.
          5    1    4    4  501    0 -0.11967900232E+02  0.13719473099E+03  0.44359127039E+02  0.14474401334E+03  0.41800000000E+01 0.  1.
         -5    1    4    4    0  501  0.18925685119E+02 -0.15942977863E+02 -0.18952043488E+02  0.31448568373E+02  0.41800000000E+01 0.  1.
</event>
<event>
11    1  0.8039394E-009  0.1568747E+03  0.7561462E-02  0.1090054E+00
         22   -1    0    0    0    0  0.00000000000E+00  0.00000000000E+00  0.44357073128E+03  0.44357073128E+03  0.00000000000E+00 0.  1.
         22   -1    0    0    0    0 -0.00000000000E+00 -0.00000000000E+00 -0.82104538776E+03  0.82104538776E+03  0.00000000000E+00 0.  1.
        -24    2    1    2    0    0 -0.94882959709E+02  0.13052169605E+02 -0.76497202034E+03  0.77512984898E+03  0.80442250711E+02 0.  0.
         25    2    1    2    0    0  0.57980488433E+02 -0.59520700280E+02  0.88348773324E+02  0.17423327090E+03  0.12508907283E+03 0.  0.
         24    2    1    2    0    0  0.36902471276E+02  0.46468530675E+02  0.29914859053E+03  0.31525299916E+03  0.79833937209E+02 0.  0.
        -11    1    5    5    0    0  0.55272438586E+02  0.55854783521E+02  0.24578634441E+03  0.25804210200E+03  0.00000000000E+00 0.  1.
         12    1    5    5    0    0 -0.18369967310E+02 -0.93862528467E+01  0.53362246129E+02  0.57210897156E+02  0.00000000000E+00 0. -1.
         11    1    3    3    0    0 -0.42762487106E+01  0.28852175809E+02 -0.11305645983E+03  0.11675828647E+03  0.00000000000E+00 0. -1.
        -12    1    3    3    0    0 -0.90606710998E+02 -0.15800006204E+02 -0.65191556051E+03  0.65837156250E+03  0.00000000000E+00 0.  1.
          5    1    4    4  501    0 -0.25643463799E+02  0.21437858937E+00 -0.13675576576E+02  0.29361999054E+02  0.41800000000E+01 0.  1.
         -5    1    4    4    0  501  0.83623952232E+02 -0.59735078869E+02  0.10202434990E+03  0.14487127185E+03  0.41800000000E+01 0.  1.
</event>
<event>
11    1  0.8039394E-009  0.4150779E+03  0.7561462E-02  0.9606288E-01
         22   -1    0    0    0    0  0.00000000000E+00  0.00000000000E+00  0.84175263970E+03  0.84175263970E+03  0.00000000000E+00 0. -1.
         22   -1    0    0    0    0 -0.00000000000E+00 -0.00000000000E+00 -0.43630778014E+03  0.43630778014E+03  0.00000000000E+00 0. -1.
        -24    2    1    2    0    0 -0.44125734275E+02  0.36952865333E+03 -0.14125449189E+03  0.40594286570E+03  0.79613269460E+02 0.  0.
         25    2    1    2    0    0 -0.41145252927E+02 -0.48648440786E+03  0.34321454748E+03  0.60975737579E+03  0.12509124988E+03 0.  0.
         24    2    1    2    0    0  0.85270987201E+02  0.11695575453E+03  0.20348480397E+03  0.26236017835E+03  0.80479860608E+02 0.  0.
        -11    1    5    5    0    0  0.85031518938E+02  0.50259072991E+02  0.11615845101E+03  0.15247661910E+03  0.00000000000E+00 0.  1.
         12    1    5    5    0    0  0.23946826350E+00  0.66696681538E+02  0.87326352964E+02  0.10988355926E+03  0.00000000000E+00 0. -1.
         13    1    3    3    0    0 -0.18913761294E+02  0.12319656914E+03 -0.83698740176E+01  0.12492069406E+03  0.00000000000E+00 0. -1.
        -14    1    3    3    0    0 -0.25211972981E+02  0.24633208420E+03 -0.13288461787E+03  0.28102217164E+03  0.00000000000E+00 0.  1.
          5    1    4    4  501    0 -0.15646109355E+02 -0.29242902389E+02  0.67163181881E+02  0.75022086605E+02  0.41800000000E+01 0.  1.
         -5    1    4    4    0  501 -0.25499143571E+02 -0.45724150547E+03  0.27605136559E+03  0.53473528918E+03  0.41800000000E+01 0.  1.
</event>
<event>
11    1  0.8039394E-009  0.1570009E+03  0.7561462E-02  0.1089932E+00
         22   -1    0    0    0    0  0.00000000000E+00  0.00000000000E+00  0.10918219647E+04  0.10918219647E+04  0.00000000000E+00 0.  1.
         22   -1    0    0    0    0 -0.00000000000E+00 -0.00000000000E+00 -0.10731191148E+03  0.10731191148E+03  0.00000000000E+00 0. -1.
        -24    2    1    2    0    0 -0.83749993860E+02  0.48375429822E+02 -0.46237537992E+02  0.13320431338E+03  0.79064755121E+02 0.  0.
         25    2    1    2    0    0  0.87334714505E+02 -0.11821337653E+01  0.40409502106E+03  0.43193786325E+03  0.12509509131E+03 0.  0.
         24    2    1    2    0    0 -0.35847206449E+01 -0.47193296057E+02  0.62665257017E+03  0.63399169957E+03  0.83737530446E+02 0.  0.
        -11    1    5    5    0    0  0.29186127926E+02  0.12567612945E+01  0.35034277153E+03  0.35155862538E+03  0.00000000000E+00 0.  1.
         12    1    5    5    0    0 -0.32770848571E+02 -0.48450057351E+02  0.27630979864E+03  0.28243307420E+03  0.00000000000E+00 0. -1.
         11    1    3    3    0    0 -0.40666099762E+02  0.57255523782E+02 -0.53931781907E+02  0.88546958012E+02  0.00000000000E+00 0. -1.
        -12    1    3    3    0    0 -0.43083894098E+02 -0.88800939601E+01  0.76942439149E+01  0.44657355372E+02  0.00000000000E+00 0.  1.
          5    1    4    4  501    0  0.71021679374E+02 -0.41562490859E+02  0.36187737627E+03  0.37113909447E+03  0.41800000000E+01 0. -1.
         -5    1    4    4    0  501  0.16313035131E+02  0.40380357094E+02  0.42217644793E+02  0.60798768788E+02  0.41800000000E+01 0. -1.
</event>
<event>
11    1  0.8039394E-009  0.1329040E+03  0.7561462E-02  0.1115751E+00
         22   -1    0    0    0    0  0.00000000000E+00  0.00000000000E+00  0.66488430686E+03  0.66488430686E+03  0.00000000000E+00 0. -1.
         22   -1    0    0    0    0 -0.00000000000E+00 -0.00000000000E+00 -0.47186375399E+03  0.47186375399E+03  0.00000000000E+00 0.  1.
        -24    2    1    2    0    0 -0.23423474695E+02 -0.35586576514E+02 -0.42343646807E+03  0.43292519884E+03  0.79440051040E+02 0.  0.
         25    2    1    2    0    0 -0.21041215764E+02  0.17915925463E+02  0.62779710130E+02  0.14266048842E+03  0.12508800824E+03 0.  0.
         24    2    1    2    0    0  0.44464690459E+02  0.17670651051E+02  0.55367731081E+03  0.56116237359E+03  0.77815708032E+02 0.  0.
        -11    1    5    5    0    0  0.28186329613E+02  0.31293511105E+02  0.12392283499E+03  0.13088400226E+03  0.00000000000E+00 0.  1.
         12    1    5    5    0    0  0.16278360846E+02 -0.13622860054E+02  0.42975447582E+03  0.43027837133E+03  0.00000000000E+00 0. -1.
         11    1    3    3    0    0  0.79323132253E+01  0.16099279437E+02 -0.30683835739E+02  0.35547238531E+02  0.00000000000E+00 0. -1.
        -12    1    3    3    0    0 -0.31355787921E+02 -0.51685855951E+02 -0.39275263233E+03  0.39737796031E+03  0.00000000000E+00 0.  1.
          5    1    4    4  501    0 -0.23613388078E+02 -0.46162523673E+02  0.58453840477E+02  0.78248926861E+02  0.41800000000E+01 0. -1.
         -5    1    4    4    0  501  0.25721723143E+01  0.64078449136E+02  0.43258696526E+01  0.64411561558E+02  0.41800000000E+01 0. -1.
</event>
<event>
11    1  0.8039394E-009  0.1516446E+03  0.7561462E-02  0.1095210E+00
         22   -1    0    0    0    0  0.00000000000E+00  0.00000000000E+00  0.62909810810E+03  0.62909810810E+03  0.00000000000E+00 0. -1.
         22   -1    0    0    0    0 -0.00000000000E+00 -0.00000000000E+00 -0.21759134982E+03  0.21759134982E+03  0.00000000000E+00 0.  1.
        -24    2    1    2    0    0 -0.66346776021E+02  0.46949109263E+02 -0.95005678876E+02  0.14866599287E+03  0.80432486396E+02 0.  0.
         25    2    1    2    0    0  0.13173582850E+03  0.59098628099E+01  0.32750931036E+01  0.18177895287E+03  0.12507440379E+03 0.  0.
         24    2    1    2    0    0 -0.65389052478E+02 -0.52858972073E+02  0.50323734405E+03  0.51624451218E+03  0.78681464095E+02 0.  0.
        -13    1    5    5    0    0 -0.66123644806E+00  0.74896589844E+01  0.27696103294E+01  0.80126753785E+01  0.00000000000E+00 0.  1.
         14    1    5    5    0    0 -0.64727816030E+02 -0.60348631057E+02  0.50046773372E+03  0.50823183680E+03  0.00000000000E+00 0. -1.
         11    1    3    3    0    0 -0.33710351635E+01 -0.22860345631E+01  0.13382410423E+02  0.13988521753E+02  0.00000000000E+00 0. -1.
        -12    1    3    3    0    0 -0.62975740857E+02  0.49235143826E+02 -0.10838808930E+03  0.13467747112E+03  0.00000000000E+00 0.  1.
          5    1    4    4  501    0  0.23012361157E+02 -0.51162506462E+02  0.15381542419E+02  0.58320108717E+02  0.41800000000E+01 0.  1.
         -5    1    4    4    0  501  0.10872346734E+03  0.57072369272E+02 -0.12106449315E+02  0.12345884416E+03  0.41800000000E+01 0.  1.
</event>
<event>
11    1  0.8039394E-009  0.1860115E+03  0.7561462E-02  0.1064881E+00
         22   -1    0    0    0    0  0.00000000000E+00  0.00000000000E+00  0.66768235410E+02  0.66768235410E+02  0.00000000000E+00 0.  1.
         22   -1    0    0    0    0 -0.00000000000E+00 -0.00000000000E+00 -0.21224024754E+04  0.21224024754E+04  0.00000000000E+00 0. -1.
        -24    2    1    2    0    0 -0.34531568690E+02  0.15820071607E+02 -0.68682199354E+03  0.69238348521E+03  0.78916005267E+02 0.  0.
         25    2    1    2    0    0  0.11146262133E+03 -0.12697475644E+03 -0.13155838342E+04  0.13322742171E+04  0.12508900794E+03 0.  0.
         24    2    1    2    0    0 -0.76931052644E+02  0.11115468484E+03 -0.53228412262E+02  0.16451300855E+03  0.77184942101E+02 0.  0.
        -13    1    5    5    0    0 -0.66735089528E+02  0.12276484731E+03 -0.51688411616E+02  0.14898480393E+03  0.00000000000E+00 0.  1.
         14    1    5    5    0    0 -0.10195963116E+02 -0.11610162470E+02 -0.15400006458E+01  0.15528204610E+02  0.00000000000E+00 0. -1.
         13    1    3    3    0    0 -0.50238424696E+02  0.17371152012E+02 -0.65186216596E+03  0.65402594722E+03  0.00000000000E+00 0. -1.
        -14    1    3    3    0    0  0.15706856006E+02 -0.15510804048E+01 -0.34959827581E+02  0.38357537988E+02  0.00000000000E+00 0.  1.
          5    1    4    4  501    0  0.20573951416E+02  0.25243625068E+02 -0.21656048641E+03  0.21903525916E+03  0.41800000000E+01 0.  1.
         -5    1    4    4    0  501  0.90888669918E+02 -0.15221838151E+03 -0.10990233478E+04  0.11132389579E+04  0.41800000000E+01 0.  1.
</event>
<event>
11    1  0.8039394E-009  0.1700580E+03  0.7561462E-02  0.1077981E+00
         22   -1    0    0    0    0  0.00000000000E+00  0.00000000000E+00  0.59178774948E+03  0.59178774948E+03  0.00000000000E+00 0. -1.
         22   -1    0    0    0    0 -0.00000000000E+00 -0.00000000000E+00 -0.18641234052E+04  0.18641234052E+04  0.00000000000E+00 0.  1.
        -24    2    1    2    0    0 -0.25876864687E+02  0.10940331062E+03 -0.15401135646E+04  0.15463384793E+04  0.81081466790E+02 0.  0.
         25    2    1    2    0    0 -0.52359097602E+02 -0.16057453833E+03 -0.27866560322E+03  0.34903087334E+03  0.12506947937E+03 0.  0.
         24    2    1    2    0    0  0.78235962290E+02  0.51171227709E+02  0.54644351204E+03  0.56054180208E+03  0.82868810095E+02 0.  0.
        -11    1    5    5    0    0 -0.14027029326E+02 -0.55322216718E+01  0.42555598192E+02  0.45148000685E+02  0.00000000000E+00 0.  1.
         12    1    5    5    0    0  0.92262991616E+02  0.56703449381E+02  0.50388791385E+03  0.51539380139E+03  0.00000000000E+00 0. -1.
         13    1    3    3    0    0  0.19046912979E+02  0.21961967929E+02 -0.15244400829E+03  0.15519113568E+03  0.00000000000E+00 0. -1.
        -14    1    3    3    0    0 -0.44923777666E+02  0.87441342689E+02 -0.13876695563E+04  0.13911473436E+04  0.00000000000E+00 0.  1.
          5    1    4    4  501    0 -0.57742906884E+02 -0.38607500936E+02 -0.38361106941E+02  0.79459608290E+02  0.41800000000E+01 0.  1.
         -5    1    4    4    0  501  0.53838092819E+01 -0.12196703739E+03 -0.24030449628E+03  0.26957126505E+03  0.41800000000E+01 0.  1.
</event>
<event>
11    1  0.8039394E-009  0.1315307E+03  0.7561462E-02  0.1117402E+00
         22   -1    0    0    0    0  0.00000000000E+00  0.00000000000E+00  0.62273062785E+03  0.62273062785E+03  0.00000000000E+00 0. -1.
         22   -1    0    0    0    0 -0.00000000000E+00 -0.00000000000E+00 -0.10836714525E+04  0.10836714525E+04  0.00000000000E+00 0.  1.
         24    2    1    2    0    0  0.32902398979E+02  0.15813996043E+02 -0.10402679682E+04  0.10441472408E+04  0.82178856610E+02 0.  0.
         25    2    1    2    0    0  0.86843479978E+01 -0.64344934933E+00  0.67885560200E+02  0.14258668710E+03  0.12508669845E+03 0.  0.
        -24    2    1    2    0    0 -0.41586746976E+02 -0.15170546693E+02  0.51144158328E+03  0.51966815252E+03  0.80764426681E+02 0.  0.
        -13    1    3    3    0    0  0.31982231154E+02 -0.42473464526E+01 -0.98173503849E+03  0.98226502985E+03  0.00000000000E+00 0.  1.
         14    1    3    3    0    0  0.92016782408E+00  0.20061342495E+02 -0.58532929678E+02  0.61882210919E+02  0.00000000000E+00 0. -1.
         13    1    5    5    0    0 -0.16292649995E+02 -0.47981082421E+02  0.28177995671E+03  0.28629980566E+03  0.00000000000E+00 0. -1.
        -14    1    5    5    0    0 -0.25294096981E+02  0.32810535727E+02  0.22966162657E+03  0.23336834686E+03  0.00000000000E+00 0.  1.
          5    1    4    4  501    0  0.36985356487E+02 -0.47381310394E+02  0.63618697428E+02  0.87622578320E+02  0.41800000000E+01 0. -1.
         -5    1    4    4    0  501 -0.28301008489E+02  0.46737861044E+02  0.42668627724E+01  0.54964108784E+02  0.41800000000E+01 0. -1.
</event>
<event>
11    1  0.8039394E-009  0.5703426E+03  0.7561462E-02  0.9248764E-01
         22   -1    0    0    0    0  0.00000000000E+00  0.00000000000E+00  0.74750537660E+03  0.74750537660E+03  0.00000000000E+00 0.  1.
         22   -1    0    0    0    0 -0.00000000000E+00 -0.00000000000E+00 -0.79373160054E+03  0.79373160054E+03  0.00000000000E+00 0.  1.
        -24    2    1    2    0    0 -0.15573209455E+03 -0.32602633296E+02 -0.87053283013E+02  0.19851691457E+03  0.80717249175E+02 0.  0.
         25    2    1    2    0    0  0.44860849226E+03 -0.42357319164E+03 -0.29993988374E+03  0.69733453669E+03  0.12509074385E+03 0.  0.
         24    2    1    2    0    0 -0.29287639770E+03  0.45617582494E+03  0.34076694280E+03  0.64538552589E+03  0.80792327172E+02 0.  0.
        -13    1    5    5    0    0 -0.27135580332E+03  0.38112300269E+03  0.27097815488E+03  0.54066429103E+03  0.00000000000E+00 0.  1.
         14    1    5    5    0    0 -0.21520594382E+02  0.75052822250E+02  0.69788787926E+02  0.10472123486E+03  0.00000000000E+00 0. -1.
         11    1    3    3    0    0 -0.13316323097E+03 -0.41482528694E+02 -0.39216543046E+02  0.14488334452E+03  0.00000000000E+00 0. -1.
        -12    1    3    3    0    0 -0.22568863579E+02  0.88798953985E+01 -0.47836739968E+02  0.53633570050E+02  0.00000000000E+00 0.  1.
          5    1    4    4  501    0  0.17377831322E+03 -0.99844576196E+02 -0.13535868456E+03  0.24188279688E+03  0.41800000000E+01 0. -1.
         -5    1    4    4    0  501  0.27483017904E+03 -0.32372861544E+03 -0.16458119917E+03  0.45545173980E+03  0.41800000000E+01 0. -1.
</event>
<event>
11    1  0.8039394E-009  0.1412273E+03  0.7561462E-02  0.1106196E+00
         22   -1    0    0    0    0  0.00000000000E+00  0.00000000000E+00  0.28735402586E+03  0.28735402586E+03  0.00000000000E+00 0. -1.
         22   -1    0    0    0    0 -0.00000000000E+00 -0.00000000000E+00 -0.61888955145E+03  0.61888955145E+03  0.00000000000E+00 0. -1.
        -24    2    1    2    0    0 -0.57123930053E+02 -0.13401779970E+02 -0.51721366901E+03  0.52661688178E+03  0.79828626879E+02 0.  0.
         25    2    1    2    0    0 -0.15246867372E+02  0.20213698979E+02 -0.36245044259E+02  0.13267309012E+03  0.12508950802E+03 0.  0.
         24    2    1    2    0    0  0.72370797425E+02 -0.68119190094E+01  0.22192318769E+03  0.24695360541E+03  0.80325882709E+02 0.  0.
        -11    1    5    5    0    0 -0.78672837982E+01  0.14736884420E+02  0.86330845352E+02  0.87932273802E+02  0.00000000000E+00 0.  1.
         12    1    5    5    0    0  0.80238081223E+02 -0.21548803429E+02  0.13559234234E+03  0.15902133161E+03  0.00000000000E+00 0. -1.
         11    1    3    3    0    0 -0.73328492972E+02  0.20799806787E+01 -0.32933199598E+03  0.33740325692E+03  0.00000000000E+00 0. -1.
        -12    1    3    3    0    0  0.16204562919E+02 -0.15481760648E+02 -0.18788167303E+03  0.18921362486E+03  0.00000000000E+00 0.  1.
          5    1    4    4  501    0 -0.53010760666E+02  0.54124089279E+02 -0.14258444041E+02  0.77203195614E+02  0.41800000000E+01 0.  1.
         -5    1    4    4    0  501  0.37763893294E+02 -0.33910390300E+02 -0.21986600219E+02  0.55469894503E+02  0.41800000000E+01 0.  1.
</event>
<event>
11    1  0.8039394E-009  0.1844829E+03  0.7561462E-02  0.1066073E+00
         22   -1    0    0    0    0  0.00000000000E+00  0.00000000000E+00  0.46815233675E+03  0.46815233675E+03  0.00000000000E+00 0. -1.
         22   -1    0    0    0    0 -0.00000000000E+00 -0.00000000000E+00 -0.56145201633E+03  0.56145201633E+03  0.00000000000E+00 0. -1.
         24    2    1    2    0    0  0.71816572561E+02 -0.94532737368E+02 -0.28890669490E+03  0.32243035825E+03  0.80001243969E+02 0.  0.
         25    2    1    2    0    0 -0.11329607010E+03  0.14843568282E+03 -0.19815609158E+03  0.29963215010E+03  0.12507772507E+03 0.  0.
        -24    2    1    2    0    0  0.41479497542E+02 -0.53902945450E+02  0.39376310689E+03  0.40754184473E+03  0.80093037231E+02 0.  0.
        -11    1    3    3    0    0  0.58050808651E+01  0.98658174585E+01 -0.43917834731E+01  0.12260549745E+02  0.00000000000E+00 0.  1.
         12    1    3    3    0    0  0.66011491696E+02 -0.10439855483E+03 -0.28451491143E+03  0.31016980851E+03  0.00000000000E+00 0. -1.
         13    1    5    5    0    0  0.46076749376E+02 -0.72420694442E+02  0.31308833888E+03  0.32464154349E+03  0.00000000000E+00 0. -1.
        -14    1    5    5    0    0 -0.45972518342E+01  0.18517748992E+02  0.80674768011E+02  0.82900301241E+02  0.00000000000E+00 0.  1.
          5    1    4    4  501    0 -0.13883079355E+03  0.12458789221E+03 -0.18290461965E+03  0.26128089179E+03  0.41800000000E+01 0.  1.
         -5    1    4    4    0  501  0.25534723445E+02  0.23847790604E+02 -0.15251471928E+02  0.38351258311E+02  0.41800000000E+01 0.  1.
</event>
<event>
11    1  0.8039394E-009  0.1999370E+03  0.7561462E-02  0.1054568E+00
         22   -1    0    0    0    0  0.00000000000E+00  0.00000000000E+00  0.12256716199E+04  0.12256716199E+04  0.00000000000E+00 0. -1.
         22   -1    0    0    0    0 -0.00000000000E+00 -0.00000000000E+00 -0.11625425385E+03  0.11625425385E+03  0.00000000000E+00 0.  1.
         24    2    1    2    0    0 -0.79918800867E+02 -0.13281651284E+02 -0.16912122407E+02  0.11542660966E+03  0.80460333959E+02 0.  0.
         25    2    1    2    0    0  0.22221733800E+03  0.81590320898E+01  0.35031092315E+03  0.43337251565E+03  0.12508748667E+03 0.  0.
        -24    2    1    2    0    0 -0.14229853714E+03  0.51226191943E+01  0.77601856528E+03  0.79312674843E+03  0.81056218201E+02 0.  0.
        -11    1    3    3    0    0 -0.92230925721E+02 -0.15128291941E+02 -0.29215429579E+02  0.97923185211E+02  0.00000000000E+00 0.  1.
         12    1    3    3    0    0  0.12312124854E+02  0.18466406570E+01  0.12303307172E+02  0.17503424451E+02  0.00000000000E+00 0. -1.
         13    1    5    5    0    0 -0.10073149251E+03 -0.17228027059E+02  0.66018217630E+03  0.66804501675E+03  0.00000000000E+00 0. -1.
        -14    1    5    5    0    0 -0.41567044627E+02  0.22350646253E+02  0.11583638898E+03  0.12508173167E+03  0.00000000000E+00 0.  1.
          5    1    4    4  501    0  0.77215026698E+02  0.59627616921E+02  0.10185414336E+03  0.14110050307E+03  0.41800000000E+01 0. -1.
         -5    1    4    4    0  501  0.14500231131E+03 -0.51468584831E+02  0.24845677979E+03  0.29227201257E+03  0.41800000000E+01 0. -1.
</event>
<event>
11    1  0.8039394E-009  0.1437313E+03  0.7561462E-02  0.1103462E+00
         22   -1    0    0    0    0  0.00000000000E+00  0.00000000000E+00  0.22055069736E+03  0.22055069736E+03  0.00000000000E+00 0.  1.
         22   -1    0    0    0    0 -0.00000000000E+00 -0.00000000000E+00 -0.15053569515E+04  0.15053569515E+04  0.00000000000E+00 0.  1.
        -24    2    1    2    0    0  0.70453711608E+02  0.19932297723E+02 -0.12472606062E+04  0.12519740647E+04  0.80118767523E+02 0.  0.
         25    2    1    2    0    0 -0.56053669708E+02  0.13388880683E+02 -0.22684973580E+03  0.26538647929E+03  0.12509158542E+03 0.  0.
         24    2    1    2    0    0 -0.14400041900E+02 -0.33321178406E+02  0.18930408785E+03  0.20854710489E+03  0.79612782530E+02 0.  0.
        -13    1    5    5    0    0  0.14866996768E+02  0.19048769838E+02  0.83409754865E+02  0.86839336892E+02  0.00000000000E+00 0.  1.
         14    1    5    5    0    0 -0.29267038668E+02 -0.52369948244E+02  0.10589433299E+03  0.12170776800E+03  0.00000000000E+00 0. -1.
         11    1    3    3    0    0  0.39649050255E+02  0.85509656079E+01 -0.19366925980E+03  0.19787103980E+03  0.00000000000E+00 0. -1.
        -12    1    3    3    0    0  0.30804661353E+02  0.11381332115E+02 -0.10535913464E+04  0.10541030249E+04  0.00000000000E+00 0.  1.
          5    1    4    4  501    0  0.17007605309E+02 -0.18097554575E+02 -0.24509730259E+00  0.25185563179E+02  0.41800000000E+01 0.  1.
         -5    1    4    4    0  501 -0.73061275017E+02  0.31486435257E+02 -0.22660463850E+03  0.24020091611E+03  0.41800000000E+01 0.  1.
</event>
<event>
11    1  0.8039394E-009  0.3528123E+03  0.7561462E-02  0.9800263E-01
         22   -1    0    0    0    0  0.00000000000E+00  0.00000000000E+00  0.19960506696E+04  0.19960506696E+04  0.00000000000E+00 0. -1.
         22   -1    0    0    0    0 -0.00000000000E+00 -0.00000000000E+00 -0.88757318735E+03  0.88757318735E+03  0.00000000000E+00 0. -1.
         24    2    1    2    0    0 -0.26551087071E+03 -0.19104459789E+03 -0.80636821398E+03  0.87395221948E+03  0.81047668428E+02 0.  0.
         25    2    1    2    0    0  0.34270242871E+03  0.25525052998E+03  0.11358425862E+04  0.12199932373E+04  0.12508929074E+03 0.  0.
        -24    2    1    2    0    0 -0.77191557992E+02 -0.64205932097E+02  0.77900311001E+03  0.78967840017E+03  0.81640626866E+02 0.  0.
        -13    1    3    3    0    0 -0.41192466773E+02 -0.55114917418E+02 -0.10912467969E+03  0.12900646944E+03  0.00000000000E+00 0.  1.
         14    1    3    3    0    0 -0.22431840394E+03 -0.13592968047E+03 -0.69724353430E+03  0.74494575004E+03  0.00000000000E+00 0. -1.
         13    1    5    5    0    0 -0.63322443218E+02 -0.33073776605E+02  0.70001830961E+03  0.70365420506E+03  0.00000000000E+00 0. -1.
        -14    1    5    5    0    0 -0.13869114774E+02 -0.31132155493E+02  0.78984800395E+02  0.86024195106E+02  0.00000000000E+00 0.  1.
          5    1    4    4  501    0  0.13667048790E+03  0.11060134185E+03  0.64228640201E+03  0.66592850493E+03  0.41800000000E+01 0.  1.
         -5    1    4    4    0  501  0.20603194081E+03  0.14464918813E+03  0.49355618418E+03  0.55406473232E+03  0.41800000000E+01 0.  1.
</event>
<event>
11    1  0.8039394E-009  0.1364078E+03  0.7561462E-02  0.1111637E+00
         22   -1    0    0    0    0  0.00000000000E+00  0.00000000000E+00  0.48649889848E+02  0.48649889848E+02  0.00000000000E+00 0.  1.
         22   -1    0    0    0    0 -0.00000000000E+00 -0.00000000000E+00 -0.18843285633E+04  0.18843285633E+04  0.00000000000E+00 0.  1.
        -24    2    1    2    0    0 -0.42780681136E+02  0.11485083298E+02 -0.14805185080E+04  0.14833108084E+04  0.79459473721E+02 0.  0.
         25    2    1    2    0    0  0.59576907507E+02  0.39168650536E+02 -0.31508275168E+03  0.34642310582E+03  0.12509291245E+03 0.  0.
         24    2    1    2    0    0 -0.16796226372E+02 -0.50653733834E+02 -0.40077413750E+02  0.10324453891E+03  0.78773864637E+02 0.  0.
        -13    1    5    5    0    0 -0.17357430098E+02 -0.62672501430E+02 -0.39334536281E+01  0.65150555428E+02  0.00000000000E+00 0.  1.
         14    1    5    5    0    0  0.56120372675E+00  0.12018767596E+02 -0.36143960122E+02  0.38093983481E+02  0.00000000000E+00 0. -1.
         11    1    3    3    0    0 -0.20495414133E+02 -0.63182347916E+01 -0.90760537028E+02  0.93260158551E+02  0.00000000000E+00 0. -1.
        -12    1    3    3    0    0 -0.22285267003E+02  0.17803318090E+02 -0.13897579710E+04  0.13900506499E+04  0.00000000000E+00 0.  1.
          5    1    4    4  501    0 -0.28037473456E+02  0.85695212737E+01 -0.16884455212E+02  0.34089497510E+02  0.41800000000E+01 0. -1.
         -5    1    4    4    0  501  0.87614380963E+02  0.30599129262E+02 -0.29819829647E+03  0.31233360831E+03  0.41800000000E+01 0. -1.
</event>
<event>
11    1  0.8039394E-009  0.1337545E+03  0.7561462E-02  0.1114740E+00
         22   -1    0    0    0    0  0.00000000000E+00  0.00000000000E+00  0.26565125285E+04  0.26565125285E+04  0.00000000000E+00 0. -1.
         22   -1    0    0    0    0 -0.00000000000E+00 -0.00000000000E+00 -0.17930406103E+03  0.17930406103E+03  0.00000000000E+00 0. -1.
        -24    2    1    2    0    0 -0.19040712691E+02  0.70958475851E-01 -0.15999120637E+03  0.18141527390E+03  0.83377225380E+02 0.  0.
         25    2    1    2    0    0 -0.21364528721E+02  0.28114803206E+02  0.55228820731E+03  0.56737679705E+03  0.12508909085E+03 0.  0.
         24    2    1    2    0    0  0.40405241412E+02 -0.28185761682E+02  0.20849114666E+04  0.20870245186E+04  0.79928075103E+02 0.  0.
        -13    1    5    5    0    0  0.18428024142E+02 -0.55686720020E+02  0.12769560084E+04  0.12783024878E+04  0.00000000000E+00 0.  1.
         14    1    5    5    0    0  0.21977217270E+02  0.27500958339E+02  0.80795545813E+03  0.80872203081E+03  0.00000000000E+00 0. -1.
         13    1    3    3    0    0 -0.48915796589E+02  0.16255426377E+02 -0.96149508764E+02  0.10909501399E+03  0.00000000000E+00 0. -1.
        -14    1    3    3    0    0  0.29875083898E+02 -0.16184467901E+02 -0.63841697606E+02  0.72320259903E+02  0.00000000000E+00 0.  1.
          5    1    4    4  501    0 -0.34300350767E+02  0.54727662027E+02  0.14260979862E+03  0.15660989150E+03  0.41800000000E+01 0.  1.
         -5    1    4    4    0  501  0.12935822046E+02 -0.26612858821E+02  0.40967840869E+03  0.41076690555E+03  0.41800000000E+01 0.  1.
</event>
<event>
11    1  0.8039394E-009  0.1366380E+03  0.7561462E-02  0.1111372E+00
         22   -1    0    0    0    0  0.00000000000E+00  0.00000000000E+00  0.48147176765E+03  0.48147176765E+03  0.00000000000E+00 0. -1.
         22   -1    0    0    0    0 -0.00000000000E+00 -0.00000000000E+00 -0.83070071069E+03  0.83070071069E+03  0.00000000000E+00 0.  1.
        -24    2    1    2    0    0  0.20895144499E+02 -0.49940105548E+02 -0.74549019097E+03  0.75178862450E+03  0.80621894590E+02 0.  0.
         25    2    1    2    0    0 -0.40878005769E+02  0.62047249701E+02 -0.97702532089E+01  0.14582225266E+03  0.12509116264E+03 0.  0.
         24    2    1    2    0    0  0.19982861270E+02 -0.12107144152E+02  0.40603150114E+03  0.41456160117E+03  0.80335817463E+02 0.  0.
        -11    1    5    5    0    0 -0.10501228555E+02  0.19678478753E+02  0.39247041263E+02  0.45142536206E+02  0.00000000000E+00 0.  1.
         12    1    5    5    0    0  0.30484089825E+02 -0.31785622906E+02  0.36678445988E+03  0.36941906497E+03  0.00000000000E+00 0. -1.
         11    1    3    3    0    0 -0.13815851056E+02 -0.35211870148E+01 -0.23579711728E+02  0.27555023200E+02  0.00000000000E+00 0. -1.
        -12    1    3    3    0    0  0.34710995555E+02 -0.46418918534E+02 -0.72191047924E+03  0.72423360130E+03  0.00000000000E+00 0.  1.
          5    1    4    4  501    0 -0.18753242148E+02 -0.31950295846E+02 -0.29046966023E+02  0.47262079206E+02  0.41800000000E+01 0.  1.
         -5    1    4    4    0  501 -0.22124763621E+02  0.93997545547E+02  0.19276712814E+02  0.98560173453E+02  0.41800000000E+01 0.  1.
</event>
<event>
11    1  0.8039394E-009  0.2359901E+03  0.7561462E-02  0.1031639E+00
         22   -1    0    0    0    0  0.00000000000E+00  0.00000000000E+00  0.18603915774E+04  0.18603915774E+04  0.00000000000E+00 0. -1.
         22   -1    0    0    0    0 -0.00000000000E+00 -0.00000000000E+00 -0.63657735037E+03  0.63657735037E+03  0.00000000000E+00 0.  1.
        -24    2    1    2    0    0 -0.13796464477E+02 -0.36810130821E+02 -0.37307172796E+03  0.38340066156E+03  0.79172122123E+02 0.  0.
         25    2    1    2    0    0 -0.17438488578E+03  0.10489061498E+03 -0.19526296103E+03  0.30852465672E+03  0.12509080843E+03 0.  0.
         24    2    1    2    0    0  0.18818135026E+03 -0.68080484160E+02  0.17921489160E+04  0.18050436095E+04  0.79608555228E+02 0.  0.
        -13    1    5    5    0    0  0.40836223395E+02  0.53824306674E+01  0.62282774268E+03  0.62418824464E+03  0.00000000000E+00 0.  1.
         14    1    5    5    0    0  0.14734512686E+03 -0.73462914828E+02  0.11693211733E+04  0.11808553648E+04  0.00000000000E+00 0. -1.
         13    1    3    3    0    0  0.13423164862E+02 -0.42443281031E+02 -0.10713466938E+03  0.11601487337E+03  0.00000000000E+00 0. -1.
        -14    1    3    3    0    0 -0.27219629339E+02  0.56331502102E+01 -0.26593705857E+03  0.26738578819E+03  0.00000000000E+00 0.  1.
          5    1    4    4  501    0 -0.69273944074E+02  0.86327294208E+02 -0.35449290472E+02  0.11629877750E+03  0.41800000000E+01 0. -1.
         -5    1    4    4    0  501 -0.10511094171E+03  0.18563320773E+02 -0.15981367056E+03  0.19222587922E+03  0.41800000000E+01 0. -1.
</event>
<event>
11    1  0.8629624E-009  0.1447721E+03  0.7561462E-02  0.1102344E+00
         22   -1    0    0    0    0  0.00000000000E+00  0.00000000000E+00  0.56889887510E+03  0.56889887510E+03  0.00000000000E+00 0.  1.
         22   -1    0    0    0    0 -0.00000000000E+00 -0.00000000000E+00 -0.85961282929E+03  0.85961282929E+03  0.00000000000E+00 0. -1.
        -24    2    1    2    0    0  0.44256738357E+02 -0.35533100114E+02 -0.64626568499E+03  0.65347886652E+03  0.78447646832E+02 0.  0.
         25    2    1    2    0    0 -0.11597152139E+03  0.35216933589E+02 -0.16708358907E+03  0.24135807288E+03  0.12508863828E+03 0.  0.
         24    2    1    2    0    0  0.71714783029E+02  0.31616652504E+00  0.52263531987E+03  0.53367476498E+03  0.80733928055E+02 0.  0.
        -11    1    5    5    0    0  0.23419690032E+02 -0.18618666322E+02  0.39165554501E+03  0.39279664274E+03  0.00000000000E+00 0.  1.
         12    1    5    5    0    0  0.48295092997E+02  0.18934832847E+02  0.13097977486E+03  0.14087812224E+03  0.00000000000E+00 0. -1.
         11    1    3    3    0    0  0.64168050996E+02 -0.34618583645E+02 -0.57029705134E+03  0.57493887664E+03  0.00000000000E+00 0. -1.
        -12    1    3    3    0    0 -0.19911312640E+02 -0.91451646867E+00 -0.75968633650E+02  0.78539989878E+02  0.00000000000E+00 0.  1.
          5    1    4    4  501    0  0.13233827728E+01  0.40896223847E+02 -0.53984487955E+01  0.41483347458E+02  0.41800000000E+01 0. -1.
         -5    1    4    4    0  501 -0.11729490416E+03 -0.56792902586E+01 -0.16168514027E+03  0.19987472542E+03  0.41800000000E+01 0. -1.
</event>
<event>
11    1  0.8039394E-009  0.1358987E+03  0.7561462E-02  0.1112227E+00
         22   -1    0    0    0    0  0.00000000000E+00  0.00000000000E+00  0.64911915316E+03  0.64911915316E+03  0.00000000000E+00 0.  1.
         22   -1    0    0    0    0 -0.00000000000E+00 -0.00000000000E+00 -0.19098366422E+03  0.19098366422E+03  0.00000000000E+00 0. -1.
        -24    2    1    2    0    0 -0.16895556693E+01 -0.53444913208E+02 -0.13999769754E+03  0.16851073925E+03  0.77053881022E+02 0.  0.
         25    2    1    2    0    0  0.45027870517E+02  0.46432508712E+02  0.12058944487E+03  0.18539674083E+03  0.12508657126E+03 0.  0.
         24    2    1    2    0    0 -0.43338314848E+02  0.70124044963E+01  0.47754374161E+03  0.48619533730E+03  0.80065582539E+02 0.  0.
        -11    1    5    5    0    0 -0.16617325145E+02  0.33416971644E+02  0.37734358615E+03  0.37918466675E+03  0.00000000000E+00 0.  1.
         12    1    5    5    0    0 -0.26720989702E+02 -0.26404567147E+02  0.10020015546E+03  0.10701067055E+03  0.00000000000E+00 0. -1.
         11    1    3    3    0    0 -0.24659540536E+02 -0.63565004686E+02 -0.94193753765E+02  0.11628011872E+03  0.00000000000E+00 0. -1.
        -12    1    3    3    0    0  0.22969984867E+02  0.10120091477E+02 -0.45803943772E+02  0.52230620534E+02  0.00000000000E+00 0.  1.
          5    1    4    4  501    0  0.26892570547E+01 -0.42199715332E+02  0.35203828021E+02  0.55179978117E+02  0.41800000000E+01 0. -1.
         -5    1    4    4    0  501  0.42338613462E+02  0.88632224044E+02  0.85385616845E+02  0.13021676272E+03  0.41800000000E+01 0. -1.
</event>
<event>
11    1  0.8039394E-009  0.1478834E+03  0.7561462E-02  0.1099061E+00
         22   -1    0    0    0    0  0.00000000000E+00  0.00000000000E+00  0.21488370791E+04  0.21488370791E+04  0.00000000000E+00 0.  1.
         22   -1    0    0    0    0 -0.00000000000E+00 -0.00000000000E+00 -0.34549473765E+03  0.34549473765E+03  0.00000000000E+00 0. -1.
         24    2    1    2    0    0  0.38795891494E+02  0.73366198271E+02 -0.30644041906E+03  0.32975133901E+03  0.89120676061E+02 0.  0.
         25    2    1    2    0    0  0.40664661905E+02 -0.36753248672E+02  0.15679899562E+03  0.20793651449E+03  0.12508898039E+03 0.  0.
        -24    2    1    2    0    0 -0.79460553398E+02 -0.36612949599E+02  0.19529837649E+04  0.19566439633E+04  0.81581403567E+02 0.  0.
        -11    1    3    3    0    0  0.32164783252E+02  0.76248626447E+01 -0.27224814913E+02  0.42824086202E+02  0.00000000000E+00 0.  1.
         12    1    3    3    0    0  0.66311082417E+01  0.65741335626E+02 -0.27921560414E+03  0.28692725281E+03  0.00000000000E+00 0. -1.
         13    1    5    5    0    0  0.72190874384E+01  0.88976273290E+01  0.57325720628E+02  0.58459569286E+02  0.00000000000E+00 0. -1.
        -14    1    5    5    0    0 -0.86679640837E+02 -0.45510576928E+02  0.18956580443E+04  0.18981843940E+04  0.00000000000E+00 0.  1.
          5    1    4    4  501    0  0.57440864381E+02  0.31368281736E+02  0.65144089685E+02  0.92437258834E+02  0.41800000000E+01 0.  1.
         -5    1    4    4    0  501 -0.16776202477E+02 -0.68121530408E+02  0.91654905932E+02  0.11549925565E+03  0.41800000000E+01 0.  1.
</event>
<event>
11    1  0.8039394E-009  0.3093027E+03  0.7561462E-02  0.9963292E-01
         22   -1    0    0    0    0  0.00000000000E+00  0.00000000000E+00  0.43945364476E+03  0.43945364476E+03  0.00000000000E+00 0. -1.
         22   -1    0    0    0    0 -0.00000000000E+00 -0.00000000000E+00 -0.90942995277E+03  0.90942995277E+03  0.00000000000E+00 0. -1.
         24    2    1    2    0    0 -0.71372671113E+02  0.12669114531E+03 -0.49774927230E+03  0.52241998667E+03  0.63431852489E+02 0.  0.
         25    2    1    2    0    0  0.10543565508E+03  0.17264083039E+03 -0.29380476988E+03  0.37801222880E+03  0.12510183307E+03 0.  0.
        -24    2    1    2    0    0 -0.34062983963E+02 -0.29933197570E+03  0.32157773418E+03  0.44845138207E+03  0.83285559446E+02 0.  0.
        -11    1    3    3    0    0 -0.52928349649E+01  0.59258646980E+02 -0.13392405239E+03  0.14654437264E+03  0.00000000000E+00 0.  1.
         12    1    3    3    0    0 -0.66079836148E+02  0.67432498330E+02 -0.36382521991E+03  0.37587561402E+03  0.00000000000E+00 0. -1.
         11    1    5    5    0    0 -0.22157600715E+02 -0.29712757803E+03  0.29519605039E+03  0.41942396815E+03  0.00000000000E+00 0. -1.
        -12    1    5    5    0    0 -0.11905383248E+02 -0.22043976677E+01  0.26381683787E+02  0.29027413919E+02  0.00000000000E+00 0.  1.
          5    1    4    4  501    0  0.27978948647E+02  0.39670772644E+02 -0.18025153574E+03  0.18672086200E+03  0.41800000000E+01 0.  1.
         -5    1    4    4    0  501  0.77456706428E+02  0.13297005775E+03 -0.11355323415E+03  0.19129136680E+03  0.41800000000E+01 0.  1.
</event>
<event>
11    1  0.8039394E-009  0.1731673E+03  0.7561462E-02  0.1075308E+00
         22   -1    0    0    0    0  0.00000000000E+00  0.00000000000E+00  0.65063797177E+03  0.65063797177E+03  0.00000000000E+00 0.  1.
         22   -1    0    0    0    0 -0.00000000000E+00 -0.00000000000E+00 -0.61170724760E+03  0.61170724760E+03  0.00000000000E+00 0.  1.
         24    2    1    2    0    0 -0.14435293608E+02  0.12093549853E+03 -0.49284853648E+03  0.51492819535E+03  0.86125454693E+02 0.  0.
         25    2    1    2    0    0 -0.24121894920E+02 -0.11003419158E+03 -0.36896344601E+02  0.17233101414E+03  0.12508896457E+03 0.  0.
        -24    2    1    2    0    0  0.38557188528E+02 -0.10901306948E+02  0.56867560525E+03  0.57508600988E+03  0.75673505775E+02 0.  0.
        -11    1    3    3    0    0 -0.37113369378E+02  0.10388774735E+03 -0.45150119203E+03  0.46478316733E+03  0.00000000000E+00 0.  1.
         12    1    3    3    0    0  0.22678075770E+02  0.17047751182E+02 -0.41347344451E+02  0.50145028010E+02  0.00000000000E+00 0. -1.
         13    1    5    5    0    0  0.38260562030E+01 -0.37938931541E+02  0.34655701223E+03  0.34864848194E+03  0.00000000000E+00 0. -1.
        -14    1    5    5    0    0  0.34731132325E+02  0.27037624593E+02  0.22211859302E+03  0.22643752795E+03  0.00000000000E+00 0.  1.
          5    1    4    4  501    0  0.16354120297E+02 -0.12276489755E+03 -0.38202017305E+02  0.12967476180E+03  0.41800000000E+01 0. -1.
         -5    1    4    4    0  501 -0.40476015218E+02  0.12730705969E+02  0.13056727036E+01  0.42656252339E+02  0.41800000000E+01 0. -1.
</event>
<event>
11    1  0.1540939E-008  0.1945537E+03  0.7561462E-02  0.1058443E+00
         22   -1    0    0    0    0  0.00000000000E+00  0.00000000000E+00  0.84651945546E+03  0.84651945546E+03  0.00000000000E+00 0.  1.
         22   -1    0    0    0    0 -0.00000000000E+00 -0.00000000000E+00 -0.13787272531E+04  0.13787272531E+04  0.00000000000E+00 0. -1.
        -24    2    1    2    0    0 -0.39986395145E+02  0.64815665232E+02 -0.10043580000E+04  0.10103432781E+04  0.79111093362E+02 0.  0.
         25    2    1    2    0    0  0.17230745527E+03  0.33731526874E+01 -0.33126321240E+03  0.39380750042E+03  0.12509114355E+03 0.  0.
         24    2    1    2    0    0 -0.13232106013E+03 -0.68188817919E+02  0.80341341475E+03  0.82109593009E+03  0.81036001739E+02 0.  0.
        -13    1    5    5    0    0 -0.13054156258E+03 -0.33855095180E+02  0.62171752456E+03  0.63617603490E+03  0.00000000000E+00 0.  1.
         14    1    5    5    0    0 -0.17794975415E+01 -0.34333722739E+02  0.18169589019E+03  0.18491989520E+03  0.00000000000E+00 0. -1.
         13    1    3    3    0    0 -0.11243836822E+02  0.43705681586E+02 -0.87490176356E+03  0.87606489848E+03  0.00000000000E+00 0. -1.
        -14    1    3    3    0    0 -0.28742558323E+02  0.21109983646E+02 -0.12945623647E+03  0.13427837961E+03  0.00000000000E+00 0.  1.
          5    1    4    4  501    0  0.11601359974E+02  0.55196834542E+01  0.98396516277E+01  0.16713754900E+02  0.41800000000E+01 0.  1.
         -5    1    4    4    0  501  0.16070609530E+03 -0.21465307668E+01 -0.34110286403E+03  0.37709374552E+03  0.41800000000E+01 0.  1.
</event>
<event>
11    1  0.8039394E-009  0.1586613E+03  0.7561462E-02  0.1088343E+00
         22   -1    0    0    0    0  0.00000000000E+00  0.00000000000E+00  0.78443083996E+02  0.78443083996E+02  0.00000000000E+00 0.  1.
         22   -1    0    0    0    0 -0.00000000000E+00 -0.00000000000E+00 -0.87367608324E+03  0.87367608324E+03  0.00000000000E+00 0. -1.
         24    2    1    2    0    0  0.69930490885E+02 -0.10072149760E+02 -0.49717687229E+03  0.50897754107E+03  0.82955248286E+02 0.  0.
         25    2    1    2    0    0 -0.78482550595E+01 -0.78359325824E+02 -0.26576353111E+03  0.30411048734E+03  0.12510457621E+03 0.  0.
        -24    2    1    2    0    0 -0.62082235826E+02  0.88431475583E+02 -0.32292595847E+02  0.13903113883E+03  0.81317377842E+02 0.  0.
        -13    1    3    3    0    0  0.30073477997E+02  0.81130022872E+01 -0.45263350621E+02  0.54945480200E+02  0.00000000000E+00 0.  1.
         14    1    3    3    0    0  0.39857012888E+02 -0.18185152047E+02 -0.45191352167E+03  0.45403206087E+03  0.00000000000E+00 0. -1.
         13    1    5    5    0    0 -0.61599172028E+02  0.17145011436E+02 -0.15350301506E+02  0.65757441922E+02  0.00000000000E+00 0. -1.
        -14    1    5    5    0    0 -0.48306379707E+00  0.71286464147E+02 -0.16942294341E+02  0.73273696910E+02  0.00000000000E+00 0.  1.
          5    1    4    4  501    0 -0.22860513454E+02 -0.98640114398E+02 -0.25829809275E+03  0.27746684913E+03  0.41800000000E+01 0. -1.
         -5    1    4    4    0  501  0.15012258395E+02  0.20280788575E+02 -0.74654383575E+01  0.26643638212E+02  0.41800000000E+01 0. -1.
</event>
<event>
11    1  0.8039394E-009  0.7514736E+03  0.7561462E-02  0.8959709E-01
         22   -1    0    0    0    0  0.00000000000E+00  0.00000000000E+00  0.23442264041E+04  0.23442264041E+04  0.00000000000E+00 0.  1.
         22   -1    0    0    0    0 -0.00000000000E+00 -0.00000000000E+00 -0.11437371329E+04  0.11437371329E+04  0.00000000000E+00 0. -1.
        -24    2    1    2    0    0 -0.44789431491E+02 -0.74268220069E+03 -0.85071873482E+03  0.11337773399E+04  0.90253788776E+02 0.  0.
         25    2    1    2    0    0 -0.79452648326E+02  0.72570033414E+03  0.78577888044E+03  0.10798370384E+04  0.12508350137E+03 0.  0.
         24    2    1    2    0    0  0.12424207982E+03  0.16981866546E+02  0.12654291255E+04  0.12743491586E+04  0.83249193617E+02 0.  0.
        -11    1    5    5    0    0  0.21437587958E+02  0.95593437270E+01  0.64419415395E+03  0.64462164036E+03  0.00000000000E+00 0.  1.
         12    1    5    5    0    0  0.10280449186E+03  0.74225228190E+01  0.62123497156E+03  0.62972751828E+03  0.00000000000E+00 0. -1.
         11    1    3    3    0    0 -0.47197482000E+02 -0.49519007329E+03 -0.62512730669E+03  0.79888983005E+03  0.00000000000E+00 0. -1.
        -12    1    3    3    0    0  0.24080505088E+01 -0.24749212739E+03 -0.22559142813E+03  0.33488750989E+03  0.00000000000E+00 0.  1.
          5    1    4    4  501    0 -0.67454081720E+01  0.45943427518E+03  0.42809356152E+03  0.62801825098E+03  0.41800000000E+01 0.  1.
         -5    1    4    4    0  501 -0.72707240154E+02  0.26626605896E+03  0.35768531891E+03  0.45181878745E+03  0.41800000000E+01 0.  1.
</event>
<event>
11    1  0.8039394E-009  0.1326394E+03  0.7561462E-02  0.1116068E+00
         22   -1    0    0    0    0  0.00000000000E+00  0.00000000000E+00  0.26902852207E+03  0.26902852207E+03  0.00000000000E+00 0.  1.
         22   -1    0    0    0    0 -0.00000000000E+00 -0.00000000000E+00 -0.67663622120E+03  0.67663622120E+03  0.00000000000E+00 0.  1.
         24    2    1    2    0    0 -0.44547672583E+02  0.46802389809E-01 -0.47522710213E+03  0.48421120229E+03  0.81456690935E+02 0.  0.
         25    2    1    2    0    0  0.41729821668E+02 -0.16022978307E+02 -0.16719158380E+03  0.21352621236E+03  0.12506919614E+03 0.  0.
        -24    2    1    2    0    0  0.28178509147E+01  0.15976175918E+02  0.23481098680E+03  0.24792732861E+03  0.77901105693E+02 0.  0.
        -13    1    3    3    0    0 -0.50102274309E+02  0.81163154426E+00 -0.47592972443E+03  0.47856034022E+03  0.00000000000E+00 0.  1.
         14    1    3    3    0    0  0.55546017260E+01 -0.76482915445E+00  0.70262230125E+00  0.56508620642E+01  0.00000000000E+00 0. -1.
         11    1    5    5    0    0 -0.22936607857E+02 -0.74701597297E+01  0.18820901100E+03  0.18974857862E+03  0.00000000000E+00 0. -1.
        -12    1    5    5    0    0  0.25754458771E+02  0.23446335647E+02  0.46601975802E+02  0.58178749992E+02  0.00000000000E+00 0.  1.
          5    1    4    4  501    0  0.33040469891E+02 -0.18203566438E+02 -0.18730653417E+03  0.19111319322E+03  0.41800000000E+01 0. -1.
         -5    1    4    4    0  501  0.86893517772E+01  0.21805881304E+01  0.20114950365E+02  0.22413019143E+02  0.41800000000E+01 0. -1.
</event>
<event>
11    1  0.8039394E-009  0.2980010E+03  0.7561462E-02  0.1001041E+00
         22   -1    0    0    0    0  0.00000000000E+00  0.00000000000E+00  0.72676207347E+03  0.72676207347E+03  0.00000000000E+00 0.  1.
         22   -1    0    0    0    0 -0.00000000000E+00 -0.00000000000E+00 -0.82726843094E+03  0.82726843094E+03  0.00000000000E+00 0.  1.
         24    2    1    2    0    0  0.26774751533E+03 -0.10339482292E+02 -0.57160107637E+03  0.63650744265E+03  0.81352917468E+02 0.  0.
         25    2    1    2    0    0 -0.27843168318E+03  0.12914976343E+02 -0.11439236211E+03  0.32622776185E+03  0.12509173146E+03 0.  0.
        -24    2    1    2    0    0  0.10684167846E+02 -0.25754940516E+01  0.58548708101E+03  0.59129529991E+03  0.81940375017E+02 0.  0.
        -13    1    3    3    0    0  0.10460701101E+03 -0.31270912948E+02 -0.29679256874E+03  0.31623776752E+03  0.00000000000E+00 0.  1.
         14    1    3    3    0    0  0.16314050432E+03  0.20931430656E+02 -0.27480850763E+03  0.32026967513E+03  0.00000000000E+00 0. -1.
         13    1    5    5    0    0 -0.27412113040E+02 -0.57195980705E+01  0.88139077681E+02  0.92480456085E+02  0.00000000000E+00 0. -1.
        -14    1    5    5    0    0  0.38096280886E+02  0.31441040189E+01  0.49734800333E+03  0.49881484383E+03  0.00000000000E+00 0.  1.
          5    1    4    4  501    0 -0.25085791212E+03  0.51321393774E+02 -0.10948611987E+03  0.27851079041E+03  0.41800000000E+01 0.  1.
         -5    1    4    4    0  501 -0.27573771057E+02 -0.38406417431E+02 -0.49062422446E+01  0.47716971437E+02  0.41800000000E+01 0.  1.
</event>
<event>
11    1  0.8039394E-009  0.1421130E+03  0.7561462E-02  0.1105222E+00
         22   -1    0    0    0    0  0.00000000000E+00  0.00000000000E+00  0.25690710936E+03  0.25690710936E+03  0.00000000000E+00 0. -1.
         22   -1    0    0    0    0 -0.00000000000E+00 -0.00000000000E+00 -0.57225992375E+03  0.57225992375E+03  0.00000000000E+00 0. -1.
        -24    2    1    2    0    0  0.61805920672E+02  0.32930170425E+02 -0.49596207717E+03  0.50714537098E+03  0.79458651944E+02 0.  0.
         25    2    1    2    0    0 -0.10016312070E+02 -0.45662764564E+02  0.22388074607E+02  0.13540353972E+03  0.12508988013E+03 0.  0.
         24    2    1    2    0    0 -0.51789608601E+02  0.12732594139E+02  0.15822118816E+03  0.18661812241E+03  0.83355244065E+02 0.  0.
        -13    1    5    5    0    0 -0.44025348131E+02  0.38012944472E+01  0.21066538124E+02  0.48953857315E+02  0.00000000000E+00 0.  1.
         14    1    5    5    0    0 -0.77642604701E+01  0.89312996920E+01  0.13715465004E+03  0.13766426509E+03  0.00000000000E+00 0. -1.
         13    1    3    3    0    0 -0.72916977091E+01  0.78690561508E+01 -0.25492193034E+03  0.25514756802E+03  0.00000000000E+00 0. -1.
        -14    1    3    3    0    0  0.69097618381E+02  0.25061114274E+02 -0.24104014683E+03  0.25199780296E+03  0.00000000000E+00 0.  1.
          5    1    4    4  501    0  0.10078471593E+02  0.10441105316E+02 -0.43747630694E+02  0.46280880082E+02  0.41800000000E+01 0. -1.
         -5    1    4    4    0  501 -0.20094783663E+02 -0.56103869880E+02  0.66135705300E+02  0.89122659642E+02  0.41800000000E+01 0. -1.
</event>
<event>
11    1  0.8039394E-009  0.1308422E+03  0.7561462E-02  0.1118239E+00
         22   -1    0    0    0    0  0.00000000000E+00  0.00000000000E+00  0.27180476403E+03  0.27180476403E+03  0.00000000000E+00 0. -1.
         22   -1    0    0    0    0 -0.00000000000E+00 -0.00000000000E+00 -0.68566469264E+03  0.68566469264E+03  0.00000000000E+00 0.  1.
        -24    2    1    2    0    0  0.10877672706E+02  0.39178282520E+01 -0.62073597708E+03  0.62570235100E+03  0.77824197112E+02 0.  0.
         25    2    1    2    0    0  0.35844595491E+00 -0.40465174674E+02  0.31487223728E+02  0.13518784971E+03  0.12508697216E+03 0.  0.
         24    2    1    2    0    0 -0.11236118661E+02  0.36547346422E+02  0.17538882475E+03  0.19657925597E+03  0.80126182609E+02 0.  0.
        -13    1    5    5    0    0 -0.66514727209E+01  0.18403501819E+02 -0.61990057675E+00  0.19578438275E+02  0.00000000000E+00 0.  1.
         14    1    5    5    0    0 -0.45846459399E+01  0.18143844603E+02  0.17600872532E+03  0.17700081770E+03  0.00000000000E+00 0. -1.
         13    1    3    3    0    0 -0.15989595813E+02 -0.11392939623E+02 -0.44516909285E+02  0.48654100134E+02  0.00000000000E+00 0. -1.
        -14    1    3    3    0    0  0.26867268519E+02  0.15310767875E+02 -0.57621906780E+03  0.57704825086E+03  0.00000000000E+00 0.  1.
          5    1    4    4  501    0  0.56895139130E+02 -0.42348851346E+02  0.33236405676E+02  0.78438594641E+02  0.41800000000E+01 0.  1.
         -5    1    4    4    0  501 -0.56536693175E+02  0.18836766720E+01 -0.17491819472E+01  0.56749255065E+02  0.41800000000E+01 0.  1.
</event>
<event>
11    1  0.8039394E-009  0.1725869E+03  0.7561462E-02  0.1075802E+00
         22   -1    0    0    0    0  0.00000000000E+00  0.00000000000E+00  0.26007171185E+04  0.26007171185E+04  0.00000000000E+00 0.  1.
         22   -1    0    0    0    0 -0.00000000000E+00 -0.00000000000E+00 -0.13731985832E+03  0.13731985832E+03  0.00000000000E+00 0.  1.
         24    2    1    2    0    0  0.22357425393E+02 -0.61529414295E+02 -0.91868634773E+02  0.13676209636E+03  0.77319477832E+02 0.  0.
         25    2    1    2    0    0  0.32327681078E+02 -0.51299009393E+02  0.21248080002E+03  0.25391356549E+03  0.12508933223E+03 0.  0.
        -24    2    1    2    0    0 -0.54685106472E+02  0.11282842369E+03  0.23427850950E+04  0.23473613150E+04  0.75778809075E+02 0.  0.
        -13    1    3    3    0    0 -0.49962607884E+01 -0.71605967688E+02 -0.70563087973E+02  0.10065548477E+03  0.00000000000E+00 0.  1.
         14    1    3    3    0    0  0.27353686181E+02  0.10076553393E+02 -0.21305546800E+02  0.36106611589E+02  0.00000000000E+00 0. -1.
         13    1    5    5    0    0 -0.21511363545E+02  0.27377773733E+02  0.23312079232E+03  0.23570656560E+03  0.00000000000E+00 0. -1.
        -14    1    5    5    0    0 -0.33173742927E+02  0.85450649954E+02  0.21096643026E+04  0.21116547494E+04  0.00000000000E+00 0.  1.
          5    1    4    4  501    0  0.55249986841E+02 -0.41886905155E+02  0.21747039238E+03  0.22829349056E+03  0.41800000000E+01 0. -1.
         -5    1    4    4    0  501 -0.22922305762E+02 -0.94121042378E+01 -0.49895923640E+01  0.25620074933E+02  0.41800000000E+01 0. -1.
</event>
<event>
11    1  0.8039394E-009  0.1610304E+03  0.7561462E-02  0.1086112E+00
         22   -1    0    0    0    0  0.00000000000E+00  0.00000000000E+00  0.25851184884E+04  0.25851184884E+04  0.00000000000E+00 0. -1.
         22   -1    0    0    0    0 -0.00000000000E+00 -0.00000000000E+00 -0.18039022974E+03  0.18039022974E+03  0.00000000000E+00 0.  1.
         24    2    1    2    0    0 -0.73452963018E+02  0.67424899627E+02 -0.13779714356E+03  0.18440645107E+03  0.71247677548E+02 0.  0.
         25    2    1    2    0    0  0.62201343819E+02 -0.14335178226E+03  0.54659426718E+03  0.58208557696E+03  0.12505832775E+03 0.  0.
        -24    2    1    2    0    0  0.11251619199E+02  0.75926882632E+02  0.19959311350E+04  0.19990166901E+04  0.80219331018E+02 0.  0.
        -13    1    3    3    0    0 -0.41313837097E+02  0.77517961062E+02 -0.10974072270E+03  0.14056633182E+03  0.00000000000E+00 0.  1.
         14    1    3    3    0    0 -0.32139125921E+02 -0.10093061435E+02 -0.28056420866E+02  0.43840119251E+02  0.00000000000E+00 0. -1.
         13    1    5    5    0    0 -0.17652532620E+02  0.65319140575E+02  0.17276686601E+04  0.17289931178E+04  0.00000000000E+00 0. -1.
        -14    1    5    5    0    0  0.28904151819E+02  0.10607742057E+02  0.26826247487E+03  0.27002357232E+03  0.00000000000E+00 0.  1.
          5    1    4    4  501    0  0.81712601432E+02 -0.88324602854E+02  0.22480052446E+03  0.25501163287E+03  0.41800000000E+01 0. -1.
         -5    1    4    4    0  501 -0.19511257613E+02 -0.55027179404E+02  0.32179374272E+03  0.32707394408E+03  0.41800000000E+01 0. -1.
</event>
<event>
11    1  0.8039394E-009  0.1763095E+03  0.7561462E-02  0.1072668E+00
         22   -1    0    0    0    0  0.00000000000E+00  0.00000000000E+00  0.25876840882E+03  0.25876840882E+03  0.00000000000E+00 0.  1.
         22   -1    0    0    0    0 -0.00000000000E+00 -0.00000000000E+00 -0.31276488981E+04  0.31276488981E+04  0.00000000000E+00 0. -1.
        -24    2    1    2    0    0 -0.92104310648E+01 -0.13019228028E+03 -0.28270136623E+04  0.28311669007E+04  0.80404669544E+02 0.  0.
         25    2    1    2    0    0 -0.91665108071E+02  0.54052184495E+02 -0.25022987886E+03  0.29930576760E+03  0.12507925311E+03 0.  0.
         24    2    1    2    0    0  0.10087553914E+03  0.76140095783E+02  0.20836305186E+03  0.25594463864E+03  0.78226006450E+02 0.  0.
        -13    1    5    5    0    0  0.11237954987E+03  0.72706371853E+02  0.20209853721E+03  0.24240296715E+03  0.00000000000E+00 0.  1.
         14    1    5    5    0    0 -0.11504010735E+02  0.34337239306E+01  0.62645146447E+01  0.13541671491E+02  0.00000000000E+00 0. -1.
         13    1    3    3    0    0 -0.42345735212E+01 -0.89172133123E+02 -0.10860357329E+04  0.10896986804E+04  0.00000000000E+00 0. -1.
        -14    1    3    3    0    0 -0.49758575436E+01 -0.41020147155E+02 -0.17409779294E+04  0.17414682203E+04  0.00000000000E+00 0.  1.
          5    1    4    4  501    0  0.29338578886E+01 -0.27061573355E+02 -0.10178932114E+03  0.10544891926E+03  0.41800000000E+01 0. -1.
         -5    1    4    4    0  501 -0.94598965959E+02  0.81113757850E+02 -0.14844055771E+03  0.19385684834E+03  0.41800000000E+01 0. -1.
</event>
<event>
11    1  0.8039394E-009  0.1507979E+03  0.7561462E-02  0.1096066E+00
         22   -1    0    0    0    0  0.00000000000E+00  0.00000000000E+00  0.41199932870E+03  0.41199932870E+03  0.00000000000E+00 0.  1.
         22   -1    0    0    0    0 -0.00000000000E+00 -0.00000000000E+00 -0.12677178693E+04  0.12677178693E+04  0.00000000000E+00 0. -1.
        -24    2    1    2    0    0 -0.79863638383E+02 -0.24881337153E+02 -0.11287986428E+04  0.11350414135E+04  0.84471016978E+02 0.  0.
         25    2    1    2    0    0  0.79280606598E+02  0.57782683202E+02 -0.81559114054E+02  0.17866631790E+03  0.12508201712E+03 0.  0.
         24    2    1    2    0    0  0.58303178461E+00 -0.32901346049E+02  0.35463921626E+03  0.36600946659E+03  0.84327441692E+02 0.  0.
        -11    1    5    5    0    0 -0.34992549761E+02 -0.22866573815E+02  0.27562324478E+03  0.27877505592E+03  0.00000000000E+00 0.  1.
         12    1    5    5    0    0  0.35575581546E+02 -0.10034772234E+02  0.79015971481E+02  0.87234410671E+02  0.00000000000E+00 0. -1.
         11    1    3    3    0    0 -0.27019860689E+02 -0.14161442581E+02 -0.87717813734E+03  0.87770843904E+03  0.00000000000E+00 0. -1.
        -12    1    3    3    0    0 -0.52843777693E+02 -0.10719894573E+02 -0.25162050541E+03  0.25733297442E+03  0.00000000000E+00 0.  1.
          5    1    4    4  501    0  0.90140575795E+02 -0.37747148208E+01 -0.71551509115E+02  0.11522440164E+03  0.41800000000E+01 0.  1.
         -5    1    4    4    0  501 -0.10859969197E+02  0.61557398023E+02 -0.10007604939E+02  0.63441916262E+02  0.41800000000E+01 0.  1.
</event>
<event>
11    1  0.8039394E-009  0.2273783E+03  0.7561462E-02  0.1036692E+00
         22   -1    0    0    0    0  0.00000000000E+00  0.00000000000E+00  0.23931591085E+03  0.23931591085E+03  0.00000000000E+00 0.  1.
         22   -1    0    0    0    0 -0.00000000000E+00 -0.00000000000E+00 -0.31117072848E+04  0.31117072848E+04  0.00000000000E+00 0. -1.
        -24    2    1    2    0    0 -0.82057228815E+02  0.16160004313E+03 -0.22818146678E+04  0.22904029610E+04  0.80122299600E+02 0.  0.
         25    2    1    2    0    0  0.21872763138E+03 -0.15886405170E+03 -0.76688754965E+03  0.82270512763E+03  0.12509056544E+03 0.  0.
         24    2    1    2    0    0 -0.13667040256E+03 -0.27359914303E+01  0.17631084347E+03  0.23791510704E+03  0.82654703735E+02 0.  0.
        -13    1    5    5    0    0 -0.72841884762E+02  0.19679722871E+02  0.14481386494E+03  0.16329203026E+03  0.00000000000E+00 0.  1.
         14    1    5    5    0    0 -0.63828517801E+02 -0.22415714302E+02  0.31496978531E+02  0.74623076786E+02  0.00000000000E+00 0. -1.
         13    1    3    3    0    0 -0.57836313826E+02  0.13022769584E+03 -0.20709093999E+04  0.20758058759E+04  0.00000000000E+00 0. -1.
        -14    1    3    3    0    0 -0.24220914989E+02  0.31372347284E+02 -0.21090526784E+03  0.21459708502E+03  0.00000000000E+00 0.  1.
          5    1    4    4  501    0  0.99329402247E+02 -0.66654927409E+02 -0.17596397328E+03  0.21281447740E+03  0.41800000000E+01 0.  1.
         -5    1    4    4    0  501  0.11939822913E+03 -0.92209124289E+02 -0.59092357637E+03  0.60989065023E+03  0.41800000000E+01 0.  1.
</event>
<event>
11    1  0.8039394E-009  0.1374199E+03  0.7561462E-02  0.1110474E+00
         22   -1    0    0    0    0  0.00000000000E+00  0.00000000000E+00  0.24165382649E+03  0.24165382649E+03  0.00000000000E+00 0. -1.
         22   -1    0    0    0    0 -0.00000000000E+00 -0.00000000000E+00 -0.31918327538E+03  0.31918327538E+03  0.00000000000E+00 0.  1.
         24    2    1    2    0    0 -0.22443934762E+02  0.33813705322E+02 -0.15483971786E+03  0.17909347393E+03  0.80324574720E+02 0.  0.
         25    2    1    2    0    0  0.37033363009E+02 -0.85497889624E+02 -0.96145224676E+02  0.18322829919E+03  0.12508935322E+03 0.  0.
        -24    2    1    2    0    0 -0.14589428247E+02  0.51684184302E+02  0.17345549364E+03  0.19851532875E+03  0.80233541291E+02 0.  0.
        -11    1    3    3    0    0  0.12096827901E+02  0.46908241926E+01 -0.12333119236E+03  0.12401177398E+03  0.00000000000E+00 0.  1.
         12    1    3    3    0    0 -0.34540762663E+02  0.29122881129E+02 -0.31508525498E+02  0.55081699953E+02  0.00000000000E+00 0. -1.
         13    1    5    5    0    0 -0.18612463741E+02 -0.14496720967E+02  0.83477063015E+02  0.86746750804E+02  0.00000000000E+00 0. -1.
        -14    1    5    5    0    0  0.40230354943E+01  0.66180905268E+02  0.89978430628E+02  0.11176857794E+03  0.00000000000E+00 0.  1.
          5    1    4    4  501    0  0.77616183046E+02 -0.84689509602E+02 -0.66626425720E+02  0.13286511172E+03  0.41800000000E+01 0.  1.
         -5    1    4    4    0  501 -0.40582820036E+02 -0.80838002160E+00 -0.29518798956E+02  0.50363187470E+02  0.41800000000E+01 0.  1.
</event>
<event>
11    1  0.8039394E-009  0.7887731E+03  0.7561462E-02  0.8910825E-01
         22   -1    0    0    0    0  0.00000000000E+00  0.00000000000E+00  0.35016211813E+03  0.35016211813E+03  0.00000000000E+00 0. -1.
         22   -1    0    0    0    0 -0.00000000000E+00 -0.00000000000E+00 -0.26960436091E+04  0.26960436091E+04  0.00000000000E+00 0. -1.
        -24    2    1    2    0    0 -0.65438212907E+03 -0.25379129242E+03 -0.10859158883E+04  0.12967826212E+04  0.99024538492E+02 0.  0.
         25    2    1    2    0    0  0.76728008047E+03  0.48688190529E+03 -0.11091480452E+04  0.14393158132E+04  0.12509161646E+03 0.  0.
         24    2    1    2    0    0 -0.11289795140E+03 -0.23309061287E+03 -0.15081755746E+03  0.31010729277E+03  0.79645565792E+02 0.  0.
        -13    1    5    5    0    0 -0.68274737704E+02 -0.56094674799E+02 -0.52386861474E+02  0.10272504857E+03  0.00000000000E+00 0.  1.
         14    1    5    5    0    0 -0.44623213697E+02 -0.17699593807E+03 -0.98430695989E+02  0.20738224420E+03  0.00000000000E+00 0. -1.
         11    1    3    3    0    0 -0.59624444788E+03 -0.19805240845E+03 -0.96426142915E+03  0.11508832703E+04  0.00000000000E+00 0. -1.
        -12    1    3    3    0    0 -0.58137681193E+02 -0.55738883964E+02 -0.12165445917E+03  0.14589935091E+03  0.00000000000E+00 0.  1.
          5    1    4    4  501    0  0.59876773003E+02  0.28462958136E+02 -0.13930513565E+03  0.15433327947E+03  0.41800000000E+01 0. -1.
         -5    1    4    4    0  501  0.70740330747E+03  0.45841894715E+03 -0.96984290952E+03  0.12849825338E+04  0.41800000000E+01 0. -1.
</event>
<event>
11    1  0.8039394E-009  0.1505808E+03  0.7561462E-02  0.1096287E+00
         22   -1    0    0    0    0  0.00000000000E+00  0.00000000000E+00  0.17203943431E+04  0.17203943431E+04  0.00000000000E+00 0. -1.
         22   -1    0    0    0    0 -0.00000000000E+00 -0.00000000000E+00 -0.26845462560E+03  0.26845462560E+03  0.00000000000E+00 0. -1.
         24    2    1    2    0    0  0.13828987075E+02  0.78521524810E+02 -0.15015346686E+03  0.18963259885E+03  0.84009453006E+02 0.  0.
         25    2    1    2    0    0 -0.52175005775E+02 -0.88227032127E+02 -0.30132011451E+02  0.16451225117E+03  0.12510036868E+03 0.  0.
        -24    2    1    2    0    0  0.38346018700E+02  0.97055073176E+01  0.16322251958E+04  0.16347041187E+04  0.80832244748E+02 0.  0.
        -13    1    3    3    0    0 -0.33961257203E+02  0.23675607570E+02 -0.39581575899E+02  0.57276544373E+02  0.00000000000E+00 0.  1.
         14    1    3    3    0    0  0.47790244278E+02  0.54845917240E+02 -0.11057189096E+03  0.13235605448E+03  0.00000000000E+00 0. -1.
         13    1    5    5    0    0  0.54940439622E+02  0.17108680444E+02  0.15137739506E+04  0.15148672326E+04  0.00000000000E+00 0. -1.
        -14    1    5    5    0    0 -0.16594420922E+02 -0.74031731260E+01  0.11845124521E+03  0.11983688610E+03  0.00000000000E+00 0.  1.
          5    1    4    4  501    0  0.95736992199E+01 -0.93584668789E+02  0.27879676562E+01  0.94207171238E+02  0.41800000000E+01 0.  1.
         -5    1    4    4    0  501 -0.61748704995E+02  0.53576366614E+01 -0.32919979107E+02  0.70305079927E+02  0.41800000000E+01 0.  1.
</event>
<event>
11    1  0.8039394E-009  0.1623661E+03  0.7561462E-02  0.1084873E+00
         22   -1    0    0    0    0  0.00000000000E+00  0.00000000000E+00  0.59506987337E+03  0.59506987337E+03  0.00000000000E+00 0.  1.
         22   -1    0    0    0    0 -0.00000000000E+00 -0.00000000000E+00 -0.13287609688E+03  0.13287609688E+03  0.00000000000E+00 0. -1.
        -24    2    1    2    0    0  0.57997719288E+01  0.66974019240E+01 -0.55922280223E+02  0.99094270752E+02  0.81325767894E+02 0.  0.
         25    2    1    2    0    0  0.42656242174E+02  0.86509665410E+02  0.91587470393E+02  0.18258993616E+03  0.12508933947E+03 0.  0.
         24    2    1    2    0    0 -0.48456014103E+02 -0.93207067334E+02  0.42652858632E+03  0.44626176334E+03  0.78659924767E+02 0.  0.
        -11    1    5    5    0    0  0.96315712858E+00 -0.76313823815E+02  0.29579165166E+03  0.30547901494E+03  0.00000000000E+00 0.  1.
         12    1    5    5    0    0 -0.49419171231E+02 -0.16893243519E+02  0.13073693466E+03  0.14078274840E+03  0.00000000000E+00 0. -1.
         11    1    3    3    0    0 -0.35876017399E+02 -0.90270304637E+01 -0.21391030972E+02  0.42733501020E+02  0.00000000000E+00 0. -1.
        -12    1    3    3    0    0  0.41675789327E+02  0.15724432388E+02 -0.34531249251E+02  0.56360769732E+02  0.00000000000E+00 0.  1.
          5    1    4    4  501    0  0.93940583770E+01  0.11397368091E+03  0.70321175775E+02  0.13431600215E+03  0.41800000000E+01 0. -1.
         -5    1    4    4    0  501  0.33262183797E+02 -0.27464015496E+02  0.21266294618E+02  0.48273934011E+02  0.41800000000E+01 0. -1.
</event>
<event>
11    1  0.8039394E-009  0.1411537E+03  0.7561462E-02  0.1106277E+00
         22   -1    0    0    0    0  0.00000000000E+00  0.00000000000E+00  0.14838009833E+04  0.14838009833E+04  0.00000000000E+00 0. -1.
         22   -1    0    0    0    0 -0.00000000000E+00 -0.00000000000E+00 -0.31972548408E+03  0.31972548408E+03  0.00000000000E+00 0. -1.
         24    2    1    2    0    0  0.57776379358E+01  0.15868173284E+02 -0.29646405225E+03  0.30773269748E+03  0.80766941237E+02 0.  0.
         25    2    1    2    0    0 -0.43033004526E+02 -0.66955911269E+02  0.34434666914E+03  0.37491065036E+03  0.12509369958E+03 0.  0.
        -24    2    1    2    0    0  0.37255366591E+02  0.51087737985E+02  0.11161928823E+04  0.11208831195E+04  0.80588446971E+02 0.  0.
        -11    1    3    3    0    0  0.15441794161E+02  0.36470089249E+02 -0.72471001200E+02  0.82586696457E+02  0.00000000000E+00 0.  1.
         12    1    3    3    0    0 -0.96641562251E+01 -0.20601915965E+02 -0.22399305105E+03  0.22514600102E+03  0.00000000000E+00 0. -1.
         11    1    5    5    0    0  0.36403925779E+01  0.31568200950E+02  0.93627210214E+03  0.93681121524E+03  0.00000000000E+00 0. -1.
        -12    1    5    5    0    0  0.33614974013E+02  0.19519537034E+02  0.17992078017E+03  0.18407190427E+03  0.00000000000E+00 0.  1.
          5    1    4    4  501    0 -0.67803650915E+02 -0.22855853245E+02  0.87550849703E+02  0.11314746479E+03  0.41800000000E+01 0. -1.
         -5    1    4    4    0  501  0.24770646388E+02 -0.44100058024E+02  0.25679581944E+03  0.26176318557E+03  0.41800000000E+01 0. -1.
</event>
<event>
11    1  0.8039394E-009  0.1499086E+03  0.7561462E-02  0.1096972E+00
         22   -1    0    0    0    0  0.00000000000E+00  0.00000000000E+00  0.76164312024E+03  0.76164312024E+03  0.00000000000E+00 0.  1.
         22   -1    0    0    0    0 -0.00000000000E+00 -0.00000000000E+00 -0.27502952984E+03  0.27502952984E+03  0.00000000000E+00 0. -1.
        -24    2    1    2    0    0  0.58920262005E+02 -0.59368921190E+02 -0.24282600324E+03  0.26958356348E+03  0.81942441808E+02 0.  0.
         25    2    1    2    0    0 -0.23157769355E+02  0.55403028785E+02  0.32974897753E+03  0.35775717282E+03  0.12510007452E+03 0.  0.
         24    2    1    2    0    0 -0.35762492650E+02  0.39658924052E+01  0.39969061611E+03  0.40933191377E+03  0.80655705588E+02 0.  0.
        -11    1    5    5    0    0 -0.56454472280E+02  0.10068813223E+01  0.36069304590E+03  0.36508573598E+03  0.00000000000E+00 0.  1.
         12    1    5    5    0    0  0.20691979630E+02  0.29590110829E+01  0.38997570204E+02  0.44246177795E+02  0.00000000000E+00 0. -1.
         11    1    3    3    0    0  0.15028921574E+02 -0.69187138796E+02 -0.12822935842E+03  0.14647695047E+03  0.00000000000E+00 0. -1.
        -12    1    3    3    0    0  0.43891340431E+02  0.98182176066E+01 -0.11459664482E+03  0.12310661301E+03  0.00000000000E+00 0.  1.
          5    1    4    4  501    0  0.15872565342E+02  0.51099109160E+02  0.44305902876E+02  0.69595565356E+02  0.41800000000E+01 0.  1.
         -5    1    4    4    0  501 -0.39030334697E+02  0.43039196241E+01  0.28544307465E+03  0.28816160747E+03  0.41800000000E+01 0.  1.
</event>
<event>
11    1  0.8039394E-009  0.1425498E+03  0.7561462E-02  0.1104744E+00
         22   -1    0    0    0    0  0.00000000000E+00  0.00000000000E+00  0.81262867906E+03  0.81262867906E+03  0.00000000000E+00 0.  1.
         22   -1    0    0    0    0 -0.00000000000E+00 -0.00000000000E+00 -0.11708904753E+04  0.11708904753E+04  0.00000000000E+00 0. -1.
        -24    2    1    2    0    0 -0.50523366037E+02 -0.50613722845E+00 -0.94208732588E+03  0.94678944402E+03  0.79554101279E+02 0.  0.
         25    2    1    2    0    0  0.66614782113E+01 -0.52575491723E+02 -0.20226763981E+03  0.24365595151E+03  0.12508983561E+03 0.  0.
         24    2    1    2    0    0  0.43861887826E+02  0.53081628952E+02  0.78609316947E+03  0.79307375881E+03  0.79259013953E+02 0.  0.
        -13    1    5    5    0    0  0.12823320312E+02 -0.16126084280E+02  0.33626860947E+03  0.33689919242E+03  0.00000000000E+00 0.  1.
         14    1    5    5    0    0  0.31038567513E+02  0.69207713232E+02  0.44982456000E+03  0.45617456639E+03  0.00000000000E+00 0. -1.
         11    1    3    3    0    0 -0.15892310499E+02  0.25039300159E+02 -0.12122819686E+03  0.12480307609E+03  0.00000000000E+00 0. -1.
        -12    1    3    3    0    0 -0.34631055538E+02 -0.25545437387E+02 -0.82085912902E+03  0.82198636794E+03  0.00000000000E+00 0.  1.
          5    1    4    4  501    0 -0.54230028284E+02 -0.79147781341E+00 -0.99454623356E+02  0.11335879724E+03  0.41800000000E+01 0.  1.
         -5    1    4    4    0  501  0.60891506496E+02 -0.51784013910E+02 -0.10281301645E+03  0.13029715427E+03  0.41800000000E+01 0.  1.
</event>
<event>
11    1  0.8039394E-009  0.1311255E+03  0.7561462E-02  0.1117894E+00
         22   -1    0    0    0    0  0.00000000000E+00  0.00000000000E+00  0.58023270050E+02  0.58023270050E+02  0.00000000000E+00 0.  1.
         22   -1    0    0    0    0 -0.00000000000E+00 -0.00000000000E+00 -0.10985101887E+04  0.10985101887E+04  0.00000000000E+00 0. -1.
        -24    2    1    2    0    0 -0.39663604105E+02 -0.12810751169E+02 -0.51991641728E+03  0.52770846943E+03  0.80161280681E+02 0.  0.
         25    2    1    2    0    0  0.13977934722E+02 -0.20633810546E+02 -0.51896679482E+03  0.53440897060E+03  0.12508108144E+03 0.  0.
         24    2    1    2    0    0  0.25685669383E+02  0.33444561715E+02 -0.16037065211E+01  0.94416018687E+02  0.84460170436E+02 0.  0.
        -11    1    5    5    0    0  0.15085614878E+02  0.31259250950E+02  0.39108662521E+02  0.52289616851E+02  0.00000000000E+00 0.  1.
         12    1    5    5    0    0  0.10600054505E+02  0.21853107651E+01 -0.40712369042E+02  0.42126401836E+02  0.00000000000E+00 0. -1.
         11    1    3    3    0    0 -0.44971374316E+02  0.42817296179E+01 -0.49485318266E+03  0.49691088749E+03  0.00000000000E+00 0. -1.
        -12    1    3    3    0    0  0.53077702111E+01 -0.17092480787E+02 -0.25063234616E+02  0.30797581942E+02  0.00000000000E+00 0.  1.
          5    1    4    4  501    0  0.37453691459E+02 -0.19159997171E+02 -0.52844982117E+02  0.67675320690E+02  0.41800000000E+01 0. -1.
         -5    1    4    4    0  501 -0.23475756737E+02 -0.14738133746E+01 -0.46612181270E+03  0.46673364991E+03  0.41800000000E+01 0. -1.
</event>
<event>
11    1  0.8039394E-009  0.1992895E+03  0.7561462E-02  0.1055027E+00
         22   -1    0    0    0    0  0.00000000000E+00  0.00000000000E+00  0.13516710076E+04  0.13516710076E+04  0.00000000000E+00 0.  1.
         22   -1    0    0    0    0 -0.00000000000E+00 -0.00000000000E+00 -0.46565968781E+03  0.46565968781E+03  0.00000000000E+00 0.  1.
        -24    2    1    2    0    0 -0.13009595106E+02  0.12518343548E+02 -0.43293570060E+03  0.44049035231E+03  0.79198933932E+02 0.  0.
         25    2    1    2    0    0  0.56543240980E+02  0.13903625223E+03  0.45799972091E+03  0.49793431939E+03  0.12508646825E+03 0.  0.
         24    2    1    2    0    0 -0.43533645874E+02 -0.15155459578E+03  0.86094729943E+03  0.87890602366E+03  0.79884743244E+02 0.  0.
        -13    1    5    5    0    0 -0.40782023803E+02 -0.41983872314E+02  0.44199935730E+03  0.44585788190E+03  0.00000000000E+00 0.  1.
         14    1    5    5    0    0 -0.27516220712E+01 -0.10957072347E+03  0.41894794214E+03  0.43304814177E+03  0.00000000000E+00 0. -1.
         11    1    3    3    0    0  0.18065394951E+02  0.84996362892E+01 -0.28246814443E+02  0.34590241947E+02  0.00000000000E+00 0. -1.
        -12    1    3    3    0    0 -0.31074990057E+02  0.40187072589E+01 -0.40468888616E+03  0.40590011036E+03  0.00000000000E+00 0.  1.
          5    1    4    4  501    0 -0.28081153902E+02  0.34804426760E+02  0.44754016863E+02  0.63405786423E+02  0.41800000000E+01 0.  1.
         -5    1    4    4    0  501  0.84624394882E+02  0.10423182547E+03  0.41324570405E+03  0.43452853297E+03  0.41800000000E+01 0.  1.
</event>
<event>
11    1  0.8740515E-009  0.1471719E+03  0.7561462E-02  0.1099804E+00
         22   -1    0    0    0    0  0.00000000000E+00  0.00000000000E+00  0.11357691669E+04  0.11357691669E+04  0.00000000000E+00 0.  1.
         22   -1    0    0    0    0 -0.00000000000E+00 -0.00000000000E+00 -0.42795102413E+03  0.42795102413E+03  0.00000000000E+00 0.  1.
        -24    2    1    2    0    0 -0.74900302458E+02 -0.68022679315E+01 -0.33054153776E+03  0.34824827810E+03  0.79767342047E+02 0.  0.
         25    2    1    2    0    0 -0.53216441657E+01 -0.20750078611E+01 -0.38588407388E+02  0.13103452209E+03  0.12509338608E+03 0.  0.
         24    2    1    2    0    0  0.80221946623E+02  0.88772757927E+01  0.10769480879E+04  0.10844373908E+04  0.98350921877E+02 0.  0.
        -13    1    5    5    0    0  0.87597635444E+02  0.55812364898E+01  0.51466787950E+03  0.52209914970E+03  0.00000000000E+00 0.  1.
         14    1    5    5    0    0 -0.73756888207E+01  0.32960393029E+01  0.56228020839E+03  0.56233824111E+03  0.00000000000E+00 0. -1.
         13    1    3    3    0    0 -0.51024091348E+02 -0.23502866220E+02 -0.91014308777E+02  0.10695535059E+03  0.00000000000E+00 0. -1.
        -14    1    3    3    0    0 -0.23876211110E+02  0.16700598288E+02 -0.23952722898E+03  0.24129292750E+03  0.00000000000E+00 0.  1.
          5    1    4    4  501    0  0.43601200480E+02 -0.42935063426E+02 -0.18056394189E+02  0.63937392235E+02  0.41800000000E+01 0. -1.
         -5    1    4    4    0  501 -0.48922844646E+02  0.40860055565E+02 -0.20532013199E+02  0.67097129857E+02  0.41800000000E+01 0. -1.
</event>
<event>
11    1  0.8039394E-009  0.1504267E+03  0.7561462E-02  0.1096444E+00
         22   -1    0    0    0    0  0.00000000000E+00  0.00000000000E+00  0.78119416652E+03  0.78119416652E+03  0.00000000000E+00 0.  1.
         22   -1    0    0    0    0 -0.00000000000E+00 -0.00000000000E+00 -0.16202742752E+04  0.16202742752E+04  0.00000000000E+00 0. -1.
         24    2    1    2    0    0  0.26083946477E+02 -0.67848328134E+02 -0.15610388521E+04  0.15648127730E+04  0.80702844387E+02 0.  0.
         25    2    1    2    0    0 -0.24941842970E+02 -0.21914684190E+02  0.28312093186E+02  0.13248426506E+03  0.12509259352E+03 0.  0.
        -24    2    1    2    0    0 -0.11421035073E+01  0.89763012324E+02  0.69364665025E+03  0.70417140358E+03  0.81565847250E+02 0.  0.
        -11    1    3    3    0    0  0.27304996612E+02  0.11124345157E+01 -0.18098939402E+03  0.18304087276E+03  0.00000000000E+00 0.  1.
         12    1    3    3    0    0 -0.12210501351E+01 -0.68960762649E+02 -0.13800494581E+04  0.13817719003E+04  0.00000000000E+00 0. -1.
         13    1    5    5    0    0 -0.19694571618E+01  0.14809487265E+02  0.42502153550E+03  0.42528402899E+03  0.00000000000E+00 0. -1.
        -14    1    5    5    0    0  0.82735365448E+00  0.74953525059E+02  0.26862511475E+03  0.27888737459E+03  0.00000000000E+00 0.  1.
          5    1    4    4  501    0 -0.24512290532E+01 -0.68421879367E+02 -0.82061212739E+01  0.69082377828E+02  0.41800000000E+01 0. -1.
         -5    1    4    4    0  501 -0.22490613917E+02  0.46507195177E+02  0.36518214460E+02  0.63401887234E+02  0.41800000000E+01 0. -1.
</event>
<event>
11    1  0.8039394E-009  0.2510724E+03  0.7561462E-02  0.1023329E+00
         22   -1    0    0    0    0  0.00000000000E+00  0.00000000000E+00  0.87225414196E+03  0.87225414196E+03  0.00000000000E+00 0.  1.
         22   -1    0    0    0    0 -0.00000000000E+00 -0.00000000000E+00 -0.24045674416E+04  0.24045674416E+04  0.00000000000E+00 0.  1.
         24    2    1    2    0    0  0.59447733911E+02 -0.76590402663E+02 -0.22490016630E+04  0.22526288453E+04  0.83235279747E+02 0.  0.
         25    2    1    2    0    0 -0.26224248327E+03  0.12499048089E+03  0.49572048233E+02  0.32015552427E+03  0.12509369053E+03 0.  0.
        -24    2    1    2    0    0  0.20279474936E+03 -0.48400078224E+02  0.66711631512E+03  0.70403721397E+03  0.84592805937E+02 0.  0.
        -11    1    3    3    0    0  0.78020542521E+02 -0.75743080065E+02 -0.19819919706E+04  0.19849726423E+04  0.00000000000E+00 0.  1.
         12    1    3    3    0    0 -0.18572808610E+02 -0.84732259793E+00 -0.26700969238E+03  0.26765620299E+03  0.00000000000E+00 0. -1.
         11    1    5    5    0    0  0.11314499011E+03 -0.32822228415E+01  0.24095928863E+03  0.26622160045E+03  0.00000000000E+00 0. -1.
        -12    1    5    5    0    0  0.89649759249E+02 -0.45117855383E+02  0.42615702650E+03  0.43781561352E+03  0.00000000000E+00 0.  1.
          5    1    4    4  501    0 -0.49259139078E+02  0.56785415648E+02  0.59944192908E+02  0.96238375280E+02  0.41800000000E+01 0.  1.
         -5    1    4    4    0  501 -0.21298334419E+03  0.68205065239E+02 -0.10372144676E+02  0.22391714899E+03  0.41800000000E+01 0.  1.
</event>
<event>
11    1  0.8039394E-009  0.2347455E+03  0.7561462E-02  0.1032355E+00
         22   -1    0    0    0    0  0.00000000000E+00  0.00000000000E+00  0.31425960542E+03  0.31425960542E+03  0.00000000000E+00 0.  1.
         22   -1    0    0    0    0 -0.00000000000E+00 -0.00000000000E+00 -0.38372310094E+03  0.38372310094E+03  0.00000000000E+00 0.  1.
         24    2    1    2    0    0  0.72403343115E+02  0.17694602110E+03 -0.22219030361E+03  0.30402260473E+03  0.80678836701E+02 0.  0.
         25    2    1    2    0    0 -0.76728968619E+02 -0.21624736182E+03  0.66575191948E+02  0.26968697491E+03  0.12509417307E+03 0.  0.
        -24    2    1    2    0    0  0.43256255038E+01  0.39301340723E+02  0.86151616144E+02  0.12427312672E+03  0.80364187562E+02 0.  0.
        -11    1    3    3    0    0  0.36311440625E+02  0.12970413557E+03 -0.98752581411E+02  0.16701423843E+03  0.00000000000E+00 0.  1.
         12    1    3    3    0    0  0.36091902490E+02  0.47241885528E+02 -0.12343772220E+03  0.13700836629E+03  0.00000000000E+00 0. -1.
         13    1    5    5    0    0 -0.30680641732E+02  0.38677947459E+02  0.70143443558E+02  0.85775218279E+02  0.00000000000E+00 0. -1.
        -14    1    5    5    0    0  0.35006267235E+02  0.62339326426E+00  0.16008172586E+02  0.38497908443E+02  0.00000000000E+00 0.  1.
          5    1    4    4  501    0 -0.10231899682E+03 -0.20340702260E+03  0.41672170243E+02  0.23151163281E+03  0.41800000000E+01 0. -1.
         -5    1    4    4    0  501  0.25590028203E+02 -0.12840339221E+02  0.24903021706E+02  0.38175342105E+02  0.41800000000E+01 0.  1.
</event>
<event>
11    1  0.8039394E-009  0.1386114E+03  0.7561462E-02  0.1109119E+00
         22   -1    0    0    0    0  0.00000000000E+00  0.00000000000E+00  0.81039015280E+03  0.81039015280E+03  0.00000000000E+00 0. -1.
         22   -1    0    0    0    0 -0.00000000000E+00 -0.00000000000E+00 -0.78735406838E+03  0.78735406838E+03  0.00000000000E+00 0.  1.
        -24    2    1    2    0    0 -0.29750328999E+02  0.14166039030E+02 -0.62673450017E+03  0.63234244675E+03  0.77298625573E+02 0.  0.
         25    2    1    2    0    0 -0.28442154676E+02 -0.30014928997E+02 -0.12595062765E+03  0.18226137630E+03  0.12508315857E+03 0.  0.
         24    2    1    2    0    0  0.58192483675E+02  0.15848889967E+02  0.77572121224E+03  0.78314039814E+03  0.89038933119E+02 0.  0.
        -13    1    5    5    0    0 -0.17672005551E+02 -0.47309916109E+01  0.51252134856E+02  0.54419329186E+02  0.00000000000E+00 0.  1.
         14    1    5    5    0    0  0.75864489226E+02  0.20579881578E+02  0.72446907739E+03  0.72872106896E+03  0.00000000000E+00 0. -1.
         13    1    3    3    0    0  0.76843570589E+01 -0.75495570964E+01 -0.12157009112E+02  0.16243091648E+02  0.00000000000E+00 0. -1.
        -14    1    3    3    0    0 -0.37434686058E+02  0.21715596126E+02 -0.61457749106E+03  0.61609935510E+03  0.00000000000E+00 0.  1.
          5    1    4    4  501    0 -0.54559059100E+02  0.89611691527E+01 -0.12317124517E+03  0.13507635441E+03  0.41800000000E+01 0. -1.
         -5    1    4    4    0  501  0.26116904423E+02 -0.38976098150E+02 -0.27793824739E+01  0.47185021888E+02  0.41800000000E+01 0. -1.
</event>
<event>
11    1  0.8039394E-009  0.1356465E+03  0.7561462E-02  0.1112520E+00
         22   -1    0    0    0    0  0.00000000000E+00  0.00000000000E+00  0.25153007510E+03  0.25153007510E+03  0.00000000000E+00 0. -1.
         22   -1    0    0    0    0 -0.00000000000E+00 -0.00000000000E+00 -0.38497981906E+04  0.38497981906E+04  0.00000000000E+00 0.  1.
        -24    2    1    2    0    0 -0.47717636932E+02  0.25632984321E+02 -0.30559019602E+04  0.30573811930E+04  0.78159747117E+02 0.  0.
         25    2    1    2    0    0  0.97786297896E+02 -0.39111622877E+02 -0.77525162788E+03  0.79230886458E+03  0.12508545582E+03 0.  0.
         24    2    1    2    0    0 -0.50068660964E+02  0.13478638557E+02  0.23288547267E+03  0.25163820805E+03  0.79984997732E+02 0.  0.
        -13    1    5    5    0    0 -0.66414733699E+02  0.29000921277E+02  0.16861497756E+03  0.18352923730E+03  0.00000000000E+00 0.  1.
         14    1    5    5    0    0  0.16346072735E+02 -0.15522282720E+02  0.64270495105E+02  0.68108970743E+02  0.00000000000E+00 0. -1.
         11    1    3    3    0    0 -0.69078417366E+01  0.31639173936E+02 -0.45452927576E+03  0.45568148758E+03  0.00000000000E+00 0. -1.
        -12    1    3    3    0    0 -0.40809795195E+02 -0.60061896152E+01 -0.26013726845E+04  0.26016997054E+04  0.00000000000E+00 0.  1.
          5    1    4    4  501    0  0.11045144682E+03 -0.20940638283E+02 -0.37716791572E+03  0.39358752709E+03  0.41800000000E+01 0. -1.
         -5    1    4    4    0  501 -0.12665148920E+02 -0.18170984595E+02 -0.39808371217E+03  0.39872133749E+03  0.41800000000E+01 0. -1.
</event>
<event>
11    1  0.8039394E-009  0.2368746E+03  0.7561462E-02  0.1031133E+00
         22   -1    0    0    0    0  0.00000000000E+00  0.00000000000E+00  0.85788696990E+03  0.85788696990E+03  0.00000000000E+00 0.  1.
         22   -1    0    0    0    0 -0.00000000000E+00 -0.00000000000E+00 -0.93521806149E+03  0.93521806149E+03  0.00000000000E+00 0.  1.
        -24    2    1    2    0    0 -0.20814788036E+03  0.60149225477E+02 -0.58634564213E+03  0.63102650079E+03  0.86312010916E+02 0.  0.
         25    2    1    2    0    0  0.15655170442E+03 -0.85724666735E+02 -0.28624179605E+03  0.35977679375E+03  0.12509125017E+03 0.  0.
         24    2    1    2    0    0  0.51596175932E+02  0.25575441258E+02  0.79525634659E+03  0.80230173685E+03  0.89101916935E+02 0.  0.
        -13    1    5    5    0    0  0.35464492313E+02 -0.10633436996E+02  0.66775299517E+03  0.66877863509E+03  0.00000000000E+00 0.  1.
         14    1    5    5    0    0  0.16131683619E+02  0.36208878254E+02  0.12750335142E+03  0.13352310176E+03  0.00000000000E+00 0. -1.
         11    1    3    3    0    0 -0.14789927213E+03  0.17586724125E+02 -0.29473535184E+03  0.33023085136E+03  0.00000000000E+00 0. -1.
        -12    1    3    3    0    0 -0.60248608226E+02  0.42562501352E+02 -0.29161029029E+03  0.30079564943E+03  0.00000000000E+00 0.  1.
          5    1    4    4  501    0 -0.90500822433E+00  0.98594973640E+01  0.74495610395E+01  0.13076585481E+02  0.41800000000E+01 0. -1.
         -5    1    4    4    0  501  0.15745671265E+03 -0.95584164099E+02 -0.29369135709E+03  0.34670020826E+03  0.41800000000E+01 0. -1.
</event>
<event>
11    1  0.8039394E-009  0.1593551E+03  0.7561462E-02  0.1087685E+00
         22   -1    0    0    0    0  0.00000000000E+00  0.00000000000E+00  0.10034258346E+04  0.10034258346E+04  0.00000000000E+00 0. -1.
         22   -1    0    0    0    0 -0.00000000000E+00 -0.00000000000E+00 -0.13895257935E+04  0.13895257935E+04  0.00000000000E+00 0.  1.
         24    2    1    2    0    0  0.82136083204E+02 -0.55478176194E+02 -0.13155718565E+04  0.13217286809E+04  0.80082657410E+02 0.  0.
         25    2    1    2    0    0 -0.18983588588E+02  0.12053820389E+03  0.47280261684E+02  0.18103129828E+03  0.12508825915E+03 0.  0.
        -24    2    1    2    0    0 -0.63152494616E+02 -0.65060027699E+02  0.88219163594E+03  0.89019164900E+03  0.77188371097E+02 0.  0.
        -11    1    3    3    0    0  0.67779938272E+02 -0.30269366259E+02 -0.12090662198E+04  0.12113428410E+04  0.00000000000E+00 0.  1.
         12    1    3    3    0    0  0.14356144932E+02 -0.25208809935E+02 -0.10650563666E+03  0.11038583983E+03  0.00000000000E+00 0. -1.
         11    1    5    5    0    0 -0.73564368241E+02 -0.73526006237E+02  0.81991783676E+03  0.82648838401E+03  0.00000000000E+00 0. -1.
        -12    1    5    5    0    0  0.10411873624E+02  0.84659785381E+01  0.62273799184E+02  0.63703264985E+02  0.00000000000E+00 0.  1.
          5    1    4    4  501    0  0.17611222900E+02 -0.64600858530E+01 -0.24051320777E+02  0.30786787951E+02  0.41800000000E+01 0. -1.
         -5    1    4    4    0  501 -0.36594811487E+02  0.12699828975E+03  0.71331582461E+02  0.15024451032E+03  0.41800000000E+01 0. -1.
</event>
<event>
11    1  0.8039394E-009  0.2356555E+03  0.7561462E-02  0.1031831E+00
         22   -1    0    0    0    0  0.00000000000E+00  0.00000000000E+00  0.70532509122E+03  0.70532509122E+03  0.00000000000E+00 0. -1.
         22   -1    0    0    0    0 -0.00000000000E+00 -0.00000000000E+00 -0.31305981907E+03  0.31305981907E+03  0.00000000000E+00 0. -1.
        -24    2    1    2    0    0  0.17901727095E+02  0.15419354767E+02 -0.69593761459E+02  0.10849635910E+03  0.79811903678E+02 0.  0.
         25    2    1    2    0    0  0.18237895754E+03  0.51174291401E+01 -0.14568872422E+03  0.26488014524E+03  0.12509202510E+03 0.  0.
         24    2    1    2    0    0 -0.20028068463E+03 -0.20536783907E+02  0.60754775783E+03  0.64500840595E+03  0.79921546340E+02 0.  0.
        -11    1    5    5    0    0 -0.10991656791E+03  0.13653116473E+02  0.22979176167E+03  0.25509275416E+03  0.00000000000E+00 0.  1.
         12    1    5    5    0    0 -0.90364116722E+02 -0.34189900380E+02  0.37775599616E+03  0.38991565179E+03  0.00000000000E+00 0. -1.
         13    1    3    3    0    0 -0.29912392906E+02 -0.42060737886E+01 -0.16582745097E+02  0.34459102441E+02  0.00000000000E+00 0. -1.
        -14    1    3    3    0    0  0.47814120000E+02  0.19625428556E+02 -0.53011016361E+02  0.74037256656E+02  0.00000000000E+00 0.  1.
          5    1    4    4  501    0 -0.30393315529E+01 -0.15857589240E+02  0.11992774182E+02  0.20542631413E+02  0.41800000000E+01 0. -1.
         -5    1    4    4    0  501  0.18541828909E+03  0.20975018380E+02 -0.15768149840E+03  0.24433751383E+03  0.41800000000E+01 0. -1.
</event>
<event>
11    1  0.8039394E-009  0.1318076E+03  0.7561462E-02  0.1117068E+00
         22   -1    0    0    0    0  0.00000000000E+00  0.00000000000E+00  0.10336470066E+03  0.10336470066E+03  0.00000000000E+00 0. -1.
         22   -1    0    0    0    0 -0.00000000000E+00 -0.00000000000E+00 -0.46006019594E+03  0.46006019594E+03  0.00000000000E+00 0. -1.
        -24    2    1    2    0    0  0.11927131558E+02  0.42369495827E+02 -0.29040242249E+03  0.30468740743E+03  0.81014928339E+02 0.  0.
         25    2    1    2    0    0 -0.35999121488E+02 -0.19112138549E+02 -0.99721404594E+02  0.16509331067E+03  0.12510088772E+03 0.  0.
         24    2    1    2    0    0  0.24071989930E+02 -0.23257357278E+02  0.33428331807E+02  0.93644178504E+02  0.80817160514E+02 0.  0.
        -11    1    5    5    0    0  0.31935558383E+02 -0.48466444714E+02  0.11168565935E+02  0.59106793328E+02  0.00000000000E+00 0.  1.
         12    1    5    5    0    0 -0.78635684531E+01  0.25209087435E+02  0.22259765871E+02  0.34537385176E+02  0.00000000000E+00 0. -1.
         11    1    3    3    0    0  0.23167102889E+02  0.34572894983E+02 -0.28776165583E+03  0.29075551636E+03  0.00000000000E+00 0. -1.
        -12    1    3    3    0    0 -0.11239971331E+02  0.77966008439E+01 -0.26407666529E+01  0.13931891069E+02  0.00000000000E+00 0.  1.
          5    1    4    4  501    0 -0.65133173873E+02 -0.13572986899E+02 -0.11388693812E+03  0.13196311373E+03  0.41800000000E+01 0. -1.
         -5    1    4    4    0  501  0.29134052386E+02 -0.55391516493E+01  0.14165533523E+02  0.33130196942E+02  0.41800000000E+01 0. -1.
</event>
<event>
11    1  0.8039394E-009  0.1498208E+03  0.7561462E-02  0.1097062E+00
         22   -1    0    0    0    0  0.00000000000E+00  0.00000000000E+00  0.17257267968E+03  0.17257267968E+03  0.00000000000E+00 0. -1.
         22   -1    0    0    0    0 -0.00000000000E+00 -0.00000000000E+00 -0.49759702451E+03  0.49759702451E+03  0.00000000000E+00 0.  1.
         24    2    1    2    0    0 -0.39188876236E+02 -0.12390057084E+01 -0.33802618366E+03  0.34987471852E+03  0.81322288884E+02 0.  0.
         25    2    1    2    0    0  0.30629387848E+02 -0.81418239079E+02 -0.80342966690E+02  0.17224992987E+03  0.12509179425E+03 0.  0.
        -24    2    1    2    0    0  0.85594883873E+01  0.82657244787E+02  0.93344805518E+02  0.14804505580E+03  0.79363725161E+02 0.  0.
        -11    1    3    3    0    0 -0.32479659577E+02  0.11912449747E+02 -0.33220995485E+03  0.33400642037E+03  0.00000000000E+00 0.  1.
         12    1    3    3    0    0 -0.67092166586E+01 -0.13151455456E+02 -0.58162288022E+01  0.15868298152E+02  0.00000000000E+00 0. -1.
         11    1    5    5    0    0 -0.16601562936E+02  0.86912266331E+02  0.79809982008E+02  0.11915950302E+03  0.00000000000E+00 0. -1.
        -12    1    5    5    0    0  0.25161051324E+02 -0.42550215434E+01  0.13534823510E+02  0.28885552781E+02  0.00000000000E+00 0.  1.
          5    1    4    4  501    0 -0.23673698911E+02  0.99293988970E+01 -0.58016379920E+02  0.63579947480E+02  0.41800000000E+01 0. -1.
         -5    1    4    4    0  501  0.54303086759E+02 -0.91347637976E+02 -0.22326586770E+02  0.10866998239E+03  0.41800000000E+01 0. -1.
</event>
<event>
11    1  0.8039394E-009  0.3124699E+03  0.7561462E-02  0.9950476E-01
         22   -1    0    0    0    0  0.00000000000E+00  0.00000000000E+00  0.69050430179E+03  0.69050430179E+03  0.00000000000E+00 0.  1.
         22   -1    0    0    0    0 -0.00000000000E+00 -0.00000000000E+00 -0.16575918508E+04  0.16575918508E+04  0.00000000000E+00 0. -1.
         24    2    1    2    0    0  0.79970698340E+02  0.27600242434E+03 -0.15503832645E+04  0.15791612412E+04  0.86540787248E+02 0.  0.
         25    2    1    2    0    0 -0.10223760062E+03 -0.25001915930E+03  0.16227644967E+03  0.33903160313E+03  0.12508666919E+03 0.  0.
        -24    2    1    2    0    0  0.22266902281E+02 -0.25983265042E+02  0.42101926588E+03  0.42990330825E+03  0.79929263741E+02 0.  0.
        -13    1    3    3    0    0 -0.14239407189E+02  0.90531591417E+02 -0.43595147725E+03  0.44547998864E+03  0.00000000000E+00 0.  1.
         14    1    3    3    0    0  0.94210105529E+02  0.18547083292E+03 -0.11144317873E+04  0.11336812525E+04  0.00000000000E+00 0. -1.
         11    1    5    5    0    0 -0.20323202529E+02 -0.15824396492E+02  0.49383804439E+02  0.55697434647E+02  0.00000000000E+00 0. -1.
        -12    1    5    5    0    0  0.42590104811E+02 -0.10158868550E+02  0.37163546144E+03  0.37420587360E+03  0.00000000000E+00 0.  1.
          5    1    4    4  501    0 -0.86588767848E+02 -0.21923794979E+03  0.78762260836E+02  0.24856359242E+03  0.41800000000E+01 0. -1.
         -5    1    4    4    0  501 -0.15648832773E+02 -0.30781209508E+02  0.83514188833E+02  0.90468010713E+02  0.41800000000E+01 0. -1.
</event>
<event>
11    1  0.8039394E-009  0.1312243E+03  0.7561462E-02  0.1117774E+00
         22   -1    0    0    0    0  0.00000000000E+00  0.00000000000E+00  0.17588239369E+03  0.17588239369E+03  0.00000000000E+00 0.  1.
         22   -1    0    0    0    0 -0.00000000000E+00 -0.00000000000E+00 -0.23567967369E+04  0.23567967369E+04  0.00000000000E+00 0.  1.
        -24    2    1    2    0    0 -0.41083931786E+01  0.37882727954E+02 -0.21712665302E+04  0.21730357232E+04  0.78955235740E+02 0.  0.
         25    2    1    2    0    0  0.23414678744E+01  0.44894461990E+01 -0.14837968188E+03  0.19413816191E+03  0.12508980101E+03 0.  0.
         24    2    1    2    0    0  0.17669253043E+01 -0.42372174153E+02  0.13873186891E+03  0.16550524542E+03  0.79667632352E+02 0.  0.
        -13    1    5    5    0    0  0.13128825461E+02 -0.57963261790E+02  0.13252235335E+03  0.14523869978E+03  0.00000000000E+00 0.  1.
         14    1    5    5    0    0 -0.11361900157E+02  0.15591087637E+02  0.62095155525E+01  0.20266545642E+02  0.00000000000E+00 0. -1.
         13    1    3    3    0    0  0.12978309893E+02 -0.11948835830E+02 -0.14284017216E+03  0.14392541814E+03  0.00000000000E+00 0. -1.
        -14    1    3    3    0    0 -0.17086703072E+02  0.49831563784E+02 -0.20284263580E+04  0.20291103051E+04  0.00000000000E+00 0.  1.
          5    1    4    4  501    0 -0.30124750802E+02 -0.88003548418E+01  0.89411063304E+01  0.32899280214E+02  0.41800000000E+01 0. -1.
         -5    1    4    4    0  501  0.32466218676E+02  0.13289801041E+02 -0.15732078821E+03  0.16123888170E+03  0.41800000000E+01 0. -1.
</event>
<event>
11    1  0.8039394E-009  0.1896004E+03  0.7561462E-02  0.1062131E+00
         22   -1    0    0    0    0  0.00000000000E+00  0.00000000000E+00  0.62457131720E+03  0.62457131720E+03  0.00000000000E+00 0. -1.
         22   -1    0    0    0    0 -0.00000000000E+00 -0.00000000000E+00 -0.15548484756E+03  0.15548484756E+03  0.00000000000E+00 0. -1.
         24    2    1    2    0    0 -0.91606060662E+02 -0.11985104312E+03 -0.60500348074E+02  0.18222538425E+03  0.82400580461E+02 0.  0.
         25    2    1    2    0    0  0.74749723754E+02  0.78455902449E+02  0.22486845475E+03  0.27920636906E+03  0.12509006656E+03 0.  0.
        -24    2    1    2    0    0  0.16856336908E+02  0.41395140667E+02  0.30471836297E+03  0.31862441146E+03  0.81673380486E+02 0.  0.
        -11    1    3    3    0    0 -0.60899913972E+02 -0.20567313818E+02 -0.41684585906E+02  0.76612131035E+02  0.00000000000E+00 0.  1.
         12    1    3    3    0    0 -0.30706146690E+02 -0.99283729298E+02 -0.18815762168E+02  0.10561325321E+03  0.00000000000E+00 0. -1.
         13    1    5    5    0    0 -0.25531578496E+02  0.61696427774E+01  0.37515349953E+02  0.45796588023E+02  0.00000000000E+00 0. -1.
        -14    1    5    5    0    0  0.42387915403E+02  0.35225497890E+02  0.26720301302E+03  0.27282782343E+03  0.00000000000E+00 0.  1.
          5    1    4    4  501    0  0.45719863198E+02 -0.92230457746E+01  0.15882954362E+03  0.16558884863E+03  0.41800000000E+01 0. -1.
         -5    1    4    4    0  501  0.29029860556E+02  0.87678948224E+02  0.66038911130E+02  0.11361752043E+03  0.41800000000E+01 0. -1.
</event>
<event>
11    1  0.8039394E-009  0.1651076E+03  0.7561462E-02  0.1082369E+00
         22   -1    0    0    0    0  0.00000000000E+00  0.00000000000E+00  0.59437496408E+03  0.59437496408E+03  0.00000000000E+00 0. -1.
         22   -1    0    0    0    0 -0.00000000000E+00 -0.00000000000E+00 -0.15444395738E+04  0.15444395738E+04  0.00000000000E+00 0.  1.
        -24    2    1    2    0    0 -0.94135195624E+02 -0.48890352257E+02 -0.13539081694E+04  0.13602364245E+04  0.76968161070E+02 0.  0.
         25    2    1    2    0    0  0.12872394154E+03  0.38205999449E+02 -0.13807980427E+03  0.22966401954E+03  0.12509987211E+03 0.  0.
         24    2    1    2    0    0 -0.34588745921E+02  0.10684352808E+02  0.54192336397E+03  0.54891409380E+03  0.79468315763E+02 0.  0.
        -11    1    5    5    0    0  0.24087988774E+02  0.12733740341E+02  0.12974130391E+03  0.13257143465E+03  0.00000000000E+00 0.  1.
         12    1    5    5    0    0 -0.58676734695E+02 -0.20493875331E+01  0.41218206007E+03  0.41634265915E+03  0.00000000000E+00 0. -1.
         13    1    3    3    0    0  0.75143109630E+01  0.10802051861E+02 -0.12943881130E+03  0.13010593785E+03  0.00000000000E+00 0. -1.
        -14    1    3    3    0    0 -0.10164950659E+03 -0.59692404117E+02 -0.12244693581E+04  0.12301304867E+04  0.00000000000E+00 0.  1.
          5    1    4    4  501    0  0.36298279349E+02 -0.44571892949E+02 -0.58958516048E+02  0.82448758265E+02  0.41800000000E+01 0. -1.
         -5    1    4    4    0  501  0.92425662195E+02  0.82777892398E+02 -0.79121288223E+02  0.14721526127E+03  0.41800000000E+01 0. -1.
</event>
<event>
11    1  0.8039394E-009  0.1739460E+03  0.7561462E-02  0.1074648E+00
         22   -1    0    0    0    0  0.00000000000E+00  0.00000000000E+00  0.82617266714E+03  0.82617266714E+03  0.00000000000E+00 0. -1.
         22   -1    0    0    0    0 -0.00000000000E+00 -0.00000000000E+00 -0.19517940825E+03  0.19517940825E+03  0.00000000000E+00 0. -1.
        -24    2    1    2    0    0 -0.57566941035E+02 -0.51949693008E+02 -0.13322753013E+03  0.17407015092E+03  0.80858638074E+02 0.  0.
         25    2    1    2    0    0 -0.76203994742E+02  0.54018909615E+02  0.16130274035E+03  0.22448265201E+03  0.12509514619E+03 0.  0.
         24    2    1    2    0    0  0.13377093578E+03 -0.20692166067E+01  0.60291804867E+03  0.62279927246E+03  0.80435163053E+02 0.  0.
        -13    1    5    5    0    0  0.38949618068E+01 -0.18578829165E+02  0.33311391442E+02  0.38340480180E+02  0.00000000000E+00 0.  1.
         14    1    5    5    0    0  0.12987597397E+03  0.16509612558E+02  0.56960665723E+03  0.58445879228E+03  0.00000000000E+00 0. -1.
         13    1    3    3    0    0 -0.44973346556E+02 -0.72204064752E+01 -0.11580867921E+03  0.12444431024E+03  0.00000000000E+00 0. -1.
        -14    1    3    3    0    0 -0.12593594478E+02 -0.44729286533E+02 -0.17418850922E+02  0.49625840679E+02  0.00000000000E+00 0.  1.
          5    1    4    4  501    0 -0.10237487273E+03  0.79252380586E+01  0.11142866997E+03  0.15158246883E+03  0.41800000000E+01 0. -1.
         -5    1    4    4    0  501  0.26170877986E+02  0.46093671556E+02  0.49874070382E+02  0.72900183186E+02  0.41800000000E+01 0. -1.
</event>
<event>
11    1  0.8039394E-009  0.1950111E+03  0.7561462E-02  0.1058109E+00
         22   -1    0    0    0    0  0.00000000000E+00  0.00000000000E+00  0.15086994297E+04  0.15086994297E+04  0.00000000000E+00 0.  1.
         22   -1    0    0    0    0 -0.00000000000E+00 -0.00000000000E+00 -0.34477977124E+03  0.34477977124E+03  0.00000000000E+00 0.  1.
        -24    2    1    2    0    0 -0.35874595686E+02 -0.76635957185E+01 -0.28739209079E+03  0.30054358780E+03  0.79915686854E+02 0.  0.
         25    2    1    2    0    0  0.15018857063E+03  0.98484305257E+02  0.21945928686E+03  0.30994078585E+03  0.12508056210E+03 0.  0.
         24    2    1    2    0    0 -0.11431397495E+03 -0.90820709539E+02  0.12318524624E+04  0.12429948273E+04  0.79117415575E+02 0.  0.
        -11    1    5    5    0    0 -0.11373633471E+03 -0.59128815037E+02  0.10971527561E+04  0.11046159246E+04  0.00000000000E+00 0.  1.
         12    1    5    5    0    0 -0.57764023793E+00 -0.31691894502E+02  0.13469970630E+03  0.13837890273E+03  0.00000000000E+00 0. -1.
         11    1    3    3    0    0 -0.45355817654E+01  0.25436573372E+02 -0.32064737607E+02  0.41179341479E+02  0.00000000000E+00 0. -1.
        -12    1    3    3    0    0 -0.31339013920E+02 -0.33100169090E+02 -0.25532735318E+03  0.25936424632E+03  0.00000000000E+00 0.  1.
          5    1    4    4  501    0  0.13388287150E+03  0.57181522529E+02  0.85801275619E+02  0.16903751387E+03  0.41800000000E+01 0.  1.
         -5    1    4    4    0  501  0.16305699138E+02  0.41302782729E+02  0.13365801124E+03  0.14090327198E+03  0.41800000000E+01 0.  1.
</event>
<event>
11    1  0.8039394E-009  0.1886118E+03  0.7561462E-02  0.1062882E+00
         22   -1    0    0    0    0  0.00000000000E+00  0.00000000000E+00  0.74639933108E+03  0.74639933108E+03  0.00000000000E+00 0. -1.
         22   -1    0    0    0    0 -0.00000000000E+00 -0.00000000000E+00 -0.25093161298E+03  0.25093161298E+03  0.00000000000E+00 0.  1.
         24    2    1    2    0    0 -0.68373807554E+02  0.49588560753E+02 -0.17203902314E+03  0.20769990837E+03  0.80048882162E+02 0.  0.
         25    2    1    2    0    0  0.15396449064E+03  0.60376589212E+02  0.17711699126E+03  0.27270271506E+03  0.12508375316E+03 0.  0.
        -24    2    1    2    0    0 -0.85590683084E+02 -0.10996514996E+03  0.49038974998E+03  0.51692832063E+03  0.85525917396E+02 0.  0.
        -13    1    3    3    0    0 -0.76051431416E+02  0.64419761337E+02 -0.14759415217E+03  0.17809480516E+03  0.00000000000E+00 0.  1.
         14    1    3    3    0    0  0.76776238622E+01 -0.14831200585E+02 -0.24444870972E+02  0.29605103205E+02  0.00000000000E+00 0. -1.
         13    1    5    5    0    0 -0.57175785020E+02 -0.11210469324E+03  0.45154223944E+03  0.46875038841E+03  0.00000000000E+00 0. -1.
        -14    1    5    5    0    0 -0.28414898064E+02  0.21395432802E+01  0.38847510541E+02  0.48177932217E+02  0.00000000000E+00 0.  1.
          5    1    4    4  501    0  0.15955173841E+03  0.14491406967E+02  0.14624367258E+03  0.21695954064E+03  0.41800000000E+01 0.  1.
         -5    1    4    4    0  501 -0.55872477768E+01  0.45885182244E+02  0.30873318681E+02  0.55743174414E+02  0.41800000000E+01 0.  1.
</event>
<event>
11    1  0.8039394E-009  0.1662293E+03  0.7561462E-02  0.1081360E+00
         22   -1    0    0    0    0  0.00000000000E+00  0.00000000000E+00  0.23660160680E+03  0.23660160680E+03  0.00000000000E+00 0. -1.
         22   -1    0    0    0    0 -0.00000000000E+00 -0.00000000000E+00 -0.11966920217E+04  0.11966920217E+04  0.00000000000E+00 0. -1.
        -24    2    1    2    0    0  0.16800760718E+02  0.63407992648E+02 -0.78794925165E+03  0.79468797604E+03  0.79762879775E+02 0.  0.
         25    2    1    2    0    0 -0.86620830612E+02 -0.14366479341E+03 -0.35558108506E+03  0.41258601504E+03  0.12508625261E+03 0.  0.
         24    2    1    2    0    0  0.69820069894E+02  0.80256800764E+02  0.18343992183E+03  0.22601963739E+03  0.78221961975E+02 0.  0.
        -13    1    5    5    0    0  0.37801366819E+01  0.63048268061E+02  0.77154935209E+02  0.99710869849E+02  0.00000000000E+00 0.  1.
         14    1    5    5    0    0  0.66039933212E+02  0.17208532703E+02  0.10628498662E+03  0.12630876754E+03  0.00000000000E+00 0. -1.
         11    1    3    3    0    0 -0.97354048314E+00  0.75279663459E+02 -0.46717053003E+03  0.47319792861E+03  0.00000000000E+00 0. -1.
        -12    1    3    3    0    0  0.17774301201E+02 -0.11871670812E+02 -0.32077872162E+03  0.32149004743E+03  0.00000000000E+00 0.  1.
          5    1    4    4  501    0 -0.70789067668E+02 -0.15222922656E+02 -0.18287565332E+03  0.19673283013E+03  0.41800000000E+01 0. -1.
         -5    1    4    4    0  501 -0.15831762944E+02 -0.12844187076E+03 -0.17270543174E+03  0.21585318491E+03  0.41800000000E+01 0. -1.
</event>
<event>
11    1  0.8039394E-009  0.1618317E+03  0.7561462E-02  0.1085367E+00
         22   -1    0    0    0    0  0.00000000000E+00  0.00000000000E+00  0.72474376201E+03  0.72474376201E+03  0.00000000000E+00 0.  1.
         22   -1    0    0    0    0 -0.00000000000E+00 -0.00000000000E+00 -0.38060592753E+03  0.38060592753E+03  0.00000000000E+00 0. -1.
         24    2    1    2    0    0 -0.28181586480E+02 -0.53249621203E+02 -0.33479716281E+03  0.34925596265E+03  0.79125616896E+02 0.  0.
         25    2    1    2    0    0  0.53467211367E+02 -0.56695406484E+02  0.15344815178E+03  0.21275876168E+03  0.12508734380E+03 0.  0.
        -24    2    1    2    0    0 -0.25285624887E+02  0.10994502769E+03  0.52548684551E+03  0.54333496521E+03  0.79681790133E+02 0.  0.
        -11    1    3    3    0    0 -0.22535254223E+02 -0.64910468245E+01 -0.19611965072E+02  0.30571237230E+02  0.00000000000E+00 0.  1.
         12    1    3    3    0    0 -0.56463322570E+01 -0.46758574379E+02 -0.31518519774E+03  0.31868472542E+03  0.00000000000E+00 0. -1.
         11    1    5    5    0    0  0.11329084546E+02 -0.44183793268E+01  0.17252887783E+02  0.21107637703E+02  0.00000000000E+00 0. -1.
        -12    1    5    5    0    0 -0.36614709434E+02  0.11436340701E+03  0.50823395772E+03  0.52222732751E+03  0.00000000000E+00 0.  1.
          5    1    4    4  501    0 -0.13021180678E+01 -0.82899972277E+02  0.11077614084E+03  0.13843022320E+03  0.41800000000E+01 0.  1.
         -5    1    4    4    0  501  0.54769329435E+02  0.26204565793E+02  0.42672010938E+02  0.74328538480E+02  0.41800000000E+01 0.  1.
</event>
<event>
11    1  0.8039394E-009  0.2090626E+03  0.7561462E-02  0.1048294E+00
         22   -1    0    0    0    0  0.00000000000E+00  0.00000000000E+00  0.74226792846E+02  0.74226792846E+02  0.00000000000E+00 0.  1.
         22   -1    0    0    0    0 -0.00000000000E+00 -0.00000000000E+00 -0.39941433594E+04  0.39941433594E+04  0.00000000000E+00 0. -1.
         24    2    1    2    0    0 -0.43800377418E+02  0.14304109929E+03 -0.24593280124E+04  0.24651595720E+04  0.79612899632E+02 0.  0.
         25    2    1    2    0    0  0.10618077300E+03 -0.23039568643E+03 -0.14397384146E+04  0.14672607815E+04  0.12510383556E+03 0.  0.
        -24    2    1    2    0    0 -0.62380395581E+02  0.87354587134E+02 -0.20850139537E+02  0.13594979868E+03  0.80780454292E+02 0.  0.
        -11    1    3    3    0    0 -0.14053927725E+02 -0.71069248664E+01 -0.30012487232E+03  0.30053778506E+03  0.00000000000E+00 0.  1.
         12    1    3    3    0    0 -0.29746449692E+02  0.15014802416E+03 -0.21592031401E+04  0.21646217870E+04  0.00000000000E+00 0. -1.
         13    1    5    5    0    0 -0.27940180447E+02  0.62615739734E+01 -0.36579399606E+02  0.46453347216E+02  0.00000000000E+00 0. -1.
        -14    1    5    5    0    0 -0.34440215134E+02  0.81093013160E+02  0.15729260069E+02  0.89496451462E+02  0.00000000000E+00 0.  1.
          5    1    4    4  501    0  0.87516896645E+02 -0.12648739661E+03 -0.11199594097E+04  0.11304799072E+04  0.41800000000E+01 0.  1.
         -5    1    4    4    0  501  0.18663876353E+02 -0.10390828981E+03 -0.31977900485E+03  0.33678087433E+03  0.41800000000E+01 0.  1.
</event>
<event>
11    1  0.8039394E-009  0.1892640E+03  0.7561462E-02  0.1062386E+00
         22   -1    0    0    0    0  0.00000000000E+00  0.00000000000E+00  0.27219116118E+03  0.27219116118E+03  0.00000000000E+00 0. -1.
         22   -1    0    0    0    0 -0.00000000000E+00 -0.00000000000E+00 -0.66960642863E+03  0.66960642863E+03  0.00000000000E+00 0. -1.
         24    2    1    2    0    0 -0.12870611169E+03 -0.25535335163E+02 -0.40936688135E+03  0.43722341005E+03  0.79785651772E+02 0.  0.
         25    2    1    2    0    0  0.16837155924E+03  0.10256141320E+03 -0.16836743856E+03  0.28788410224E+03  0.12514725932E+03 0.  0.
        -24    2    1    2    0    0 -0.39665447556E+02 -0.77026078034E+02  0.18031905246E+03  0.21669007752E+03  0.83266227195E+02 0.  0.
        -13    1    3    3    0    0 -0.55668921651E+02 -0.51074971848E+02 -0.18225100478E+03  0.19728940754E+03  0.00000000000E+00 0.  1.
         14    1    3    3    0    0 -0.73037190036E+02  0.25539636685E+02 -0.22711587657E+03  0.23993400251E+03  0.00000000000E+00 0. -1.
         11    1    5    5    0    0  0.75045149007E+01 -0.49433900501E+02  0.14033702604E+03  0.14897821700E+03  0.00000000000E+00 0. -1.
        -12    1    5    5    0    0 -0.47169962457E+02 -0.27592177532E+02  0.39982026415E+02  0.67711860522E+02  0.00000000000E+00 0.  1.
          5    1    4    4  501    0  0.27793652539E+02 -0.29390341503E+02 -0.29202027893E+02  0.50065058955E+02  0.41800000000E+01 0.  1.
         -5    1    4    4    0  501  0.14057790670E+03  0.13195175470E+03 -0.13916541067E+03  0.23781904328E+03  0.41800000000E+01 0.  1.
</event>
<event>
11    1  0.8039394E-009  0.1408933E+03  0.7561462E-02  0.1106565E+00
         22   -1    0    0    0    0  0.00000000000E+00  0.00000000000E+00  0.80023777530E+03  0.80023777530E+03  0.00000000000E+00 0. -1.
         22   -1    0    0    0    0 -0.00000000000E+00 -0.00000000000E+00 -0.10794271452E+04  0.10794271452E+04  0.00000000000E+00 0.  1.
         24    2    1    2    0    0  0.45816926563E+02 -0.45168020862E+02 -0.97573960043E+03  0.98126857692E+03  0.81736842003E+02 0.  0.
         25    2    1    2    0    0 -0.39818715117E+02  0.66649082288E+02 -0.43600293203E+02  0.15353322352E+03  0.12507531696E+03 0.  0.
        -24    2    1    2    0    0 -0.59982114458E+01 -0.21481061425E+02  0.74015052371E+03  0.74486312008E+03  0.80627882008E+02 0.  0.
        -13    1    3    3    0    0  0.21519137700E+02 -0.66752904961E+02 -0.58766828316E+03  0.59183868971E+03  0.00000000000E+00 0.  1.
         14    1    3    3    0    0  0.24297788864E+02  0.21584884099E+02 -0.38807131727E+03  0.38942988721E+03  0.00000000000E+00 0. -1.
         13    1    5    5    0    0  0.20782141137E+02 -0.40247468354E+02  0.55513274873E+03  0.55697766994E+03  0.00000000000E+00 0. -1.
        -14    1    5    5    0    0 -0.26780352582E+02  0.18766406928E+02  0.18501777499E+03  0.18788545014E+03  0.00000000000E+00 0.  1.
          5    1    4    4  501    0 -0.14191332609E+01  0.94115030922E+02 -0.85911236020E+01  0.94609369459E+02  0.41800000000E+01 0.  1.
         -5    1    4    4    0  501 -0.38399581857E+02 -0.27465948635E+02 -0.35009169601E+02  0.58923854060E+02  0.41800000000E+01 0.  1.
</event>
<event>
11    1  0.8039394E-009  0.1347377E+03  0.7561462E-02  0.1113581E+00
         22   -1    0    0    0    0  0.00000000000E+00  0.00000000000E+00  0.10448922703E+03  0.10448922703E+03  0.00000000000E+00 0.  1.
         22   -1    0    0    0    0 -0.00000000000E+00 -0.00000000000E+00 -0.22034602407E+04  0.22034602407E+04  0.00000000000E+00 0.  1.
         24    2    1    2    0    0 -0.22233456413E+02 -0.15483905021E+02 -0.20015343957E+04  0.20032652945E+04  0.78726265909E+02 0.  0.
         25    2    1    2    0    0  0.50338425368E+02  0.49208490521E+02 -0.12040325968E+03  0.18735154614E+03  0.12509286268E+03 0.  0.
        -24    2    1    2    0    0 -0.28104968955E+02 -0.33724585500E+02  0.22966641755E+02  0.11733262708E+03  0.10635902311E+03 0.  0.
        -11    1    3    3    0    0  0.23247618655E+02 -0.15808156147E+02 -0.12742724031E+04  0.12745824833E+04  0.00000000000E+00 0.  1.
         12    1    3    3    0    0 -0.45481075068E+02  0.32425112600E+00 -0.72726199262E+03  0.72868281114E+03  0.00000000000E+00 0. -1.
         11    1    5    5    0    0 -0.48344856990E+02 -0.33667072076E+02 -0.25964584943E+02  0.64380560815E+02  0.00000000000E+00 0. -1.
        -12    1    5    5    0    0  0.20239888035E+02 -0.57513423124E-01  0.48931226697E+02  0.52952066263E+02  0.00000000000E+00 0.  1.
          5    1    4    4  501    0  0.62988315994E+02  0.84690975688E+02 -0.87670057402E+02  0.13727199525E+03  0.41800000000E+01 0.  1.
         -5    1    4    4    0  501 -0.12649890625E+02 -0.35482485167E+02 -0.32733202278E+02  0.50079550895E+02  0.41800000000E+01 0.  1.
</event>
<event>
11    1  0.8039394E-009  0.1482298E+03  0.7561462E-02  0.1098701E+00
         22   -1    0    0    0    0  0.00000000000E+00  0.00000000000E+00  0.82175966243E+02  0.82175966243E+02  0.00000000000E+00 0.  1.
         22   -1    0    0    0    0 -0.00000000000E+00 -0.00000000000E+00 -0.16686624641E+04  0.16686624641E+04  0.00000000000E+00 0. -1.
         24    2    1    2    0    0 -0.51178906248E+02 -0.17855418929E+01 -0.81024557748E+03  0.81586712409E+03  0.80739084394E+02 0.  0.
         25    2    1    2    0    0  0.12594316900E+03  0.18789635201E+02 -0.79719339198E+03  0.81693280387E+03  0.12508864700E+03 0.  0.
        -24    2    1    2    0    0 -0.74764262756E+02 -0.17004093308E+02  0.20952471575E+02  0.11803850241E+03  0.87265387246E+02 0.  0.
        -11    1    3    3    0    0 -0.35249234803E+02  0.91510141854E+01 -0.12125819016E+03  0.12660883972E+03  0.00000000000E+00 0.  1.
         12    1    3    3    0    0 -0.15929671445E+02 -0.10936556078E+02 -0.68898738732E+03  0.68925828438E+03  0.00000000000E+00 0. -1.
         13    1    5    5    0    0  0.23753028362E+01  0.72734633373E+01 -0.24225432079E+02  0.25405056424E+02  0.00000000000E+00 0. -1.
        -14    1    5    5    0    0 -0.77139565592E+02 -0.24277556646E+02  0.45177903654E+02  0.92633445985E+02  0.00000000000E+00 0.  1.
          5    1    4    4  501    0  0.55205342875E+02  0.17347539698E+02 -0.96023054375E+02  0.11218942190E+03  0.41800000000E+01 0. -1.
         -5    1    4    4    0  501  0.70737826129E+02  0.14420955029E+01 -0.70117033761E+03  0.70474338197E+03  0.41800000000E+01 0. -1.
</event>
<event>
11    1  0.8039394E-009  0.1817801E+03  0.7561462E-02  0.1068212E+00
         22   -1    0    0    0    0  0.00000000000E+00  0.00000000000E+00  0.85084101557E+03  0.85084101557E+03  0.00000000000E+00 0.  1.
         22   -1    0    0    0    0 -0.00000000000E+00 -0.00000000000E+00 -0.18898269245E+03  0.18898269245E+03  0.00000000000E+00 0. -1.
         24    2    1    2    0    0 -0.85792373868E+02  0.96114744714E+02 -0.10583987507E+03  0.18485138800E+03  0.79809654345E+02 0.  0.
         25    2    1    2    0    0  0.52757270923E+02 -0.15612696429E+03  0.24117629806E+03  0.31776069543E+03  0.12508754615E+03 0.  0.
        -24    2    1    2    0    0  0.33035102944E+02  0.60012219576E+02  0.52652190012E+03  0.53721162459E+03  0.81720461115E+02 0.  0.
        -11    1    3    3    0    0 -0.10911541894E+02 -0.27283198498E+01 -0.45642574640E+02  0.47007979061E+02  0.00000000000E+00 0.  1.
         12    1    3    3    0    0 -0.74880831974E+02  0.98843064564E+02 -0.60197300427E+02  0.13784340894E+03  0.00000000000E+00 0. -1.
         11    1    5    5    0    0  0.50684350820E+01  0.65174119351E+02  0.22366176931E+03  0.23301918787E+03  0.00000000000E+00 0. -1.
        -12    1    5    5    0    0  0.27966667862E+02 -0.51618997745E+01  0.30286013081E+03  0.30419243672E+03  0.00000000000E+00 0.  1.
          5    1    4    4  501    0 -0.15459886726E+01 -0.13198713291E+03  0.21581105555E+03  0.25301161521E+03  0.41800000000E+01 0. -1.
         -5    1    4    4    0  501  0.54303259596E+02 -0.24139831380E+02  0.25365242511E+02  0.64749080221E+02  0.41800000000E+01 0. -1.
</event>
<event>
11    1  0.8039394E-009  0.1459998E+03  0.7561462E-02  0.1101038E+00
         22   -1    0    0    0    0  0.00000000000E+00  0.00000000000E+00  0.13268778289E+04  0.13268778289E+04  0.00000000000E+00 0. -1.
         22   -1    0    0    0    0 -0.00000000000E+00 -0.00000000000E+00 -0.67888035085E+03  0.67888035085E+03  0.00000000000E+00 0. -1.
         24    2    1    2    0    0 -0.10259983287E+02 -0.74569178828E+02 -0.65629613822E+03  0.66524716711E+03  0.78506959071E+02 0.  0.
         25    2    1    2    0    0  0.15652356381E+02  0.74870378317E+02  0.31238472235E+03  0.34508374743E+03  0.12509199882E+03 0.  0.
        -24    2    1    2    0    0 -0.53923730942E+01 -0.30119948918E+00  0.99190889393E+03  0.99542726522E+03  0.83444700742E+02 0.  0.
        -13    1    3    3    0    0 -0.17762800346E+02  0.34534945625E+01 -0.38988311340E+02  0.42982928261E+02  0.00000000000E+00 0.  1.
         14    1    3    3    0    0  0.75028170587E+01 -0.78022673390E+02 -0.61730782688E+03  0.62226423885E+03  0.00000000000E+00 0. -1.
         13    1    5    5    0    0 -0.27008690848E+02 -0.29419947456E+02  0.72052966122E+03  0.72163563894E+03  0.00000000000E+00 0. -1.
        -14    1    5    5    0    0  0.21616317754E+02  0.29118747967E+02  0.27137923271E+03  0.27379162628E+03  0.00000000000E+00 0.  1.
          5    1    4    4  501    0 -0.21857746482E+02 -0.28190992385E+02  0.95014236819E+02  0.10157593579E+03  0.41800000000E+01 0.  1.
         -5    1    4    4    0  501  0.37510102863E+02  0.10306137070E+03  0.21737048554E+03  0.24350781164E+03  0.41800000000E+01 0.  1.
</event>
<event>
11    1  0.8039394E-009  0.1574715E+03  0.7561462E-02  0.1089480E+00
         22   -1    0    0    0    0  0.00000000000E+00  0.00000000000E+00  0.30062724861E+03  0.30062724861E+03  0.00000000000E+00 0. -1.
         22   -1    0    0    0    0 -0.00000000000E+00 -0.00000000000E+00 -0.10489556327E+04  0.10489556327E+04  0.00000000000E+00 0. -1.
         24    2    1    2    0    0  0.89188278172E-01  0.56567531962E+02 -0.91327335753E+03  0.91834428741E+03  0.78026348220E+02 0.  0.
         25    2    1    2    0    0 -0.92874702937E+02 -0.72978508693E+02 -0.54006218910E+02  0.18032220836E+03  0.12509138247E+03 0.  0.
        -24    2    1    2    0    0  0.92785514659E+02  0.16410976731E+02  0.21895119236E+03  0.25091638553E+03  0.78364124468E+02 0.  0.
        -11    1    3    3    0    0 -0.29845263385E+02  0.29198025061E+02 -0.22265643002E+03  0.22653730431E+03  0.00000000000E+00 0.  1.
         12    1    3    3    0    0  0.29934451663E+02  0.27369506902E+02 -0.69061692751E+03  0.69180698311E+03  0.00000000000E+00 0. -1.
         13    1    5    5    0    0  0.40290261705E+02  0.39880534593E+02  0.63255245088E+02  0.84941086989E+02  0.00000000000E+00 0. -1.
        -14    1    5    5    0    0  0.52495252954E+02 -0.23469557862E+02  0.15569594727E+03  0.16597529854E+03  0.00000000000E+00 0.  1.
          5    1    4    4  501    0 -0.11229618064E+03 -0.81358157965E+02 -0.68116898449E+02  0.15455408861E+03  0.41800000000E+01 0.  1.
         -5    1    4    4    0  501  0.19421477700E+02  0.83796492714E+01  0.14110679539E+02  0.25768119741E+02  0.41800000000E+01 0.  1.
</event>
<event>
11    1  0.8039394E-009  0.2414049E+03  0.7561462E-02  0.1028580E+00
         22   -1    0    0    0    0  0.00000000000E+00  0.00000000000E+00  0.89306707127E+03  0.89306707127E+03  0.00000000000E+00 0. -1.
         22   -1    0    0    0    0 -0.00000000000E+00 -0.00000000000E+00 -0.24391006448E+03  0.24391006448E+03  0.00000000000E+00 0.  1.
         24    2    1    2    0    0  0.37272054531E+02  0.23183218999E+02 -0.12199887797E+03  0.15253659988E+03  0.80355587140E+02 0.  0.
         25    2    1    2    0    0 -0.23541930876E+03 -0.50384145344E+02  0.11611161697E+03  0.29510986233E+03  0.12508840958E+03 0.  0.
        -24    2    1    2    0    0  0.19814725423E+03  0.27200926345E+02  0.65504426779E+03  0.68933067353E+03  0.78048446258E+02 0.  0.
        -11    1    3    3    0    0  0.12141556628E+02  0.51898840622E+01 -0.12088976276E+03  0.12160874571E+03  0.00000000000E+00 0.  1.
         12    1    3    3    0    0  0.25130497903E+02  0.17993334937E+02 -0.11091152152E+01  0.30927854170E+02  0.00000000000E+00 0. -1.
         11    1    5    5    0    0  0.20522677065E+03  0.26913621664E+02  0.64117385440E+03  0.67375535767E+03  0.00000000000E+00 0. -1.
        -12    1    5    5    0    0 -0.70795164228E+01  0.28730468073E+00  0.13870413383E+02  0.15575315862E+02  0.00000000000E+00 0.  1.
          5    1    4    4  501    0 -0.24319858704E+03 -0.31339155568E+02  0.89165389733E+02  0.26095140264E+03  0.41800000000E+01 0.  1.
         -5    1    4    4    0  501  0.77792782873E+01 -0.19044989776E+02  0.26946227241E+02  0.34158459695E+02  0.41800000000E+01 0.  1.
</event>
<event>
11    1  0.8039394E-009  0.1399262E+03  0.7561462E-02  0.1107641E+00
         22   -1    0    0    0    0  0.00000000000E+00  0.00000000000E+00  0.20168642044E+03  0.20168642044E+03  0.00000000000E+00 0.  1.
         22   -1    0    0    0    0 -0.00000000000E+00 -0.00000000000E+00 -0.22007977025E+04  0.22007977025E+04  0.00000000000E+00 0. -1.
         24    2    1    2    0    0  0.44689689086E+02 -0.49564562215E+02 -0.19712979729E+04  0.19751435715E+04  0.10355006452E+03 0.  0.
         25    2    1    2    0    0 -0.35356376388E+02 -0.37184543323E+01 -0.19501267748E+03  0.23439353210E+03  0.12508590353E+03 0.  0.
        -24    2    1    2    0    0 -0.93333126985E+01  0.53283016548E+02  0.16719936833E+03  0.19294701934E+03  0.79666385165E+02 0.  0.
        -13    1    3    3    0    0  0.24013504942E+02 -0.48977399426E+02 -0.39919807838E+03  0.40290760710E+03  0.00000000000E+00 0.  1.
         14    1    3    3    0    0  0.20676184144E+02 -0.58716278903E+00 -0.15720998945E+04  0.15722359644E+04  0.00000000000E+00 0. -1.
         13    1    5    5    0    0 -0.43903153946E+01  0.38239219626E+02  0.17276021897E+02  0.42189734764E+02  0.00000000000E+00 0. -1.
        -14    1    5    5    0    0 -0.49429973039E+01  0.15043796921E+02  0.14992334643E+03  0.15075728458E+03  0.00000000000E+00 0.  1.
          5    1    4    4  501    0 -0.63606843193E+02 -0.27365840200E+02 -0.18253559799E+03  0.19527272376E+03  0.41800000000E+01 0. -1.
         -5    1    4    4    0  501  0.28250466806E+02  0.23647385868E+02 -0.12477079493E+02  0.39120808348E+02  0.41800000000E+01 0. -1.
</event>
<event>
11    1  0.8039394E-009  0.1950363E+03  0.7561462E-02  0.1058090E+00
         22   -1    0    0    0    0  0.00000000000E+00  0.00000000000E+00  0.44137694201E+04  0.44137694201E+04  0.00000000000E+00 0.  1.
         22   -1    0    0    0    0 -0.00000000000E+00 -0.00000000000E+00 -0.31423965345E+03  0.31423965345E+03  0.00000000000E+00 0. -1.
        -24    2    1    2    0    0 -0.86079373791E+02 -0.12687759395E+03 -0.25103494618E+03  0.30550459489E+03  0.82504126331E+02 0.  0.
         25    2    1    2    0    0  0.13956563997E+03  0.39756243942E+02  0.22870214666E+03  0.29834869811E+03  0.12509255368E+03 0.  0.
         24    2    1    2    0    0 -0.53486266181E+02  0.87121350006E+02  0.41218625662E+04  0.41241557806E+04  0.91972700136E+02 0.  0.
        -11    1    5    5    0    0 -0.67482513384E+02  0.96163464318E+02  0.32262082918E+04  0.32283465185E+04  0.00000000000E+00 0.  1.
         12    1    5    5    0    0  0.13996247203E+02 -0.90421143122E+01  0.89565427439E+03  0.89580926206E+03  0.00000000000E+00 0. -1.
         11    1    3    3    0    0 -0.80826955023E+02 -0.89158673575E+02 -0.23532103101E+03  0.26430711940E+03  0.00000000000E+00 0. -1.
        -12    1    3    3    0    0 -0.52524187682E+01 -0.37718920372E+02 -0.15713915167E+02  0.41197475491E+02  0.00000000000E+00 0.  1.
          5    1    4    4  501    0  0.43000283041E+02 -0.44429502853E+02  0.57991424325E+02  0.84873333625E+02  0.41800000000E+01 0. -1.
         -5    1    4    4    0  501  0.96565356931E+02  0.84185746795E+02  0.17071072233E+03  0.21347536448E+03  0.41800000000E+01 0. -1.
</event>
<event>
11    1  0.8039394E-009  0.1280236E+03  0.7561462E-02  0.1121721E+00
         22   -1    0    0    0    0  0.00000000000E+00  0.00000000000E+00  0.39933662779E+03  0.39933662779E+03  0.00000000000E+00 0.  1.
         22   -1    0    0    0    0 -0.00000000000E+00 -0.00000000000E+00 -0.51163846630E+03  0.51163846630E+03  0.00000000000E+00 0. -1.
        -24    2    1    2    0    0  0.10961702530E+02  0.26363658401E+02 -0.41972193914E+03  0.42819557370E+03  0.79810661744E+02 0.  0.
         25    2    1    2    0    0 -0.29324998072E+02  0.41878802895E+00 -0.32481574128E+02  0.13252335348E+03  0.12508899098E+03 0.  0.
         24    2    1    2    0    0  0.18363295542E+02 -0.26782446430E+02  0.33990167477E+03  0.35025616691E+03  0.78049496414E+02 0.  0.
        -11    1    5    5    0    0  0.43575126292E+01  0.61672818893E+01  0.28252127302E+03  0.28262217356E+03  0.00000000000E+00 0.  1.
         12    1    5    5    0    0  0.14005782913E+02 -0.32949728319E+02  0.57380401748E+02  0.67633993347E+02  0.00000000000E+00 0. -1.
         11    1    3    3    0    0 -0.15685318890E+02  0.47374409877E+02 -0.27997001986E+03  0.28438279828E+03  0.00000000000E+00 0. -1.
        -12    1    3    3    0    0  0.26647021420E+02 -0.21010751476E+02 -0.13975191929E+03  0.14381277542E+03  0.00000000000E+00 0.  1.
          5    1    4    4  501    0 -0.49053784289E+02  0.43437843329E+02  0.12798464162E+02  0.66890904248E+02  0.41800000000E+01 0.  1.
         -5    1    4    4    0  501  0.19728786217E+02 -0.43019055300E+02 -0.45280038290E+02  0.65632449231E+02  0.41800000000E+01 0.  1.
</event>
<event>
11    1  0.8039394E-009  0.1642103E+03  0.7561462E-02  0.1083183E+00
         22   -1    0    0    0    0  0.00000000000E+00  0.00000000000E+00  0.75290251944E+03  0.75290251944E+03  0.00000000000E+00 0. -1.
         22   -1    0    0    0    0 -0.00000000000E+00 -0.00000000000E+00 -0.48535871954E+03  0.48535871954E+03  0.00000000000E+00 0.  1.
        -24    2    1    2    0    0  0.10913566535E+02 -0.59151434143E+02 -0.34837847642E+03  0.36267612178E+03  0.80922236637E+02 0.  0.
         25    2    1    2    0    0  0.87305898154E+02  0.98356829723E+02 -0.56589557269E+02  0.19012169526E+03  0.12508994849E+03 0.  0.
         24    2    1    2    0    0 -0.98219464689E+02 -0.39205395580E+02  0.67251183359E+03  0.68546342193E+03  0.80023810196E+02 0.  0.
        -11    1    5    5    0    0 -0.30572590369E+02  0.84842348093E+01  0.64900593051E+02  0.72240933691E+02  0.00000000000E+00 0.  1.
         12    1    5    5    0    0 -0.67646874320E+02 -0.47689630389E+02  0.60761124054E+03  0.61322248824E+03  0.00000000000E+00 0. -1.
         11    1    3    3    0    0  0.33093101060E+02  0.38245083566E+01 -0.96028653991E+02  0.10164291706E+03  0.00000000000E+00 0. -1.
        -12    1    3    3    0    0 -0.22179534525E+02 -0.62975942499E+02 -0.25234982243E+03  0.26103320472E+03  0.00000000000E+00 0.  1.
          5    1    4    4  501    0 -0.29873048263E+02  0.30264747676E+01 -0.11472606166E+02  0.32413757176E+02  0.41800000000E+01 0. -1.
         -5    1    4    4    0  501  0.11717894642E+03  0.95330354955E+02 -0.45116951103E+02  0.15770793809E+03  0.41800000000E+01 0. -1.
</event>
<event>
11    1  0.8039394E-009  0.1659542E+03  0.7561462E-02  0.1081607E+00
         22   -1    0    0    0    0  0.00000000000E+00  0.00000000000E+00  0.14488583377E+04  0.14488583377E+04  0.00000000000E+00 0.  1.
         22   -1    0    0    0    0 -0.00000000000E+00 -0.00000000000E+00 -0.46021285721E+03  0.46021285721E+03  0.00000000000E+00 0.  1.
         24    2    1    2    0    0 -0.30778485248E+02 -0.10389079759E+03 -0.41972152398E+03  0.44101905499E+03  0.81185196884E+02 0.  0.
         25    2    1    2    0    0  0.41274926647E+01  0.13279072145E+03  0.26785685999E+03  0.32410562516E+03  0.12508695742E+03 0.  0.
        -24    2    1    2    0    0  0.26650992584E+02 -0.28899923860E+02  0.11405101445E+04  0.11439465148E+04  0.79402506098E+02 0.  0.
        -13    1    3    3    0    0 -0.33420308758E+02 -0.57825881623E+02 -0.35677570936E+03  0.36297335496E+03  0.00000000000E+00 0.  1.
         14    1    3    3    0    0  0.26418235100E+01 -0.46064915970E+02 -0.62945814626E+02  0.78045700034E+02  0.00000000000E+00 0. -1.
         11    1    5    5    0    0  0.17250687163E+02  0.25795300559E+02  0.53468108355E+03  0.53558084809E+03  0.00000000000E+00 0. -1.
        -12    1    5    5    0    0  0.94003054211E+01 -0.54695224419E+02  0.60582906098E+03  0.60836566672E+03  0.00000000000E+00 0.  1.
          5    1    4    4  501    0  0.35277264172E+02  0.14313278646E+03  0.23523855261E+03  0.27764388875E+03  0.41800000000E+01 0.  1.
         -5    1    4    4    0  501 -0.31149771508E+02 -0.10342065008E+02  0.32618307374E+02  0.46461736403E+02  0.41800000000E+01 0.  1.
</event>
<event>
11    1  0.8039394E-009  0.1440278E+03  0.7561462E-02  0.1103142E+00
         22   -1    0    0    0    0  0.00000000000E+00  0.00000000000E+00  0.87664405258E+03  0.87664405258E+03  0.00000000000E+00 0. -1.
         22   -1    0    0    0    0 -0.00000000000E+00 -0.00000000000E+00 -0.18461362691E+03  0.18461362691E+03  0.00000000000E+00 0.  1.
         24    2    1    2    0    0 -0.91685990358E+01 -0.73017938032E+02 -0.13977273968E+03  0.17814035138E+03  0.82352192138E+02 0.  0.
         25    2    1    2    0    0 -0.18920513098E+02 -0.84473512067E+01  0.17702512000E+03  0.21775204586E+03  0.12509483126E+03 0.  0.
        -24    2    1    2    0    0  0.28089112133E+02  0.81465289238E+02  0.65477804536E+03  0.66536528224E+03  0.80938733385E+02 0.  0.
        -13    1    3    3    0    0  0.31036003914E+01 -0.76636241032E+02 -0.14522331475E+03  0.16423323939E+03  0.00000000000E+00 0.  1.
         14    1    3    3    0    0 -0.12272199427E+02  0.36183030005E+01  0.54505750655E+01  0.13907111991E+02  0.00000000000E+00 0. -1.
         11    1    5    5    0    0  0.42991877045E+02  0.72811881901E+02  0.62699978978E+03  0.63267575267E+03  0.00000000000E+00 0. -1.
        -12    1    5    5    0    0 -0.14902764911E+02  0.86534073374E+01  0.27778255578E+02  0.32689529570E+02  0.00000000000E+00 0.  1.
          5    1    4    4  501    0 -0.26544073419E+02 -0.32628843035E+02  0.18583901024E+03  0.19058551718E+03  0.41800000000E+01 0.  1.
         -5    1    4    4    0  501  0.76235603217E+01  0.24181491828E+02 -0.88138902478E+01  0.27166528676E+02  0.41800000000E+01 0.  1.
</event>
<event>
11    1  0.8039394E-009  0.1903374E+03  0.7561462E-02  0.1061575E+00
         22   -1    0    0    0    0  0.00000000000E+00  0.00000000000E+00  0.45381007132E+03  0.45381007132E+03  0.00000000000E+00 0.  1.
         22   -1    0    0    0    0 -0.00000000000E+00 -0.00000000000E+00 -0.33787600819E+03  0.33787600819E+03  0.00000000000E+00 0. -1.
        -24    2    1    2    0    0 -0.39019086283E+02  0.14181832168E+03 -0.25111431917E+03  0.30335825677E+03  0.85632384060E+02 0.  0.
         25    2    1    2    0    0  0.11370582214E+03 -0.84482669561E+02  0.16506719788E+03  0.25091981239E+03  0.12508891634E+03 0.  0.
         24    2    1    2    0    0 -0.74686735853E+02 -0.57335652115E+02  0.20198118442E+03  0.23740801035E+03  0.81857675270E+02 0.  0.
        -11    1    5    5    0    0 -0.77545810087E+02 -0.35735230357E+02  0.19749537541E+03  0.21516222405E+03  0.00000000000E+00 0.  1.
         12    1    5    5    0    0  0.28590742343E+01 -0.21600421757E+02  0.44858090181E+01  0.22245786300E+02  0.00000000000E+00 0. -1.
         11    1    3    3    0    0 -0.54101658578E+02  0.54607968625E+02 -0.15299081679E+03  0.17121684999E+03  0.00000000000E+00 0. -1.
        -12    1    3    3    0    0  0.15082572295E+02  0.87210353051E+02 -0.98123502386E+02  0.13214140678E+03  0.00000000000E+00 0.  1.
          5    1    4    4  501    0  0.95355029427E+02  0.68836301969E+01  0.83138960854E+02  0.12676563104E+03  0.41800000000E+01 0.  1.
         -5    1    4    4    0  501  0.18350792708E+02 -0.91366299758E+02  0.81928237028E+02  0.12415418135E+03  0.41800000000E+01 0.  1.
</event>
<event>
11    1  0.8039394E-009  0.1265263E+03  0.7561462E-02  0.1123612E+00
         22   -1    0    0    0    0  0.00000000000E+00  0.00000000000E+00  0.68957865504E+03  0.68957865504E+03  0.00000000000E+00 0. -1.
         22   -1    0    0    0    0 -0.00000000000E+00 -0.00000000000E+00 -0.16511814544E+03  0.16511814544E+03  0.00000000000E+00 0.  1.
        -24    2    1    2    0    0  0.13602686887E+02 -0.99021975892E+01 -0.10559382785E+03  0.13531549787E+03  0.82928528720E+02 0.  0.
         25    2    1    2    0    0 -0.22443340284E+02  0.26628783719E+02  0.59318599923E+02  0.14275188143E+03  0.12508640098E+03 0.  0.
         24    2    1    2    0    0  0.88406533972E+01 -0.16726586130E+02  0.57073573754E+03  0.57662942118E+03  0.80026692008E+02 0.  0.
        -13    1    5    5    0    0 -0.34534643755E+02 -0.17089936403E+02  0.24310019124E+03  0.24613494374E+03  0.00000000000E+00 0.  1.
         14    1    5    5    0    0  0.43375297152E+02  0.36335027248E+00  0.32763554629E+03  0.33049447744E+03  0.00000000000E+00 0. -1.
         11    1    3    3    0    0 -0.24691036159E+02  0.41983771592E+01 -0.33996429670E+01  0.25275110478E+02  0.00000000000E+00 0. -1.
        -12    1    3    3    0    0  0.38293723046E+02 -0.14100574748E+02 -0.10219418489E+03  0.11004038739E+03  0.00000000000E+00 0.  1.
          5    1    4    4  501    0  0.39752137885E+02 -0.24110057138E+02  0.79183041437E+01  0.47346586594E+02  0.41800000000E+01 0. -1.
         -5    1    4    4    0  501 -0.62195478169E+02  0.50738840858E+02  0.51400295780E+02  0.95405294834E+02  0.41800000000E+01 0. -1.
</event>
<event>
11    1  0.8039394E-009  0.1413395E+03  0.7561462E-02  0.1106072E+00
         22   -1    0    0    0    0  0.00000000000E+00  0.00000000000E+00  0.11653752968E+04  0.11653752968E+04  0.00000000000E+00 0. -1.
         22   -1    0    0    0    0 -0.00000000000E+00 -0.00000000000E+00 -0.23399614081E+03  0.23399614081E+03  0.00000000000E+00 0. -1.
         24    2    1    2    0    0  0.33911986511E+02 -0.17667805109E+01 -0.12447045523E+03  0.15356139761E+03  0.83277033263E+02 0.  0.
         25    2    1    2    0    0 -0.93447692685E+02  0.27757255899E+02 -0.24493350293E+02  0.16046880626E+03  0.12508947618E+03 0.  0.
        -24    2    1    2    0    0  0.59535706175E+02 -0.25990475388E+02  0.10803429615E+04  0.10853412338E+04  0.81269145719E+02 0.  0.
        -11    1    3    3    0    0 -0.67645384042E+00 -0.78326822671E+00  0.12370307599E+02  0.12413525245E+02  0.00000000000E+00 0.  1.
         12    1    3    3    0    0  0.34588440351E+02 -0.98351228415E+00 -0.13684076283E+03  0.14114787237E+03  0.00000000000E+00 0. -1.
         13    1    5    5    0    0 -0.56072407256E+00 -0.15777505281E+02  0.69725239842E+03  0.69743110856E+03  0.00000000000E+00 0. -1.
        -14    1    5    5    0    0  0.60096430247E+02 -0.10212970107E+02  0.38309056310E+03  0.38791012519E+03  0.00000000000E+00 0.  1.
          5    1    4    4  501    0 -0.30700765591E+02 -0.22862724765E+02 -0.60787560528E+02  0.71957217195E+02  0.41800000000E+01 0.  1.
         -5    1    4    4    0  501 -0.62746927094E+02  0.50619980664E+02  0.36294210235E+02  0.88511589065E+02  0.41800000000E+01 0.  1.
</event>
<event>
11    1  0.8039394E-009  0.1275247E+03  0.7561462E-02  0.1122348E+00
         22   -1    0    0    0    0  0.00000000000E+00  0.00000000000E+00  0.14713062376E+04  0.14713062376E+04  0.00000000000E+00 0.  1.
         22   -1    0    0    0    0 -0.00000000000E+00 -0.00000000000E+00 -0.88356736962E+02  0.88356736962E+02  0.00000000000E+00 0. -1.
        -24    2    1    2    0    0  0.60668665874E+00 -0.24017576972E+02 -0.56795632142E+02  0.10300812231E+03  0.82508892611E+02 0.  0.
         25    2    1    2    0    0 -0.23175097615E+01  0.51494333777E+02  0.80388441130E+03  0.81519032247E+03  0.12509227733E+03 0.  0.
         24    2    1    2    0    0  0.17108231028E+01 -0.27476756805E+02  0.63586072145E+03  0.64146452975E+03  0.79999917303E+02 0.  0.
        -11    1    5    5    0    0  0.37470062928E+01 -0.28576952267E+02  0.63779644737E+03  0.63844732793E+03  0.00000000000E+00 0.  1.
         12    1    5    5    0    0 -0.20361831900E+01  0.11001954619E+01 -0.19357259196E+01  0.30172018285E+01  0.00000000000E+00 0. -1.
         13    1    3    3    0    0  0.33547843167E+02 -0.23391633893E+02 -0.56884999124E+02  0.70060898101E+02  0.00000000000E+00 0. -1.
        -14    1    3    3    0    0 -0.32941156509E+02 -0.62594307970E+00  0.89366982305E-01  0.32947224213E+02  0.00000000000E+00 0.  1.
          5    1    4    4  501    0 -0.22967766571E+02 -0.32841040229E+02  0.40188337149E+03  0.40389821602E+03  0.41800000000E+01 0.  1.
         -5    1    4    4    0  501  0.20650256809E+02  0.84335374006E+02  0.40200103981E+03  0.41129210644E+03  0.41800000000E+01 0.  1.
</event>
<event>
11    1  0.8039394E-009  0.1513403E+03  0.7561462E-02  0.1095517E+00
         22   -1    0    0    0    0  0.00000000000E+00  0.00000000000E+00  0.40269549682E+03  0.40269549682E+03  0.00000000000E+00 0. -1.
         22   -1    0    0    0    0 -0.00000000000E+00 -0.00000000000E+00 -0.52411611948E+03  0.52411611948E+03  0.00000000000E+00 0.  1.
        -24    2    1    2    0    0  0.28020903406E+02 -0.82340923243E+02 -0.39309457580E+03  0.41041563072E+03  0.79702231774E+02 0.  0.
         25    2    1    2    0    0 -0.55229039064E+01  0.77608166309E+02 -0.71261673700E+02  0.16364411190E+03  0.12509052433E+03 0.  0.
         24    2    1    2    0    0 -0.22497999500E+02  0.47327569340E+01  0.34293562684E+03  0.35275187368E+03  0.79375570937E+02 0.  0.
        -11    1    5    5    0    0  0.17115594084E+02  0.11409951589E+00  0.16120415518E+02  0.23512217590E+02  0.00000000000E+00 0.  1.
         12    1    5    5    0    0 -0.39613593584E+02  0.46186574181E+01  0.32681521132E+03  0.32923965609E+03  0.00000000000E+00 0. -1.
         13    1    3    3    0    0  0.94981266764E+01 -0.13289969790E+02 -0.70237653847E+01  0.17781197585E+02  0.00000000000E+00 0. -1.
        -14    1    3    3    0    0  0.18522776730E+02 -0.69050953454E+02 -0.38607081041E+03  0.39263443314E+03  0.00000000000E+00 0.  1.
          5    1    4    4  501    0 -0.43275839545E+02  0.80029250244E+02 -0.10138043657E+02  0.91639137448E+02  0.41800000000E+01 0. -1.
         -5    1    4    4    0  501  0.37752935639E+02 -0.24210839346E+01 -0.61123630043E+02  0.72004974455E+02  0.41800000000E+01 0. -1.
</event>
<event>
11    1  0.8039394E-009  0.2566491E+03  0.7561462E-02  0.1020416E+00
         22   -1    0    0    0    0  0.00000000000E+00  0.00000000000E+00  0.16816470545E+04  0.16816470545E+04  0.00000000000E+00 0.  1.
         22   -1    0    0    0    0 -0.00000000000E+00 -0.00000000000E+00 -0.10784785138E+03  0.10784785138E+03  0.00000000000E+00 0. -1.
        -24    2    1    2    0    0 -0.19026156463E+02 -0.30663710880E+02 -0.22602988760E+02  0.90487919535E+02  0.79843037807E+02 0.  0.
         25    2    1    2    0    0 -0.57581755481E+02  0.23584382750E+03  0.43002305453E+03  0.50941646290E+03  0.12508931092E+03 0.  0.
         24    2    1    2    0    0  0.76607911944E+02 -0.20518011662E+03  0.11663791374E+04  0.11895905235E+04  0.81961387443E+02 0.  0.
        -13    1    5    5    0    0 -0.14983421436E+02 -0.62562623897E+02  0.31372783531E+03  0.32025574074E+03  0.00000000000E+00 0.  1.
         14    1    5    5    0    0  0.91591333380E+02 -0.14261749272E+03  0.85265130206E+03  0.86933478274E+03  0.00000000000E+00 0. -1.
         13    1    3    3    0    0 -0.62609551889E+01 -0.22064255845E+02 -0.52261892520E+02  0.57073079079E+02  0.00000000000E+00 0. -1.
        -14    1    3    3    0    0 -0.12765201274E+02 -0.85994550350E+01  0.29658903760E+02  0.33414840456E+02  0.00000000000E+00 0.  1.
          5    1    4    4  501    0 -0.34757433090E+02  0.11816258990E+03  0.10141841515E+03  0.15960464949E+03  0.41800000000E+01 0.  1.
         -5    1    4    4    0  501 -0.22824322391E+02  0.11768123759E+03  0.32860463938E+03  0.34981181340E+03  0.41800000000E+01 0.  1.
</event>
<event>
11    1  0.8039394E-009  0.1343906E+03  0.7561462E-02  0.1113989E+00
         22   -1    0    0    0    0  0.00000000000E+00  0.00000000000E+00  0.42996366036E+03  0.42996366036E+03  0.00000000000E+00 0.  1.
         22   -1    0    0    0    0 -0.00000000000E+00 -0.00000000000E+00 -0.39464000503E+03  0.39464000503E+03  0.00000000000E+00 0. -1.
        -24    2    1    2    0    0  0.29823612473E+02  0.17145067517E+01 -0.22741830511E+03  0.24356144730E+03  0.81918897205E+02 0.  0.
         25    2    1    2    0    0  0.19729910841E+02  0.64067424266E+01 -0.12730662663E+03  0.17967086949E+03  0.12507728982E+03 0.  0.
         24    2    1    2    0    0 -0.49553523314E+02 -0.81212491783E+01  0.39004858707E+03  0.40137134859E+03  0.80246824456E+02 0.  0.
        -11    1    5    5    0    0 -0.47369398677E+02  0.77396278267E+01  0.37874128203E+03  0.38177050761E+03  0.00000000000E+00 0.  1.
         12    1    5    5    0    0 -0.21841246365E+01 -0.15860877005E+02  0.11307305037E+02  0.19600840977E+02  0.00000000000E+00 0. -1.
         13    1    3    3    0    0 -0.50605455160E+01  0.19117022952E+02 -0.18459514744E+03  0.18565138875E+03  0.00000000000E+00 0. -1.
        -14    1    3    3    0    0  0.34884157989E+02 -0.17402516200E+02 -0.42823157674E+02  0.57910058555E+02  0.00000000000E+00 0.  1.
          5    1    4    4  501    0  0.33318661078E+02  0.45409338818E+02 -0.12852256725E+02  0.57920584690E+02  0.41800000000E+01 0.  1.
         -5    1    4    4    0  501 -0.13588750237E+02 -0.39002596391E+02 -0.11445436990E+03  0.12175028480E+03  0.41800000000E+01 0.  1.
</event>
<event>
11    1  0.8039394E-009  0.1306687E+03  0.7561462E-02  0.1118450E+00
         22   -1    0    0    0    0  0.00000000000E+00  0.00000000000E+00  0.55944935290E+02  0.55944935290E+02  0.00000000000E+00 0.  1.
         22   -1    0    0    0    0 -0.00000000000E+00 -0.00000000000E+00 -0.12365491120E+04  0.12365491120E+04  0.00000000000E+00 0. -1.
         24    2    1    2    0    0 -0.27226409127E+02  0.24334952464E+02 -0.59307011134E+03  0.59963924600E+03  0.80632506529E+02 0.  0.
         25    2    1    2    0    0  0.42105832914E+02 -0.11347544335E+02 -0.59603134609E+03  0.61057571026E+03  0.12509062521E+03 0.  0.
        -24    2    1    2    0    0 -0.14879423787E+02 -0.12987408129E+02  0.84972807244E+01  0.82279091025E+02  0.79420243126E+02 0.  0.
        -11    1    3    3    0    0  0.19232411326E+02 -0.11043919760E+02 -0.72827292582E+02  0.76129287097E+02  0.00000000000E+00 0.  1.
         12    1    3    3    0    0 -0.46458820453E+02  0.35378872224E+02 -0.52024281876E+03  0.52350995890E+03  0.00000000000E+00 0. -1.
         13    1    5    5    0    0  0.15558443058E+02 -0.51720477040E+01 -0.29024967827E+02  0.33335626365E+02  0.00000000000E+00 0. -1.
        -14    1    5    5    0    0 -0.30437866845E+02 -0.78153604247E+01  0.37522248551E+02  0.48943464660E+02  0.00000000000E+00 0.  1.
          5    1    4    4  501    0 -0.86949104702E+01  0.46800367202E+02 -0.13741643142E+03  0.14548753851E+03  0.41800000000E+01 0.  1.
         -5    1    4    4    0  501  0.50800743384E+02 -0.58147911538E+02 -0.45861491467E+03  0.46508817175E+03  0.41800000000E+01 0.  1.
</event>
<event>
11    1  0.8039394E-009  0.9559365E+03  0.7561462E-02  0.8722092E-01
         22   -1    0    0    0    0  0.00000000000E+00  0.00000000000E+00  0.49635434435E+03  0.49635434435E+03  0.00000000000E+00 0. -1.
         22   -1    0    0    0    0 -0.00000000000E+00 -0.00000000000E+00 -0.46026323637E+03  0.46026323637E+03  0.00000000000E+00 0. -1.
        -24    2    1    2    0    0  0.15204634671E+03  0.68411039232E+02  0.13443374810E+01  0.18452951789E+03  0.79064365514E+02 0.  0.
         25    2    1    2    0    0 -0.41438898104E+03 -0.18650177344E+03  0.35746322864E+00  0.47132633974E+03  0.12508897494E+03 0.  0.
         24    2    1    2    0    0  0.26234263433E+03  0.11809073421E+03  0.34389307267E+02  0.30076172309E+03  0.80659223452E+02 0.  0.
        -11    1    5    5    0    0  0.38217686360E+02  0.23431222185E+02 -0.23585712474E+02  0.50654709126E+02  0.00000000000E+00 0.  1.
         12    1    5    5    0    0  0.22412494797E+03  0.94659512022E+02  0.57975019741E+02  0.25010701396E+03  0.00000000000E+00 0. -1.
         11    1    3    3    0    0  0.64218935912E+02  0.56219482766E+02 -0.30020469829E+02  0.90476132659E+02  0.00000000000E+00 0. -1.
        -12    1    3    3    0    0  0.87827410796E+02  0.12191556466E+02  0.31364807310E+02  0.94053385233E+02  0.00000000000E+00 0.  1.
          5    1    4    4  501    0 -0.39835001189E+03 -0.14339357846E+03  0.12479401325E+02  0.42357721631E+03  0.41800000000E+01 0.  1.
         -5    1    4    4    0  501 -0.16038969151E+02 -0.43108194980E+02 -0.12121938097E+02  0.47749123437E+02  0.41800000000E+01 0.  1.
</event>
<event>
11    1  0.8039394E-009  0.1368570E+03  0.7561462E-02  0.1111120E+00
         22   -1    0    0    0    0  0.00000000000E+00  0.00000000000E+00  0.48579365749E+03  0.48579365749E+03  0.00000000000E+00 0. -1.
         22   -1    0    0    0    0 -0.00000000000E+00 -0.00000000000E+00 -0.17936047760E+03  0.17936047760E+03  0.00000000000E+00 0.  1.
        -24    2    1    2    0    0 -0.38097692230E+00 -0.56330944191E+02 -0.11153174148E+03  0.14878389011E+03  0.80771258390E+02 0.  0.
         25    2    1    2    0    0  0.11869448504E+02  0.50543121491E+02  0.64570769556E+02  0.15004308759E+03  0.12509217767E+03 0.  0.
         24    2    1    2    0    0 -0.11488471581E+02  0.57878227001E+01  0.35339415182E+03  0.36632715739E+03  0.95617340650E+02 0.  0.
        -11    1    5    5    0    0 -0.12894326165E+02  0.47661816980E+02  0.13047749012E+03  0.13950730401E+03  0.00000000000E+00 0.  1.
         12    1    5    5    0    0  0.14058545836E+01 -0.41873994280E+02  0.22291666170E+03  0.22681985338E+03  0.00000000000E+00 0. -1.
         13    1    3    3    0    0 -0.95837146214E+01 -0.36229794832E+02 -0.25282645248E+01  0.37561120072E+02  0.00000000000E+00 0. -1.
        -14    1    3    3    0    0  0.92027376991E+01 -0.20101149359E+02 -0.10900347696E+03  0.11122277004E+03  0.00000000000E+00 0.  1.
          5    1    4    4  501    0 -0.47102009300E+02 -0.40391176749E+01  0.48755562066E+02  0.68040362903E+02  0.41800000000E+01 0.  1.
         -5    1    4    4    0  501  0.58971457803E+02  0.54582239166E+02  0.15815207490E+02  0.82002724685E+02  0.41800000000E+01 0.  1.
</event>
<event>
11    1  0.8039394E-009  0.1656101E+03  0.7561462E-02  0.1081916E+00
         22   -1    0    0    0    0  0.00000000000E+00  0.00000000000E+00  0.30607820669E+03  0.30607820669E+03  0.00000000000E+00 0.  1.
         22   -1    0    0    0    0 -0.00000000000E+00 -0.00000000000E+00 -0.15710053707E+04  0.15710053707E+04  0.00000000000E+00 0. -1.
        -24    2    1    2    0    0 -0.37578937337E+02  0.23658132667E+02 -0.14924549740E+04  0.14952395945E+04  0.79672528759E+02 0.  0.
         25    2    1    2    0    0 -0.61905600353E+02 -0.81889258943E+02  0.89020448944E+02  0.18469191514E+03  0.12509320166E+03 0.  0.
         24    2    1    2    0    0  0.99484537690E+02  0.58231126276E+02  0.13850736106E+03  0.19715206771E+03  0.79978818629E+02 0.  0.
        -11    1    5    5    0    0  0.10183646925E+03  0.49235537729E+02  0.81563172193E+02  0.13945377622E+03  0.00000000000E+00 0.  1.
         12    1    5    5    0    0 -0.23519315583E+01  0.89955885466E+01  0.56944188867E+02  0.57698291492E+02  0.00000000000E+00 0. -1.
         11    1    3    3    0    0 -0.56486420361E+02  0.23394568646E+02 -0.13670990941E+04  0.13684655475E+04  0.00000000000E+00 0. -1.
        -12    1    3    3    0    0  0.18907483024E+02  0.26356402115E+00 -0.12535587990E+03  0.12677404705E+03  0.00000000000E+00 0.  1.
          5    1    4    4  501    0  0.12720420256E+02  0.26033981417E+02  0.25633556166E+02  0.38911809025E+02  0.41800000000E+01 0. -1.
         -5    1    4    4    0  501 -0.74626020609E+02 -0.10792324036E+03  0.63386892779E+02  0.14578010611E+03  0.41800000000E+01 0. -1.
</event>
<event>
11    1  0.8039394E-009  0.1631071E+03  0.7561462E-02  0.1084191E+00
         22   -1    0    0    0    0  0.00000000000E+00  0.00000000000E+00  0.27397330417E+04  0.27397330417E+04  0.00000000000E+00 0. -1.
         22   -1    0    0    0    0 -0.00000000000E+00 -0.00000000000E+00 -0.51573045770E+03  0.51573045770E+03  0.00000000000E+00 0. -1.
         24    2    1    2    0    0  0.46558284339E+02  0.81869337781E+02 -0.48375691128E+03  0.49905027167E+03  0.78486700414E+02 0.  0.
         25    2    1    2    0    0 -0.27059358584E+02  0.27960121019E+02  0.16877258488E+03  0.21364545586E+03  0.12508484381E+03 0.  0.
        -24    2    1    2    0    0 -0.19498925755E+02 -0.10982945880E+03  0.25389869104E+04  0.25427677719E+04  0.82284216762E+02 0.  0.
        -13    1    3    3    0    0 -0.20833008001E+02  0.23453009579E+02 -0.16971956708E+03  0.17259429113E+03  0.00000000000E+00 0.  1.
         14    1    3    3    0    0  0.67391292340E+02  0.58416328203E+02 -0.31403734419E+03  0.32645598054E+03  0.00000000000E+00 0. -1.
         11    1    5    5    0    0  0.24196571166E+01 -0.98815357989E+02  0.13861017391E+04  0.13896216611E+04  0.00000000000E+00 0. -1.
        -12    1    5    5    0    0 -0.21918582871E+02 -0.11014100811E+02  0.11528851713E+04  0.11531461108E+04  0.00000000000E+00 0.  1.
          5    1    4    4  501    0 -0.40694759872E+02  0.45783859652E+02  0.17855064591E+03  0.18881215756E+03  0.41800000000E+01 0. -1.
         -5    1    4    4    0  501  0.13635401288E+02 -0.17823738633E+02 -0.97780610346E+01  0.24833298306E+02  0.41800000000E+01 0. -1.
</event>
<event>
11    1  0.8039394E-009  0.1444809E+03  0.7561462E-02  0.1102655E+00
         22   -1    0    0    0    0  0.00000000000E+00  0.00000000000E+00  0.14338264853E+04  0.14338264853E+04  0.00000000000E+00 0.  1.
         22   -1    0    0    0    0 -0.00000000000E+00 -0.00000000000E+00 -0.11983271755E+04  0.11983271755E+04  0.00000000000E+00 0. -1.
         24    2    1    2    0    0  0.17517282682E+02  0.11172140691E+02 -0.10098687091E+04  0.10133878762E+04  0.81783286789E+02 0.  0.
         25    2    1    2    0    0 -0.88485885927E+02 -0.23771738010E+02 -0.15197677630E+03  0.21711579731E+03  0.12508989315E+03 0.  0.
        -24    2    1    2    0    0  0.70968603246E+02  0.12599597319E+02  0.13973447952E+04  0.14016499873E+04  0.82794430791E+02 0.  0.
        -11    1    3    3    0    0 -0.16392356431E+01 -0.21441928008E+02 -0.82770485943E+02  0.85518399853E+02  0.00000000000E+00 0.  1.
         12    1    3    3    0    0  0.19156518325E+02  0.32614068699E+02 -0.92709822319E+03  0.92786947634E+03  0.00000000000E+00 0. -1.
         11    1    5    5    0    0  0.22586932598E+02 -0.35029680296E+02  0.57332013571E+03  0.57483321584E+03  0.00000000000E+00 0. -1.
        -12    1    5    5    0    0  0.48381670648E+02  0.47629277615E+02  0.82402465950E+03  0.82681677148E+03  0.00000000000E+00 0.  1.
          5    1    4    4  501    0  0.12097812754E+02 -0.48789103405E+02 -0.39154055553E+02  0.63853317461E+02  0.41800000000E+01 0. -1.
         -5    1    4    4    0  501 -0.10058369868E+03  0.25017365395E+02 -0.11282272075E+03  0.15326247985E+03  0.41800000000E+01 0. -1.
</event>
<event>
11    1  0.8039394E-009  0.1354691E+03  0.7561462E-02  0.1112726E+00
         22   -1    0    0    0    0  0.00000000000E+00  0.00000000000E+00  0.10626199706E+04  0.10626199706E+04  0.00000000000E+00 0.  1.
         22   -1    0    0    0    0 -0.00000000000E+00 -0.00000000000E+00 -0.17298591659E+03  0.17298591659E+03  0.00000000000E+00 0.  1.
         24    2    1    2    0    0  0.53184146689E+00 -0.53177910940E+02 -0.11633699591E+03  0.14869811381E+03  0.75819914040E+02 0.  0.
         25    2    1    2    0    0  0.20461357072E+02  0.43339442699E+02  0.78278325185E+02  0.15514615274E+03  0.12508340453E+03 0.  0.
        -24    2    1    2    0    0 -0.20993198539E+02  0.98384682410E+01  0.92769272477E+03  0.93176162066E+03  0.83835650603E+02 0.  0.
        -11    1    3    3    0    0  0.33546499498E+02 -0.37716094331E+02 -0.91773776980E+02  0.10473918818E+03  0.00000000000E+00 0.  1.
         12    1    3    3    0    0 -0.33014658031E+02 -0.15461816609E+02 -0.24563218932E+02  0.43958925625E+02  0.00000000000E+00 0. -1.
         11    1    5    5    0    0 -0.39232545414E+02  0.15457094985E+02  0.23160970822E+03  0.23541701584E+03  0.00000000000E+00 0. -1.
        -12    1    5    5    0    0  0.18239346876E+02 -0.56186267438E+01  0.69608301655E+03  0.69634460482E+03  0.00000000000E+00 0.  1.
          5    1    4    4  501    0  0.23677351834E+02 -0.41942894731E+02  0.31954201778E+02  0.57951417753E+02  0.41800000000E+01 0. -1.
         -5    1    4    4    0  501 -0.32159947623E+01  0.85282337429E+02  0.46324123407E+02  0.97194734987E+02  0.41800000000E+01 0. -1.
</event>
<event>
11    1  0.8039394E-009  0.1791454E+03  0.7561462E-02  0.1070336E+00
         22   -1    0    0    0    0  0.00000000000E+00  0.00000000000E+00  0.53519801837E+03  0.53519801837E+03  0.00000000000E+00 0.  1.
         22   -1    0    0    0    0 -0.00000000000E+00 -0.00000000000E+00 -0.16437316784E+04  0.16437316784E+04  0.00000000000E+00 0.  1.
         24    2    1    2    0    0  0.15105169984E+02 -0.78833027579E+01 -0.13831821855E+04  0.13856268547E+04  0.80489189502E+02 0.  0.
         25    2    1    2    0    0 -0.97314254535E+02 -0.90319253501E+02 -0.21399467166E+03  0.28119287671E+03  0.12509229682E+03 0.  0.
        -24    2    1    2    0    0  0.82209084551E+02  0.98202556259E+02  0.48864319708E+03  0.51210996539E+03  0.84156799846E+02 0.  0.
        -13    1    3    3    0    0  0.47649481874E+02 -0.30285760266E+01 -0.94856567261E+03  0.94976654008E+03  0.00000000000E+00 0.  1.
         14    1    3    3    0    0 -0.32544311890E+02 -0.48547267313E+01 -0.43461651285E+03  0.43586031461E+03  0.00000000000E+00 0. -1.
         11    1    5    5    0    0  0.59229756502E+01 -0.15311150313E+02  0.47964147243E+02  0.50695881344E+02  0.00000000000E+00 0. -1.
        -12    1    5    5    0    0  0.76286108901E+02  0.11351370657E+03  0.44067904984E+03  0.46141408405E+03  0.00000000000E+00 0.  1.
          5    1    4    4  501    0 -0.11709682086E+03 -0.35104283598E+02 -0.12828906448E+03  0.17725555745E+03  0.41800000000E+01 0. -1.
         -5    1    4    4    0  501  0.19782566326E+02 -0.55214969903E+02 -0.85705607179E+02  0.10393731925E+03  0.41800000000E+01 0. -1.
</event>
<event>
11    1  0.8039394E-009  0.1408276E+03  0.7561462E-02  0.1106638E+00
         22   -1    0    0    0    0  0.00000000000E+00  0.00000000000E+00  0.27830676919E+03  0.27830676919E+03  0.00000000000E+00 0.  1.
         22   -1    0    0    0    0 -0.00000000000E+00 -0.00000000000E+00 -0.12698611359E+04  0.12698611359E+04  0.00000000000E+00 0.  1.
         24    2    1    2    0    0  0.13856045573E+02  0.18573591646E+01 -0.12082214666E+04  0.12117227470E+04  0.90980567111E+02 0.  0.
         25    2    1    2    0    0 -0.65427528841E+02 -0.34784031617E+02  0.78436879211E+02  0.16519413601E+03  0.12508424428E+03 0.  0.
        -24    2    1    2    0    0  0.51571483268E+02  0.32926672452E+02  0.13823022066E+03  0.17125102205E+03  0.80470708967E+02 0.  0.
        -13    1    3    3    0    0 -0.15182882818E+02  0.30137165110E+02 -0.92500724082E+03  0.92562258196E+03  0.00000000000E+00 0.  1.
         14    1    3    3    0    0  0.29038928392E+02 -0.28279805945E+02 -0.28321422577E+03  0.28610016509E+03  0.00000000000E+00 0. -1.
         11    1    5    5    0    0  0.24146226071E+02 -0.15726027440E+02  0.98716808780E+02  0.10283655239E+03  0.00000000000E+00 0. -1.
        -12    1    5    5    0    0  0.27425257198E+02  0.48652699892E+02  0.39513411884E+02  0.68414469653E+02  0.00000000000E+00 0.  1.
          5    1    4    4  501    0 -0.15511313428E+02 -0.33239646163E+01 -0.34221984926E+02  0.37950839744E+02  0.41800000000E+01 0.  1.
         -5    1    4    4    0  501 -0.49916215414E+02 -0.31460067000E+02  0.11265886414E+03  0.12724329627E+03  0.41800000000E+01 0.  1.
</event>
<event>
11    1  0.8039394E-009  0.1937078E+03  0.7561462E-02  0.1059065E+00
         22   -1    0    0    0    0  0.00000000000E+00  0.00000000000E+00  0.27731819749E+04  0.27731819749E+04  0.00000000000E+00 0.  1.
         22   -1    0    0    0    0 -0.00000000000E+00 -0.00000000000E+00 -0.74954309778E+02  0.74954309778E+02  0.00000000000E+00 0. -1.
         24    2    1    2    0    0 -0.13844489971E+03  0.52256098128E+02  0.56082375163E+02  0.17760684778E+03  0.80630450382E+02 0.  0.
         25    2    1    2    0    0  0.14933207961E+03 -0.20334074397E+02  0.69720787416E+03  0.72419620022E+03  0.12509105500E+03 0.  0.
        -24    2    1    2    0    0 -0.10887179898E+02 -0.31922023731E+02  0.19449374158E+04  0.19463332367E+04  0.65528394786E+02 0.  0.
        -11    1    3    3    0    0 -0.14805225013E+02  0.41909877840E+02  0.14822477855E+02  0.46854438403E+02  0.00000000000E+00 0.  1.
         12    1    3    3    0    0 -0.12363967470E+03  0.10346220288E+02  0.41259897308E+02  0.13075240938E+03  0.00000000000E+00 0. -1.
         11    1    5    5    0    0 -0.10685850882E+01 -0.26092232660E+02  0.25052745890E+03  0.25188480332E+03  0.00000000000E+00 0. -1.
        -12    1    5    5    0    0 -0.98185948100E+01 -0.58297910712E+01  0.16944099569E+04  0.16944484334E+04  0.00000000000E+00 0.  1.
          5    1    4    4  501    0  0.27601125571E+02  0.39232183870E+01  0.17380160769E+02  0.33117309125E+02  0.41800000000E+01 0. -1.
         -5    1    4    4    0  501  0.12173095404E+03 -0.24257292784E+02  0.67982771339E+03  0.69107889109E+03  0.41800000000E+01 0. -1.
</event>
<event>
11    1  0.8039394E-009  0.1654791E+03  0.7561462E-02  0.1082034E+00
         22   -1    0    0    0    0  0.00000000000E+00  0.00000000000E+00  0.15810564297E+04  0.15810564297E+04  0.00000000000E+00 0.  1.
         22   -1    0    0    0    0 -0.00000000000E+00 -0.00000000000E+00 -0.22687395961E+03  0.22687395961E+03  0.00000000000E+00 0. -1.
        -24    2    1    2    0    0 -0.31125337536E+02 -0.53326707444E+02 -0.19337711988E+03  0.21838103320E+03  0.80517332308E+02 0.  0.
         25    2    1    2    0    0  0.34273183603E+02  0.15075019403E+03  0.56940340486E+03  0.60313635958E+03  0.12511178469E+03 0.  0.
         24    2    1    2    0    0 -0.31478460667E+01 -0.97423486590E+02  0.97815618514E+03  0.98641299657E+03  0.81974585036E+02 0.  0.
        -13    1    5    5    0    0 -0.25683789683E+02 -0.72350715849E+02  0.86341977367E+03  0.86682638902E+03  0.00000000000E+00 0.  1.
         14    1    5    5    0    0  0.22535943616E+02 -0.25072770742E+02  0.11473641147E+03  0.11958660754E+03  0.00000000000E+00 0. -1.
         11    1    3    3    0    0 -0.45138582259E+02 -0.67688014679E+02 -0.15761769725E+03  0.17737671050E+03  0.00000000000E+00 0. -1.
        -12    1    3    3    0    0  0.14013244723E+02  0.14361307235E+02 -0.35759422629E+02  0.41004322698E+02  0.00000000000E+00 0.  1.
          5    1    4    4  501    0  0.16912625766E+02  0.16796923799E+03  0.43829201800E+03  0.46969891129E+03  0.41800000000E+01 0.  1.
         -5    1    4    4    0  501  0.17360557837E+02 -0.17219043956E+02  0.13111138686E+03  0.13343744829E+03  0.41800000000E+01 0.  1.
</event>
<event>
11    1  0.8039394E-009  0.1273318E+03  0.7561462E-02  0.1122591E+00
         22   -1    0    0    0    0  0.00000000000E+00  0.00000000000E+00  0.71403534789E+03  0.71403534789E+03  0.00000000000E+00 0.  1.
         22   -1    0    0    0    0 -0.00000000000E+00 -0.00000000000E+00 -0.10303614018E+03  0.10303614018E+03  0.00000000000E+00 0. -1.
        -24    2    1    2    0    0  0.73131810466E+00 -0.90169321157E+01 -0.50796599310E+02  0.94890634739E+02  0.79637291320E+02 0.  0.
         25    2    1    2    0    0 -0.24398813454E+02  0.95061200298E+01  0.12703657897E+03  0.18019598701E+03  0.12508650175E+03 0.  0.
         24    2    1    2    0    0  0.23667495350E+02 -0.48918791411E+00  0.53475922805E+03  0.54198486632E+03  0.84969251452E+02 0.  0.
        -13    1    5    5    0    0 -0.95061993861E+01  0.62694406363E+01  0.45740143141E+03  0.45754315990E+03  0.00000000000E+00 0.  1.
         14    1    5    5    0    0  0.33173694736E+02 -0.67586285505E+01  0.77357796639E+02  0.84441706420E+02  0.00000000000E+00 0. -1.
         13    1    3    3    0    0  0.39689612007E+02 -0.41827708780E+01 -0.33010172624E+02  0.51792203759E+02  0.00000000000E+00 0. -1.
        -14    1    3    3    0    0 -0.38958293903E+02 -0.48341612377E+01 -0.17786426686E+02  0.43098430980E+02  0.00000000000E+00 0.  1.
          5    1    4    4  501    0 -0.60638461812E+02  0.12430226630E+02  0.12941959612E+03  0.14352155882E+03  0.41800000000E+01 0.  1.
         -5    1    4    4    0  501  0.36239648358E+02 -0.29241065997E+01 -0.23830171491E+01  0.36674428192E+02  0.41800000000E+01 0.  1.
</event>
<event>
11    1  0.8039394E-009  0.1554334E+03  0.7561462E-02  0.1091453E+00
         22   -1    0    0    0    0  0.00000000000E+00  0.00000000000E+00  0.26425937154E+04  0.26425937154E+04  0.00000000000E+00 0.  1.
         22   -1    0    0    0    0 -0.00000000000E+00 -0.00000000000E+00 -0.16911196050E+03  0.16911196050E+03  0.00000000000E+00 0.  1.
         24    2    1    2    0    0  0.48396366999E+02 -0.86636701817E+02 -0.12909274245E+03  0.18155061495E+03  0.80296719694E+02 0.  0.
         25    2    1    2    0    0 -0.96558191242E+00  0.62832961608E+01  0.31189695430E+03  0.33610893506E+03  0.12509633874E+03 0.  0.
        -24    2    1    2    0    0 -0.47430785086E+02  0.80353405656E+02  0.22906775430E+04  0.22940461259E+04  0.82083325422E+02 0.  0.
        -13    1    3    3    0    0  0.50454220746E+02 -0.10104170698E+03 -0.11716994025E+03  0.16273859358E+03  0.00000000000E+00 0.  1.
         14    1    3    3    0    0 -0.20578537474E+01  0.14405005162E+02 -0.11922802195E+02  0.18812021368E+02  0.00000000000E+00 0. -1.
         13    1    5    5    0    0  0.10051452808E+02  0.35140004420E+02  0.33238318212E+03  0.33438664951E+03  0.00000000000E+00 0. -1.
        -14    1    5    5    0    0 -0.57482237894E+02  0.45213401236E+02  0.19582943609E+04  0.19596594764E+04  0.00000000000E+00 0.  1.
          5    1    4    4  501    0  0.28720964168E+02 -0.49092271392E+02  0.19698849306E+03  0.20507775035E+03  0.41800000000E+01 0.  1.
         -5    1    4    4    0  501 -0.29686546081E+02  0.55375567553E+02  0.11490846124E+03  0.13103118470E+03  0.41800000000E+01 0.  1.
</event>
<event>
11    1  0.8039394E-009  0.1689741E+03  0.7561462E-02  0.1078928E+00
         22   -1    0    0    0    0  0.00000000000E+00  0.00000000000E+00  0.32163739749E+03  0.32163739749E+03  0.00000000000E+00 0.  1.
         22   -1    0    0    0    0 -0.00000000000E+00 -0.00000000000E+00 -0.46892548463E+03  0.46892548463E+03  0.00000000000E+00 0.  1.
         24    2    1    2    0    0 -0.10240518787E+03 -0.52966211994E+02 -0.33485342374E+03  0.36317115260E+03  0.80462591136E+02 0.  0.
         25    2    1    2    0    0  0.99104128806E+02  0.40010967300E+02 -0.54388615369E+02  0.17328601025E+03  0.12508962393E+03 0.  0.
        -24    2    1    2    0    0  0.33010590643E+01  0.12955244693E+02  0.24195395197E+03  0.25410571927E+03  0.76480496426E+02 0.  0.
        -13    1    3    3    0    0 -0.10524677065E+03 -0.23823453933E+02 -0.29171461609E+03  0.31103353024E+03  0.00000000000E+00 0.  1.
         14    1    3    3    0    0  0.28415827808E+01 -0.29142758061E+02 -0.43138807649E+02  0.52137622361E+02  0.00000000000E+00 0. -1.
         11    1    5    5    0    0 -0.27844497397E+01  0.28933212364E+02  0.31133824354E+02  0.42593414479E+02  0.00000000000E+00 0. -1.
        -12    1    5    5    0    0  0.60855088040E+01 -0.15977967670E+02  0.21082012762E+03  0.21151230479E+03  0.00000000000E+00 0.  1.
          5    1    4    4  501    0  0.63743416968E+02  0.26594853983E+02  0.33968997307E+02  0.77083556244E+02  0.41800000000E+01 0.  1.
         -5    1    4    4    0  501  0.35360711838E+02  0.13416113317E+02 -0.88357612676E+02  0.96202454002E+02  0.41800000000E+01 0.  1.
</event>
<event>
11    1  0.8039394E-009  0.1304327E+03  0.7561462E-02  0.1118738E+00
         22   -1    0    0    0    0  0.00000000000E+00  0.00000000000E+00  0.80800229464E+02  0.80800229464E+02  0.00000000000E+00 0. -1.
         22   -1    0    0    0    0 -0.00000000000E+00 -0.00000000000E+00 -0.12771051490E+04  0.12771051490E+04  0.00000000000E+00 0. -1.
        -24    2    1    2    0    0 -0.11515813934E+02 -0.31225434012E+02 -0.86547575295E+03  0.86973343463E+03  0.79248512106E+02 0.  0.
         25    2    1    2    0    0  0.36085358782E+02  0.48682666807E+02 -0.36962486432E+03  0.39489500539E+03  0.12508944718E+03 0.  0.
         24    2    1    2    0    0 -0.24569544848E+02 -0.17457232795E+02  0.38795697729E+02  0.93276938443E+02  0.79291005620E+02 0.  0.
        -13    1    5    5    0    0  0.59521816018E+01 -0.42099544452E+02  0.76785366074E+01  0.43206018485E+02  0.00000000000E+00 0.  1.
         14    1    5    5    0    0 -0.30521726450E+02  0.24642311657E+02  0.31117161122E+02  0.50070919959E+02  0.00000000000E+00 0. -1.
         11    1    3    3    0    0 -0.13737067054E+02  0.46174947747E+01 -0.71063607630E+03  0.71078383578E+03  0.00000000000E+00 0. -1.
        -12    1    3    3    0    0  0.22212531202E+01 -0.35842928786E+02 -0.15483967666E+03  0.15894959886E+03  0.00000000000E+00 0.  1.
          5    1    4    4  501    0 -0.12324468138E+02 -0.37377749662E+02 -0.12274664355E+03  0.12896976230E+03  0.41800000000E+01 0. -1.
         -5    1    4    4    0  501  0.48409826919E+02  0.86060416468E+02 -0.24687822077E+03  0.26592524309E+03  0.41800000000E+01 0. -1.
</event>
<event>
11    1  0.8039394E-009  0.1331502E+03  0.7561462E-02  0.1115458E+00
         22   -1    0    0    0    0  0.00000000000E+00  0.00000000000E+00  0.13456158842E+04  0.13456158842E+04  0.00000000000E+00 0. -1.
         22   -1    0    0    0    0 -0.00000000000E+00 -0.00000000000E+00 -0.29407744512E+03  0.29407744512E+03  0.00000000000E+00 0.  1.
         24    2    1    2    0    0  0.12322414705E+02 -0.21804325249E+02 -0.26438012133E+03  0.27743659901E+03  0.80292885199E+02 0.  0.
         25    2    1    2    0    0 -0.22401560706E+02  0.64247415590E+02  0.21737536478E+03  0.25986308120E+03  0.12508881414E+03 0.  0.
        -24    2    1    2    0    0  0.10079146001E+02 -0.42443090341E+02  0.10985431956E+04  0.11023936491E+04  0.81065404849E+02 0.  0.
        -11    1    3    3    0    0 -0.19290182481E+02 -0.48799270566E+01 -0.21753384216E+03  0.21844197699E+03  0.00000000000E+00 0.  1.
         12    1    3    3    0    0  0.31612597186E+02 -0.16924398192E+02 -0.46846279169E+02  0.58994622018E+02  0.00000000000E+00 0. -1.
         13    1    5    5    0    0  0.18267878182E+02 -0.64985175449E+02  0.86131377756E+03  0.86395498252E+03  0.00000000000E+00 0. -1.
        -14    1    5    5    0    0 -0.81887321807E+01  0.22542085108E+02  0.23722941808E+03  0.23843866661E+03  0.00000000000E+00 0.  1.
          5    1    4    4  501    0 -0.26778947699E+02  0.33183770833E+02  0.22354972450E+03  0.22761859856E+03  0.41800000000E+01 0. -1.
         -5    1    4    4    0  501  0.43773869925E+01  0.31063644757E+02 -0.61743597174E+01  0.32244482635E+02  0.41800000000E+01 0. -1.
</event>
<event>
11    1  0.8039394E-009  0.1406226E+03  0.7561462E-02  0.1106865E+00
         22   -1    0    0    0    0  0.00000000000E+00  0.00000000000E+00  0.63894443588E+03  0.63894443588E+03  0.00000000000E+00 0.  1.
         22   -1    0    0    0    0 -0.00000000000E+00 -0.00000000000E+00 -0.18460683469E+03  0.18460683469E+03  0.00000000000E+00 0. -1.
        -24    2    1    2    0    0 -0.18397339841E+02  0.52647460619E+02 -0.13631034486E+03  0.16749209779E+03  0.79767634318E+02 0.  0.
         25    2    1    2    0    0  0.68321352286E+02 -0.77659370830E+02  0.22497160815E+03  0.27741519599E+03  0.12509269138E+03 0.  0.
         24    2    1    2    0    0 -0.49924012445E+02  0.25011910212E+02  0.36567633789E+03  0.37864397679E+03  0.80833621657E+02 0.  0.
        -11    1    5    5    0    0 -0.34751767415E+02 -0.82588754832E+01  0.30988610780E+03  0.31193796525E+03  0.00000000000E+00 0.  1.
         12    1    5    5    0    0 -0.15172245030E+02  0.33270785695E+02  0.55790230098E+02  0.66706011531E+02  0.00000000000E+00 0. -1.
         11    1    3    3    0    0  0.79579285937E+01 -0.11389442110E+02 -0.70855236321E+02  0.72204657282E+02  0.00000000000E+00 0. -1.
        -12    1    3    3    0    0 -0.26355268435E+02  0.64036902729E+02 -0.65455108534E+02  0.95287440508E+02  0.00000000000E+00 0.  1.
          5    1    4    4  501    0  0.20837544134E+02  0.27286197172E+02  0.10713010628E+03  0.11257473906E+03  0.41800000000E+01 0.  1.
         -5    1    4    4    0  501  0.47483808153E+02 -0.10494556800E+03  0.11784150187E+03  0.16484045694E+03  0.41800000000E+01 0.  1.
</event>
<event>
11    1  0.8039394E-009  0.1666090E+03  0.7561462E-02  0.1081021E+00
         22   -1    0    0    0    0  0.00000000000E+00  0.00000000000E+00  0.11993673124E+04  0.11993673124E+04  0.00000000000E+00 0.  1.
         22   -1    0    0    0    0 -0.00000000000E+00 -0.00000000000E+00 -0.10886692339E+04  0.10886692339E+04  0.00000000000E+00 0.  1.
        -24    2    1    2    0    0 -0.35121699386E+01  0.10467976170E+03 -0.64833692168E+03  0.66164709873E+03  0.80411015421E+02 0.  0.
         25    2    1    2    0    0  0.16493389615E+02 -0.12380554892E+03 -0.41412217560E+03  0.45027166774E+03  0.12509017787E+03 0.  0.
         24    2    1    2    0    0 -0.12981219676E+02  0.19125787225E+02  0.11731571758E+04  0.11761177798E+04  0.80130925638E+02 0.  0.
        -13    1    5    5    0    0 -0.16285057603E+02  0.49270436448E+02  0.83138463500E+03  0.83300251520E+03  0.00000000000E+00 0.  1.
         14    1    5    5    0    0  0.33038379265E+01 -0.30144649223E+02  0.34177254075E+03  0.34311526465E+03  0.00000000000E+00 0. -1.
         11    1    3    3    0    0  0.29185315775E+02  0.20436745444E+02 -0.10585904136E+03  0.11169413529E+03  0.00000000000E+00 0. -1.
        -12    1    3    3    0    0 -0.32697485713E+02  0.84243016251E+02 -0.54247788032E+03  0.54995296344E+03  0.00000000000E+00 0.  1.
          5    1    4    4  501    0 -0.38937750914E+02 -0.74492340775E+02 -0.31700811669E+03  0.32798913965E+03  0.41800000000E+01 0.  1.
         -5    1    4    4    0  501  0.55431140529E+02 -0.49313208146E+02 -0.97114058913E+02  0.12228252809E+03  0.41800000000E+01 0.  1.
</event>
<event>
11    1  0.1483332E-008  0.1564447E+03  0.7561462E-02  0.1090470E+00
         22   -1    0    0    0    0  0.00000000000E+00  0.00000000000E+00  0.69309112101E+03  0.69309112101E+03  0.00000000000E+00 0.  1.
         22   -1    0    0    0    0 -0.00000000000E+00 -0.00000000000E+00 -0.13770308439E+04  0.13770308439E+04  0.00000000000E+00 0. -1.
         24    2    1    2    0    0  0.66530506346E+01  0.24336987520E+02 -0.10045106226E+04  0.10080204183E+04  0.80168701921E+02 0.  0.
         25    2    1    2    0    0 -0.93560977173E+02 -0.59397381419E+02 -0.34570595193E+03  0.38398065555E+03  0.12508730260E+03 0.  0.
        -24    2    1    2    0    0  0.86907926538E+02  0.35060393899E+02  0.66627685162E+03  0.67812089106E+03  0.84503733458E+02 0.  0.
        -11    1    3    3    0    0 -0.15431744573E+02  0.17199282601E+02 -0.81352556301E+02  0.84570636035E+02  0.00000000000E+00 0.  1.
         12    1    3    3    0    0  0.22084795207E+02  0.71377049188E+01 -0.92315806625E+03  0.92344978222E+03  0.00000000000E+00 0. -1.
         11    1    5    5    0    0  0.20975266772E+02 -0.38015783042E+01  0.27594288849E+02  0.34869163896E+02  0.00000000000E+00 0. -1.
        -12    1    5    5    0    0  0.65932659765E+02  0.38861972203E+02  0.63868256277E+03  0.64325172716E+03  0.00000000000E+00 0.  1.
          5    1    4    4  501    0  0.26561215454E+02 -0.34940125618E+02 -0.80467777137E+02  0.91754270212E+02  0.41800000000E+01 0. -1.
         -5    1    4    4    0  501 -0.12012219263E+03 -0.24457255801E+02 -0.26523817479E+03  0.29222638534E+03  0.41800000000E+01 0. -1.
</event>
<event>
11    1  0.8039394E-009  0.1508043E+03  0.7561462E-02  0.1096060E+00
         22   -1    0    0    0    0  0.00000000000E+00  0.00000000000E+00  0.42906608280E+03  0.42906608280E+03  0.00000000000E+00 0.  1.
         22   -1    0    0    0    0 -0.00000000000E+00 -0.00000000000E+00 -0.40763989826E+03  0.40763989826E+03  0.00000000000E+00 0.  1.
         24    2    1    2    0    0 -0.81273588332E+00  0.13553454095E+02 -0.35994220397E+03  0.36961994043E+03  0.82922575369E+02 0.  0.
         25    2    1    2    0    0 -0.83274980931E+02 -0.17131543375E+02  0.18681992117E+03  0.24036890511E+03  0.12508922964E+03 0.  0.
        -24    2    1    2    0    0  0.84087716814E+02  0.35780892796E+01  0.19454846735E+03  0.22671713553E+03  0.80423917791E+02 0.  0.
        -13    1    3    3    0    0  0.17514014555E+02  0.23302510318E+02 -0.33858185266E+03  0.33983439885E+03  0.00000000000E+00 0.  1.
         14    1    3    3    0    0 -0.18326750439E+02 -0.97490562228E+01 -0.21360351311E+02  0.29785541577E+02  0.00000000000E+00 0. -1.
         11    1    5    5    0    0  0.21674209100E+02  0.50662002273E+01  0.14585046803E+03  0.14753913633E+03  0.00000000000E+00 0. -1.
        -12    1    5    5    0    0  0.62413507714E+02 -0.14881109478E+01  0.48697999319E+02  0.79177999199E+02  0.00000000000E+00 0.  1.
          5    1    4    4  501    0 -0.71785045586E+02 -0.67322977306E+02  0.13578986741E+03  0.16775528765E+03  0.41800000000E+01 0.  1.
         -5    1    4    4    0  501 -0.11489935345E+02  0.50191433932E+02  0.51030053762E+02  0.72613617464E+02  0.41800000000E+01 0.  1.
</event>
<event>
11    1  0.8039394E-009  0.1420902E+03  0.7561462E-02  0.1105247E+00
         22   -1    0    0    0    0  0.00000000000E+00  0.00000000000E+00  0.13002384122E+04  0.13002384122E+04  0.00000000000E+00 0. -1.
         22   -1    0    0    0    0 -0.00000000000E+00 -0.00000000000E+00 -0.62271772890E+03  0.62271772890E+03  0.00000000000E+00 0.  1.
         24    2    1    2    0    0  0.64294543377E+02 -0.13261142689E+02 -0.55220462519E+03  0.56169790551E+03  0.79151391366E+02 0.  0.
         25    2    1    2    0    0 -0.10431248212E+03  0.19802949512E+02  0.41552557172E+02  0.16925593017E+03  0.12509078366E+03 0.  0.
        -24    2    1    2    0    0  0.40017938739E+02 -0.65418068224E+01  0.11881727513E+04  0.11920023054E+04  0.86433665347E+02 0.  0.
        -11    1    3    3    0    0  0.38024354337E+02  0.30620305557E+02 -0.33589014445E+03  0.33941956893E+03  0.00000000000E+00 0.  1.
         12    1    3    3    0    0  0.26270189040E+02 -0.43881448247E+02 -0.21631448074E+03  0.22227833658E+03  0.00000000000E+00 0. -1.
         13    1    5    5    0    0  0.29851598358E+02  0.13825131223E+02  0.11123484745E+04  0.11128348399E+04  0.00000000000E+00 0. -1.
        -14    1    5    5    0    0  0.10166340381E+02 -0.20366938046E+02  0.75824276794E+02  0.79167465499E+02  0.00000000000E+00 0.  1.
          5    1    4    4  501    0 -0.49340765004E+02  0.66304457816E+02  0.49926206372E+02  0.96648283483E+02  0.41800000000E+01 0.  1.
         -5    1    4    4    0  501 -0.54971717113E+02 -0.46501508304E+02 -0.83736491999E+01  0.72607646690E+02  0.41800000000E+01 0.  1.
</event>
<event>
11    1  0.8039394E-009  0.1501993E+03  0.7561462E-02  0.1096675E+00
         22   -1    0    0    0    0  0.00000000000E+00  0.00000000000E+00  0.38280460838E+04  0.38280460838E+04  0.00000000000E+00 0.  1.
         22   -1    0    0    0    0 -0.00000000000E+00 -0.00000000000E+00 -0.16953869103E+03  0.16953869103E+03  0.00000000000E+00 0.  1.
         24    2    1    2    0    0 -0.60121840403E+02 -0.60019915241E+02 -0.11874091804E+03  0.16589782562E+03  0.78775992601E+02 0.  0.
         25    2    1    2    0    0  0.59103444402E+02  0.37238118500E+02  0.16621935600E+03  0.21944631842E+03  0.12509163740E+03 0.  0.
        -24    2    1    2    0    0  0.10183960015E+01  0.22781796741E+02  0.36110289548E+04  0.36122406308E+04  0.90731554510E+02 0.  0.
        -11    1    3    3    0    0 -0.13221877352E+02 -0.65761067953E+02 -0.56162431983E+02  0.87484597875E+02  0.00000000000E+00 0.  1.
         12    1    3    3    0    0 -0.46899963051E+02  0.57411527119E+01 -0.62578486056E+02  0.78413227747E+02  0.00000000000E+00 0. -1.
         11    1    5    5    0    0  0.53207361412E+01  0.27956035598E+02  0.33550093779E+03  0.33670570150E+03  0.00000000000E+00 0. -1.
        -12    1    5    5    0    0 -0.43023401397E+01 -0.51742388561E+01  0.32755280170E+04  0.32755349293E+04  0.00000000000E+00 0.  1.
          5    1    4    4  501    0  0.73707798117E+02  0.66385480271E+02  0.15620288361E+03  0.18508561462E+03  0.41800000000E+01 0. -1.
         -5    1    4    4    0  501 -0.14604353716E+02 -0.29147361771E+02  0.10016472396E+02  0.34360703790E+02  0.41800000000E+01 0. -1.
</event>
<event>
11    1  0.8039394E-009  0.1431801E+03  0.7561462E-02  0.1104058E+00
         22   -1    0    0    0    0  0.00000000000E+00  0.00000000000E+00  0.83893641257E+03  0.83893641257E+03  0.00000000000E+00 0. -1.
         22   -1    0    0    0    0 -0.00000000000E+00 -0.00000000000E+00 -0.67869522145E+03  0.67869522145E+03  0.00000000000E+00 0.  1.
        -24    2    1    2    0    0 -0.43095324776E+02  0.74100798812E+01 -0.63631179551E+03  0.64281172118E+03  0.80013070685E+02 0.  0.
         25    2    1    2    0    0  0.10809505241E+03 -0.45720485357E+01  0.16082788032E+03  0.23069399109E+03  0.12509462999E+03 0.  0.
         24    2    1    2    0    0 -0.64999727635E+02 -0.28380313455E+01  0.63572510631E+03  0.64412592174E+03  0.80738920257E+02 0.  0.
        -13    1    5    5    0    0  0.83243159659E+01  0.18593836275E+00  0.31507985165E+03  0.31518985029E+03  0.00000000000E+00 0.  1.
         14    1    5    5    0    0 -0.73324043601E+02 -0.30239697083E+01  0.32064525466E+03  0.32893607145E+03  0.00000000000E+00 0. -1.
         13    1    3    3    0    0  0.51939174749E+01  0.34354689697E+02 -0.29668260392E+03  0.29871020899E+03  0.00000000000E+00 0. -1.
        -14    1    3    3    0    0 -0.48289242251E+02 -0.26944609816E+02 -0.33962919159E+03  0.34410151220E+03  0.00000000000E+00 0.  1.
          5    1    4    4  501    0  0.21905779850E+02  0.55565355347E+02  0.65524824829E+02  0.88760052809E+02  0.41800000000E+01 0. -1.
         -5    1    4    4    0  501  0.86189272561E+02 -0.60137403883E+02  0.95303055491E+02  0.14193393828E+03  0.41800000000E+01 0. -1.
</event>
<event>
11    1  0.8039394E-009  0.1387017E+03  0.7561462E-02  0.1109017E+00
         22   -1    0    0    0    0  0.00000000000E+00  0.00000000000E+00  0.48538555616E+03  0.48538555616E+03  0.00000000000E+00 0. -1.
         22   -1    0    0    0    0 -0.00000000000E+00 -0.00000000000E+00 -0.40250410163E+03  0.40250410163E+03  0.00000000000E+00 0.  1.
        -24    2    1    2    0    0  0.50498779224E+02  0.28936617537E+02 -0.31404859589E+03  0.32917478744E+03  0.79637086618E+02 0.  0.
         25    2    1    2    0    0 -0.80019129007E+02 -0.10089316277E+02 -0.36348958895E+01  0.14892813441E+03  0.12514600050E+03 0.  0.
         24    2    1    2    0    0  0.29520349783E+02 -0.18847301260E+02  0.40056494631E+03  0.40978673593E+03  0.79033036892E+02 0.  0.
        -13    1    5    5    0    0  0.19093359995E+02 -0.91153523534E+00  0.16761930024E+02  0.25423406352E+02  0.00000000000E+00 0.  1.
         14    1    5    5    0    0  0.10426989788E+02 -0.17935766025E+02  0.38380301628E+03  0.38436332958E+03  0.00000000000E+00 0. -1.
         11    1    3    3    0    0  0.13451156912E+01 -0.24660538829E+02 -0.10403048266E+03  0.10692190063E+03  0.00000000000E+00 0. -1.
        -12    1    3    3    0    0  0.49153663533E+02  0.53597156366E+02 -0.21001811323E+03  0.22225288680E+03  0.00000000000E+00 0.  1.
          5    1    4    4  501    0  0.11632040995E+02 -0.63705430143E+01  0.43533052295E+02  0.45699969783E+02  0.41800000000E+01 0.  1.
         -5    1    4    4    0  501 -0.91651170002E+02 -0.37187732631E+01 -0.47167948184E+02  0.10322816463E+03  0.41800000000E+01 0.  1.
</event>
<event>
11    1  0.8039394E-009  0.1870817E+03  0.7561462E-02  0.1064054E+00
         22   -1    0    0    0    0  0.00000000000E+00  0.00000000000E+00  0.13259312325E+04  0.13259312325E+04  0.00000000000E+00 0. -1.
         22   -1    0    0    0    0 -0.00000000000E+00 -0.00000000000E+00 -0.42708393704E+03  0.42708393704E+03  0.00000000000E+00 0. -1.
        -24    2    1    2    0    0  0.24733989791E+02 -0.13710573761E+03 -0.39358885605E+03  0.42553081367E+03  0.82185961341E+02 0.  0.
         25    2    1    2    0    0 -0.72820899387E+01  0.13277428081E+03  0.53037313354E+03  0.56091495619E+03  0.12509152175E+03 0.  0.
         24    2    1    2    0    0 -0.17451899853E+02  0.43314568085E+01  0.76206301791E+03  0.76656939963E+03  0.81026359035E+02 0.  0.
        -11    1    5    5    0    0  0.12667260140E+02  0.30536454457E+02  0.53521875156E+03  0.53623879620E+03  0.00000000000E+00 0.  1.
         12    1    5    5    0    0 -0.30119159993E+02 -0.26204997649E+02  0.22684426635E+03  0.23033060343E+03  0.00000000000E+00 0. -1.
         13    1    3    3    0    0  0.82227516075E+00 -0.10625051138E+03 -0.35531428943E+03  0.37086128348E+03  0.00000000000E+00 0. -1.
        -14    1    3    3    0    0  0.23911714631E+02 -0.30855226231E+02 -0.38274566613E+02  0.54669530195E+02  0.00000000000E+00 0.  1.
          5    1    4    4  501    0  0.45881979861E+02  0.11841705567E+03  0.38349797957E+03  0.40399991075E+03  0.41800000000E+01 0.  1.
         -5    1    4    4    0  501 -0.53164069800E+02  0.14357225136E+02  0.14687515397E+03  0.15691504544E+03  0.41800000000E+01 0.  1.
</event>
<event>
11    1  0.8039394E-009  0.1860454E+03  0.7561462E-02  0.1064855E+00
         22   -1    0    0    0    0  0.00000000000E+00  0.00000000000E+00  0.16072598372E+03  0.16072598372E+03  0.00000000000E+00 0. -1.
         22   -1    0    0    0    0 -0.00000000000E+00 -0.00000000000E+00 -0.20861196399E+04  0.20861196399E+04  0.00000000000E+00 0.  1.
         24    2    1    2    0    0 -0.13026196868E+03  0.44125904332E+02 -0.18863418892E+04  0.18936013360E+04  0.92331038812E+02 0.  0.
         25    2    1    2    0    0  0.14663021476E+03 -0.31205937550E+01 -0.12448674114E+03  0.22946633864E+03  0.12509074251E+03 0.  0.
        -24    2    1    2    0    0 -0.16368246081E+02 -0.41005310577E+02  0.85434974115E+02  0.12377794906E+03  0.77926188767E+02 0.  0.
        -11    1    3    3    0    0 -0.27943073556E+02  0.42644303259E+02 -0.10134891670E+04  0.10147707345E+04  0.00000000000E+00 0.  1.
         12    1    3    3    0    0 -0.10231889513E+03  0.14816010727E+01 -0.87285272216E+03  0.87883060144E+03  0.00000000000E+00 0. -1.
         13    1    5    5    0    0 -0.27894301496E+02  0.31995009189E+01  0.70224617906E+02  0.75629530093E+02  0.00000000000E+00 0. -1.
        -14    1    5    5    0    0  0.11526055415E+02 -0.44204811496E+02  0.15210356208E+02  0.48148418964E+02  0.00000000000E+00 0.  1.
          5    1    4    4  501    0  0.16233542906E+03  0.55039360781E+01 -0.13224613517E+03  0.20949844274E+03  0.41800000000E+01 0. -1.
         -5    1    4    4    0  501 -0.15705214299E+02 -0.86245298331E+01  0.77593940306E+01  0.19967895902E+02  0.41800000000E+01 0. -1.
</event>
<event>
11    1  0.8039394E-009  0.1334830E+03  0.7561462E-02  0.1115062E+00
         22   -1    0    0    0    0  0.00000000000E+00  0.00000000000E+00  0.51951288064E+03  0.51951288064E+03  0.00000000000E+00 0. -1.
         22   -1    0    0    0    0 -0.00000000000E+00 -0.00000000000E+00 -0.87619141842E+03  0.87619141842E+03  0.00000000000E+00 0. -1.
        -24    2    1    2    0    0 -0.37533826041E+02  0.14813246854E+01 -0.48531753719E+03  0.49305974304E+03  0.78509973152E+02 0.  0.
         25    2    1    2    0    0  0.36662780033E+02  0.45113226148E+02 -0.37031135299E+03  0.39516810523E+03  0.12509184875E+03 0.  0.
         24    2    1    2    0    0  0.87104600792E+00 -0.46594550834E+02  0.49895035240E+03  0.50747645079E+03  0.80056748957E+02 0.  0.
        -13    1    5    5    0    0 -0.13211837718E+02  0.19130482922E+02  0.85809305164E+02  0.88903120785E+02  0.00000000000E+00 0.  1.
         14    1    5    5    0    0  0.14082883725E+02 -0.65725033755E+02  0.41314104724E+03  0.41857333000E+03  0.00000000000E+00 0. -1.
         11    1    3    3    0    0 -0.14925333856E+02  0.21365919282E+02 -0.42348434411E+03  0.42428558519E+03  0.00000000000E+00 0. -1.
        -12    1    3    3    0    0 -0.22608492185E+02 -0.19884594596E+02 -0.61833193077E+02  0.68774157845E+02  0.00000000000E+00 0.  1.
          5    1    4    4  501    0  0.51120417795E+02 -0.10058554514E+02 -0.59749438188E+02  0.79384755452E+02  0.41800000000E+01 0.  1.
         -5    1    4    4    0  501 -0.14457637762E+02  0.55171780662E+02 -0.31056191480E+03  0.31578334978E+03  0.41800000000E+01 0.  1.
</event>
<event>
11    1  0.8039394E-009  0.1555181E+03  0.7561462E-02  0.1091370E+00
         22   -1    0    0    0    0  0.00000000000E+00  0.00000000000E+00  0.19515923820E+04  0.19515923820E+04  0.00000000000E+00 0. -1.
         22   -1    0    0    0    0 -0.00000000000E+00 -0.00000000000E+00 -0.14995652499E+03  0.14995652499E+03  0.00000000000E+00 0. -1.
        -24    2    1    2    0    0 -0.83003033332E+02  0.38052134961E+02 -0.11068799500E+03  0.16292949829E+03  0.77179794361E+02 0.  0.
         25    2    1    2    0    0  0.11630505907E+03 -0.33588629483E+02  0.64192709976E+03  0.66511111120E+03  0.12508927228E+03 0.  0.
         24    2    1    2    0    0 -0.33302025733E+02 -0.44635054782E+01  0.12703967523E+04  0.12735082975E+04  0.82380385401E+02 0.  0.
        -11    1    5    5    0    0 -0.15780636787E+02  0.22898963660E+01  0.41350016349E+02  0.44318122420E+02  0.00000000000E+00 0.  1.
         12    1    5    5    0    0 -0.17521388946E+02 -0.67534018442E+01  0.12290467359E+04  0.12291901751E+04  0.00000000000E+00 0. -1.
         13    1    3    3    0    0 -0.96690086719E+02  0.31037406933E+02 -0.82577689587E+02  0.13088685311E+03  0.00000000000E+00 0. -1.
        -14    1    3    3    0    0  0.13687053387E+02  0.70147280283E+01 -0.28110305414E+02  0.32042645181E+02  0.00000000000E+00 0.  1.
          5    1    4    4  501    0  0.32219838741E+02 -0.17550001962E+02  0.48418108466E+03  0.48558718653E+03  0.41800000000E+01 0.  1.
         -5    1    4    4    0  501  0.84085220324E+02 -0.16038627521E+02  0.15774601510E+03  0.17952392467E+03  0.41800000000E+01 0.  1.
</event>
<event>
11    1  0.8039394E-009  0.1385156E+03  0.7561462E-02  0.1109227E+00
         22   -1    0    0    0    0  0.00000000000E+00  0.00000000000E+00  0.71656889905E+03  0.71656889905E+03  0.00000000000E+00 0. -1.
         22   -1    0    0    0    0 -0.00000000000E+00 -0.00000000000E+00 -0.12987164099E+03  0.12987164099E+03  0.00000000000E+00 0. -1.
         24    2    1    2    0    0 -0.56392166989E+02 -0.16734985064E+02 -0.85619163838E+02  0.13110354743E+03  0.79983515239E+02 0.  0.
         25    2    1    2    0    0  0.57405627920E+02  0.44188966889E+02  0.29341665524E+03  0.32709900674E+03  0.12510937506E+03 0.  0.
        -24    2    1    2    0    0 -0.10134609307E+01 -0.27453981825E+02  0.37889976666E+03  0.38823798587E+03  0.80055932128E+02 0.  0.
        -13    1    3    3    0    0  0.20995976431E-01 -0.99618197545E+01  0.13545743613E+02  0.16814442116E+02  0.00000000000E+00 0.  1.
         14    1    3    3    0    0 -0.56413162966E+02 -0.67731653093E+01 -0.99164907450E+02  0.11428910532E+03  0.00000000000E+00 0. -1.
         11    1    5    5    0    0  0.54602220100E+01  0.97012377081E+01  0.30561665804E+03  0.30581934162E+03  0.00000000000E+00 0. -1.
        -12    1    5    5    0    0 -0.64736829408E+01 -0.37155219533E+02  0.73283108620E+02  0.82418644241E+02  0.00000000000E+00 0.  1.
          5    1    4    4  501    0  0.82806930371E+02  0.34878669221E+02  0.11209662820E+03  0.14372416546E+03  0.41800000000E+01 0.  1.
         -5    1    4    4    0  501 -0.25401302451E+02  0.93102976680E+01  0.18132002704E+03  0.18337484128E+03  0.41800000000E+01 0.  1.
</event>
<event>
11    1  0.8039394E-009  0.1380408E+03  0.7561462E-02  0.1109766E+00
         22   -1    0    0    0    0  0.00000000000E+00  0.00000000000E+00  0.28879547574E+03  0.28879547574E+03  0.00000000000E+00 0.  1.
         22   -1    0    0    0    0 -0.00000000000E+00 -0.00000000000E+00 -0.12348372108E+04  0.12348372108E+04  0.00000000000E+00 0. -1.
        -24    2    1    2    0    0  0.39822421168E+01 -0.12059273130E+02 -0.11782244647E+04  0.11813084281E+04  0.84353000806E+02 0.  0.
         25    2    1    2    0    0 -0.48425243820E+02 -0.27627909293E+02  0.72935907109E+02  0.15516280960E+03  0.12509014880E+03 0.  0.
         24    2    1    2    0    0  0.44443001703E+02  0.39687182423E+02  0.15924682258E+03  0.18716144880E+03  0.78227901464E+02 0.  0.
        -13    1    5    5    0    0  0.49506834691E+02  0.57781255559E+02  0.14437621150E+03  0.16319954234E+03  0.00000000000E+00 0.  1.
         14    1    5    5    0    0 -0.50638329878E+01 -0.18094073136E+02  0.14870611080E+02  0.23961906458E+02  0.00000000000E+00 0. -1.
         11    1    3    3    0    0  0.83919111554E+01 -0.18487186480E+01 -0.11594858321E+04  0.11595176742E+04  0.00000000000E+00 0. -1.
        -12    1    3    3    0    0 -0.44096690386E+01 -0.10210554482E+02 -0.18738632634E+02  0.21790753931E+02  0.00000000000E+00 0.  1.
          5    1    4    4  501    0 -0.42865771884E+02 -0.51035774198E+01  0.10601493214E+03  0.11454326318E+03  0.41800000000E+01 0. -1.
         -5    1    4    4    0  501 -0.55594719365E+01 -0.22524331873E+02 -0.33079025036E+02  0.40619546426E+02  0.41800000000E+01 0. -1.
</event>
<event>
11    1  0.8039394E-009  0.1675108E+03  0.7561462E-02  0.1080218E+00
         22   -1    0    0    0    0  0.00000000000E+00  0.00000000000E+00  0.47238799653E+03  0.47238799653E+03  0.00000000000E+00 0.  1.
         22   -1    0    0    0    0 -0.00000000000E+00 -0.00000000000E+00 -0.11005824220E+04  0.11005824220E+04  0.00000000000E+00 0.  1.
        -24    2    1    2    0    0 -0.10390594198E+03  0.25590787628E+02 -0.91937319533E+03  0.92893557625E+03  0.78885355671E+02 0.  0.
         25    2    1    2    0    0  0.16318413122E+03 -0.83644166382E+02 -0.94229794722E+02  0.24114960360E+03  0.12509384418E+03 0.  0.
         24    2    1    2    0    0 -0.59278189239E+02  0.58053378754E+02  0.38540856460E+03  0.40288523867E+03  0.83022017365E+02 0.  0.
        -13    1    5    5    0    0 -0.33368033856E+02 -0.29887476896E+01  0.24865423080E+03  0.25090094617E+03  0.00000000000E+00 0.  1.
         14    1    5    5    0    0 -0.25910155383E+02  0.61042126444E+02  0.13675433380E+03  0.15198429250E+03  0.00000000000E+00 0. -1.
         11    1    3    3    0    0 -0.63094426299E+02 -0.24185968725E+02 -0.52765630405E+03  0.53196526477E+03  0.00000000000E+00 0. -1.
        -12    1    3    3    0    0 -0.40811515679E+02  0.49776756354E+02 -0.39171689128E+03  0.39697031148E+03  0.00000000000E+00 0.  1.
          5    1    4    4  501    0  0.30455661658E+02 -0.80996502611E+02 -0.55152225453E+02  0.10269966473E+03  0.41800000000E+01 0.  1.
         -5    1    4    4    0  501  0.13272846956E+03 -0.26476637713E+01 -0.39077569269E+02  0.13844993888E+03  0.41800000000E+01 0.  1.
</event>
<event>
11    1  0.8039394E-009  0.1318821E+03  0.7561462E-02  0.1116978E+00
         22   -1    0    0    0    0  0.00000000000E+00  0.00000000000E+00  0.81173317312E+03  0.81173317312E+03  0.00000000000E+00 0. -1.
         22   -1    0    0    0    0 -0.00000000000E+00 -0.00000000000E+00 -0.73012657891E+03  0.73012657891E+03  0.00000000000E+00 0.  1.
         24    2    1    2    0    0 -0.34467517404E+02 -0.23569883397E+02 -0.69571111244E+03  0.70173341028E+03  0.81684012974E+02 0.  0.
         25    2    1    2    0    0  0.45018645159E+02  0.88633107886E+01  0.12487150608E+03  0.18261076333E+03  0.12509420915E+03 0.  0.
        -24    2    1    2    0    0 -0.10551127755E+02  0.14706572608E+02  0.65244620057E+03  0.65751557842E+03  0.79454903270E+02 0.  0.
        -11    1    3    3    0    0 -0.55065615772E+02 -0.35071148423E+02 -0.57846240844E+03  0.58213483445E+03  0.00000000000E+00 0.  1.
         12    1    3    3    0    0  0.20598098369E+02  0.11501265026E+02 -0.11724870399E+03  0.11959857584E+03  0.00000000000E+00 0. -1.
         11    1    5    5    0    0 -0.30967319175E+02  0.37452066900E+02  0.47245612090E+03  0.47494885867E+03  0.00000000000E+00 0. -1.
        -12    1    5    5    0    0  0.20416191421E+02 -0.22745494291E+02  0.17999007966E+03  0.18256671975E+03  0.00000000000E+00 0.  1.
          5    1    4    4  501    0 -0.21496018840E+02 -0.37092105389E+01  0.11123665062E+03  0.11343236712E+03  0.41800000000E+01 0.  1.
         -5    1    4    4    0  501  0.66514663999E+02  0.12572521328E+02  0.13634855462E+02  0.69178396215E+02  0.41800000000E+01 0.  1.
</event>
<event>
11    1  0.8039394E-009  0.1320819E+03  0.7561462E-02  0.1116737E+00
         22   -1    0    0    0    0  0.00000000000E+00  0.00000000000E+00  0.46378306191E+03  0.46378306191E+03  0.00000000000E+00 0.  1.
         22   -1    0    0    0    0 -0.00000000000E+00 -0.00000000000E+00 -0.14580790761E+03  0.14580790761E+03  0.00000000000E+00 0. -1.
        -24    2    1    2    0    0  0.37775199327E+02  0.19996101274E+02 -0.99228784859E+02  0.13471674122E+03  0.80470111664E+02 0.  0.
         25    2    1    2    0    0 -0.25284608228E+02 -0.33923337205E+02  0.17710733572E+03  0.22091905756E+03  0.12509243544E+03 0.  0.
         24    2    1    2    0    0 -0.12490591099E+02  0.13927235931E+02  0.24009660344E+03  0.25395517074E+03  0.80603145081E+02 0.  0.
        -11    1    5    5    0    0  0.16277805182E+02 -0.49543407212E+01  0.20161551657E+03  0.20233222422E+03  0.00000000000E+00 0.  1.
         12    1    5    5    0    0 -0.28768396281E+02  0.18881576653E+02  0.38481086863E+02  0.51622946523E+02  0.00000000000E+00 0. -1.
         11    1    3    3    0    0  0.25120770745E+02  0.71139043393E+01 -0.11042502907E+03  0.11346958977E+03  0.00000000000E+00 0. -1.
        -12    1    3    3    0    0  0.12654428581E+02  0.12882196934E+02  0.11196244209E+02  0.21247151455E+02  0.00000000000E+00 0.  1.
          5    1    4    4  501    0 -0.61338675482E+02  0.22408193689E+01  0.15175845150E+03  0.16375455531E+03  0.41800000000E+01 0. -1.
         -5    1    4    4    0  501  0.36054067255E+02 -0.36164156574E+02  0.25348884222E+02  0.57164502251E+02  0.41800000000E+01 0. -1.
</event>
<event>
11    1  0.8039394E-009  0.1539584E+03  0.7561462E-02  0.1092901E+00
         22   -1    0    0    0    0  0.00000000000E+00  0.00000000000E+00  0.35941965871E+03  0.35941965871E+03  0.00000000000E+00 0.  1.
         22   -1    0    0    0    0 -0.00000000000E+00 -0.00000000000E+00 -0.12070680340E+04  0.12070680340E+04  0.00000000000E+00 0. -1.
        -24    2    1    2    0    0  0.46243598407E+02  0.76337549088E+02 -0.11396098002E+04  0.11461024283E+04  0.82911926793E+02 0.  0.
         25    2    1    2    0    0 -0.34689011591E+02 -0.10642935882E+03  0.69082902706E+02  0.18152292081E+03  0.12509031693E+03 0.  0.
         24    2    1    2    0    0 -0.11554586815E+02  0.30091809734E+02  0.22287852221E+03  0.23886234362E+03  0.79632644382E+02 0.  0.
        -13    1    5    5    0    0  0.15940075130E+02  0.30740655336E+02  0.35924784257E+02  0.49896533042E+02  0.00000000000E+00 0.  1.
         14    1    5    5    0    0 -0.27494661945E+02 -0.64884560192E+00  0.18695373795E+03  0.18896581058E+03  0.00000000000E+00 0. -1.
         13    1    3    3    0    0  0.14124099485E+02  0.53449271315E+02 -0.98469995733E+03  0.98625063790E+03  0.00000000000E+00 0. -1.
        -14    1    3    3    0    0  0.32119498921E+02  0.22888277773E+02 -0.15490984289E+03  0.15985179040E+03  0.00000000000E+00 0.  1.
          5    1    4    4  501    0 -0.31597626152E+02 -0.11660800206E+03  0.94640747256E+02  0.15352582703E+03  0.41800000000E+01 0.  1.
         -5    1    4    4    0  501 -0.30913854399E+01  0.10178643241E+02 -0.25557844550E+02  0.27997093782E+02  0.41800000000E+01 0.  1.
</event>
<event>
11    1  0.8039394E-009  0.1288437E+03  0.7561462E-02  0.1120698E+00
         22   -1    0    0    0    0  0.00000000000E+00  0.00000000000E+00  0.18566001921E+04  0.18566001921E+04  0.00000000000E+00 0.  1.
         22   -1    0    0    0    0 -0.00000000000E+00 -0.00000000000E+00 -0.37101896096E+02  0.37101896096E+02  0.00000000000E+00 0. -1.
        -24    2    1    2    0    0 -0.75801828601E+01 -0.31144607084E+02  0.66031139674E+02  0.10856504178E+03  0.79992569446E+02 0.  0.
         25    2    1    2    0    0  0.29778662530E+02  0.78381103226E+01  0.27040267073E+03  0.29952244048E+03  0.12509149969E+03 0.  0.
         24    2    1    2    0    0 -0.22198479670E+02  0.23306496762E+02  0.14830644856E+04  0.14856146060E+04  0.80836400563E+02 0.  0.
        -13    1    5    5    0    0  0.15558205282E+02  0.30986066113E+02  0.11149911491E+04  0.11155301236E+04  0.00000000000E+00 0.  1.
         14    1    5    5    0    0 -0.37756684952E+02 -0.76795693514E+01  0.36807333649E+03  0.37008448235E+03  0.00000000000E+00 0. -1.
         11    1    3    3    0    0  0.88984761315E+01 -0.16053112822E+02 -0.15502286783E+02  0.24025116113E+02  0.00000000000E+00 0. -1.
        -12    1    3    3    0    0 -0.16478658992E+02 -0.15091494262E+02  0.81533426457E+02  0.84539925663E+02  0.00000000000E+00 0.  1.
          5    1    4    4  501    0  0.19338408993E+02  0.57666400853E+02  0.21790921622E+03  0.22627701333E+03  0.41800000000E+01 0.  1.
         -5    1    4    4    0  501  0.10440253537E+02 -0.49828290531E+02  0.52493454516E+02  0.73245427148E+02  0.41800000000E+01 0.  1.
</event>
<event>
11    1  0.8039394E-009  0.1408869E+03  0.7561462E-02  0.1106572E+00
         22   -1    0    0    0    0  0.00000000000E+00  0.00000000000E+00  0.29205428111E+03  0.29205428111E+03  0.00000000000E+00 0. -1.
         22   -1    0    0    0    0 -0.00000000000E+00 -0.00000000000E+00 -0.66137062496E+03  0.66137062496E+03  0.00000000000E+00 0. -1.
         24    2    1    2    0    0  0.33159898704E+01 -0.32293460005E+02 -0.57037958790E+03  0.57677105345E+03  0.79234528200E+02 0.  0.
         25    2    1    2    0    0 -0.55466612754E+02 -0.10076324863E+02 -0.13225121742E+02  0.13784245247E+03  0.12509020907E+03 0.  0.
        -24    2    1    2    0    0  0.52150622884E+02  0.42369784869E+02  0.21428836579E+03  0.23881140015E+03  0.81218809363E+02 0.  0.
        -13    1    3    3    0    0 -0.11359003389E+01 -0.34191938006E+01  0.16733527267E+01  0.39725640553E+01  0.00000000000E+00 0.  1.
         14    1    3    3    0    0  0.44518902093E+01 -0.28874266205E+02 -0.57205294062E+03  0.57279848939E+03  0.00000000000E+00 0. -1.
         11    1    5    5    0    0  0.30427023741E+02 -0.17301147838E+02  0.12099981868E+03  0.12596066692E+03  0.00000000000E+00 0. -1.
        -12    1    5    5    0    0  0.21723599142E+02  0.59670932706E+02  0.93288547100E+02  0.11285073323E+03  0.00000000000E+00 0.  1.
          5    1    4    4  501    0 -0.15542861346E+02 -0.60700195072E+02  0.19047286976E+02  0.65622905770E+02  0.41800000000E+01 0.  1.
         -5    1    4    4    0  501 -0.39923751408E+02  0.50623870209E+02 -0.32272408718E+02  0.72219546703E+02  0.41800000000E+01 0.  1.
</event>
<event>
11    1  0.8039394E-009  0.1490728E+03  0.7561462E-02  0.1097830E+00
         22   -1    0    0    0    0  0.00000000000E+00  0.00000000000E+00  0.68097863950E+03  0.68097863950E+03  0.00000000000E+00 0. -1.
         22   -1    0    0    0    0 -0.00000000000E+00 -0.00000000000E+00 -0.13813661626E+04  0.13813661626E+04  0.00000000000E+00 0.  1.
        -24    2    1    2    0    0 -0.55515693831E+02 -0.62615270321E+02 -0.11367277239E+04  0.11425602538E+04  0.79318037042E+02 0.  0.
         25    2    1    2    0    0  0.53780505548E+02  0.35717445409E+02 -0.21802812437E+03  0.25952301072E+03  0.12509137217E+03 0.  0.
         24    2    1    2    0    0  0.17351882835E+01  0.26897824912E+02  0.65436832514E+03  0.66026153758E+03  0.83790746480E+02 0.  0.
        -13    1    5    5    0    0  0.59814474498E+01  0.17624325323E+02  0.26903389563E+02  0.32713711600E+02  0.00000000000E+00 0.  1.
         14    1    5    5    0    0 -0.42462591663E+01  0.92734995890E+01  0.62746493558E+03  0.62754782598E+03  0.00000000000E+00 0. -1.
         13    1    3    3    0    0 -0.24888897340E+01  0.18157978015E+02 -0.21613576407E+03  0.21691144563E+03  0.00000000000E+00 0. -1.
        -14    1    3    3    0    0 -0.53026804098E+02 -0.80773248335E+02 -0.92059195981E+03  0.92564880816E+03  0.00000000000E+00 0.  1.
          5    1    4    4  501    0  0.10910142665E+01  0.33397976812E+02 -0.20120939394E+03  0.20400810714E+03  0.41800000000E+01 0.  1.
         -5    1    4    4    0  501  0.52689491282E+02  0.23194685971E+01 -0.16818730425E+02  0.55514903577E+02  0.41800000000E+01 0.  1.
</event>
<event>
11    1  0.8039394E-009  0.1714732E+03  0.7561462E-02  0.1076757E+00
         22   -1    0    0    0    0  0.00000000000E+00  0.00000000000E+00  0.15896396522E+04  0.15896396522E+04  0.00000000000E+00 0. -1.
         22   -1    0    0    0    0 -0.00000000000E+00 -0.00000000000E+00 -0.95209207043E+02  0.95209207043E+02  0.00000000000E+00 0.  1.
        -24    2    1    2    0    0 -0.60905994538E+02  0.11226403235E+03  0.29477077552E+02  0.15295471657E+03  0.78825719726E+02 0.  0.
         25    2    1    2    0    0 -0.41111740597E+02 -0.11266668064E+03  0.21946148636E+03  0.27963212626E+03  0.12508727314E+03 0.  0.
         24    2    1    2    0    0  0.10201773513E+03  0.40264829097E+00  0.12454918813E+04  0.12522620164E+04  0.80637156881E+02 0.  0.
        -11    1    5    5    0    0 -0.39221564152E+01 -0.20403174160E+02  0.14389644532E+03  0.14538865087E+03  0.00000000000E+00 0.  1.
         12    1    5    5    0    0  0.10593989155E+03  0.20805822451E+02  0.11015954360E+04  0.11068733656E+04  0.00000000000E+00 0. -1.
         13    1    3    3    0    0 -0.13459129412E+02  0.18116669879E+01 -0.18984639675E+02  0.23341954618E+02  0.00000000000E+00 0. -1.
        -14    1    3    3    0    0 -0.47446865126E+02  0.11045236537E+03  0.48461717228E+02  0.12961276196E+03  0.00000000000E+00 0.  1.
          5    1    4    4  501    0  0.41975534090E+02 -0.16548936654E+02  0.45920293587E+02  0.64513243056E+02  0.41800000000E+01 0. -1.
         -5    1    4    4    0  501 -0.83087274686E+02 -0.96117743991E+02  0.17354119277E+03  0.21511888321E+03  0.41800000000E+01 0. -1.
</event>
<event>
11    1  0.8039394E-009  0.1344761E+03  0.7561462E-02  0.1113888E+00
         22   -1    0    0    0    0  0.00000000000E+00  0.00000000000E+00  0.72091158708E+03  0.72091158708E+03  0.00000000000E+00 0. -1.
         22   -1    0    0    0    0 -0.00000000000E+00 -0.00000000000E+00 -0.10396076045E+04  0.10396076045E+04  0.00000000000E+00 0.  1.
         24    2    1    2    0    0  0.24287277147E+02  0.42777184006E+02 -0.10093216266E+04  0.10138330343E+04  0.81899426665E+02 0.  0.
         25    2    1    2    0    0 -0.56702570761E+02 -0.43630333648E+02  0.18751988564E+03  0.23649332675E+03  0.12508636434E+03 0.  0.
        -24    2    1    2    0    0  0.32415293614E+02  0.85314964244E+00  0.50310572359E+03  0.51019283053E+03  0.78293525227E+02 0.  0.
        -11    1    3    3    0    0  0.46035649897E+02  0.17687483534E+02 -0.82996149901E+03  0.83142541335E+03  0.00000000000E+00 0.  1.
         12    1    3    3    0    0 -0.21748372750E+02  0.25089700472E+02 -0.17936012762E+03  0.18240762091E+03  0.00000000000E+00 0. -1.
         11    1    5    5    0    0  0.32291575788E+02  0.99866108442E+01  0.49905890315E+03  0.50020222618E+03  0.00000000000E+00 0. -1.
        -12    1    5    5    0    0  0.12371782519E+00 -0.91334612017E+01  0.40468204406E+01  0.99906043512E+01  0.00000000000E+00 0.  1.
          5    1    4    4  501    0 -0.42746824716E+02  0.30187765530E+02  0.13468203764E+03  0.14455212165E+03  0.41800000000E+01 0. -1.
         -5    1    4    4    0  501 -0.13955746045E+02 -0.73818099178E+02  0.52837847997E+02  0.91941205099E+02  0.41800000000E+01 0. -1.
</event>
<event>
11    1  0.8039394E-009  0.1813805E+03  0.7561462E-02  0.1068532E+00
         22   -1    0    0    0    0  0.00000000000E+00  0.00000000000E+00  0.79250960066E+03  0.79250960066E+03  0.00000000000E+00 0.  1.
         22   -1    0    0    0    0 -0.00000000000E+00 -0.00000000000E+00 -0.10663911888E+04  0.10663911888E+04  0.00000000000E+00 0. -1.
         24    2    1    2    0    0 -0.65337988651E+02  0.11262961105E+03 -0.95976125738E+03  0.97198832351E+03  0.81640356670E+02 0.  0.
         25    2    1    2    0    0  0.83994763318E+02 -0.12437481291E+03  0.26592235618E+01  0.19539307861E+03  0.12508864597E+03 0.  0.
        -24    2    1    2    0    0 -0.18656774666E+02  0.11745201857E+02  0.68322044565E+03  0.69151938737E+03  0.10451249085E+03 0.  0.
        -11    1    3    3    0    0 -0.10508674386E+02  0.11978920462E+01 -0.11480485215E+02  0.15609891847E+02  0.00000000000E+00 0.  1.
         12    1    3    3    0    0 -0.54829314265E+02  0.11143171900E+03 -0.94828077216E+03  0.95637843166E+03  0.00000000000E+00 0. -1.
         11    1    5    5    0    0 -0.35736026760E+02 -0.15147445222E+02  0.97622445382E+02  0.10505546415E+03  0.00000000000E+00 0. -1.
        -12    1    5    5    0    0  0.17079252093E+02  0.26892647079E+02  0.58559800027E+03  0.58646392322E+03  0.00000000000E+00 0.  1.
          5    1    4    4  501    0  0.11304564360E+03 -0.84891605649E+02  0.20806938334E+02  0.14295559915E+03  0.41800000000E+01 0.  1.
         -5    1    4    4    0  501 -0.29050880283E+02 -0.39483207257E+02 -0.18147714772E+02  0.52437479458E+02  0.41800000000E+01 0.  1.
</event>
<event>
11    1  0.8039394E-009  0.1355947E+03  0.7561462E-02  0.1112580E+00
         22   -1    0    0    0    0  0.00000000000E+00  0.00000000000E+00  0.32172791229E+04  0.32172791229E+04  0.00000000000E+00 0. -1.
         22   -1    0    0    0    0 -0.00000000000E+00 -0.00000000000E+00 -0.20905800232E+03  0.20905800232E+03  0.00000000000E+00 0.  1.
         24    2    1    2    0    0 -0.32908808500E+02 -0.24578459540E+01 -0.15779329909E+03  0.18081322972E+03  0.81888143950E+02 0.  0.
         25    2    1    2    0    0  0.50166889660E+02 -0.46714198406E+02  0.91430957121E+02  0.16944482412E+03  0.12511193128E+03 0.  0.
        -24    2    1    2    0    0 -0.17258081161E+02  0.49172044360E+02  0.30745834626E+04  0.30760790714E+04  0.80518655368E+02 0.  0.
        -11    1    3    3    0    0  0.19783694032E+02  0.76279946369E+00 -0.69235460194E+01  0.20974076906E+02  0.00000000000E+00 0.  1.
         12    1    3    3    0    0 -0.52692502531E+02 -0.32206454177E+01 -0.15086975307E+03  0.15983915281E+03  0.00000000000E+00 0. -1.
         11    1    5    5    0    0 -0.22540606246E+02  0.81460989109E+01  0.24547054669E+04  0.24548224716E+04  0.00000000000E+00 0. -1.
        -12    1    5    5    0    0  0.52825250848E+01  0.41025945449E+02  0.61987799568E+03  0.62125659980E+03  0.00000000000E+00 0.  1.
          5    1    4    4  501    0  0.86022712368E+02 -0.41995273750E+01  0.47471810858E+02  0.98430626836E+02  0.41800000000E+01 0.  1.
         -5    1    4    4    0  501 -0.35855822708E+02 -0.42514671031E+02  0.43959146264E+02  0.71014197279E+02  0.41800000000E+01 0.  1.
</event>
<event>
11    1  0.8039394E-009  0.1334287E+03  0.7561462E-02  0.1115127E+00
         22   -1    0    0    0    0  0.00000000000E+00  0.00000000000E+00  0.13048666197E+03  0.13048666197E+03  0.00000000000E+00 0. -1.
         22   -1    0    0    0    0 -0.00000000000E+00 -0.00000000000E+00 -0.37669395201E+03  0.37669395201E+03  0.00000000000E+00 0.  1.
        -24    2    1    2    0    0 -0.22673112199E+02 -0.30454059861E+02 -0.16556126261E+03  0.18793174193E+03  0.80413233804E+02 0.  0.
         25    2    1    2    0    0  0.48037348231E+02  0.48483311044E+02 -0.15099258811E+03  0.20761575114E+03  0.12508924886E+03 0.  0.
         24    2    1    2    0    0 -0.25364236031E+02 -0.18029251183E+02  0.70346560676E+02  0.11163312091E+03  0.80900659559E+02 0.  0.
        -11    1    5    5    0    0  0.60959448528E+00 -0.21552430477E+02 -0.12373672234E+02  0.24859336867E+02  0.00000000000E+00 0.  1.
         12    1    5    5    0    0 -0.25973830517E+02  0.35231792942E+01  0.82720232911E+02  0.86773784041E+02  0.00000000000E+00 0. -1.
         11    1    3    3    0    0  0.80957937199E+01  0.23268520761E+02 -0.29408984876E+02  0.38364753691E+02  0.00000000000E+00 0. -1.
        -12    1    3    3    0    0 -0.30768905919E+02 -0.53722580622E+02 -0.13615227773E+03  0.14956698824E+03  0.00000000000E+00 0.  1.
          5    1    4    4  501    0  0.71243066411E+02 -0.90871461574E+00 -0.13130929106E+03  0.14945234221E+03  0.41800000000E+01 0.  1.
         -5    1    4    4    0  501 -0.23205718181E+02  0.49392025660E+02 -0.19683297052E+02  0.58163408926E+02  0.41800000000E+01 0.  1.
</event>
<event>
11    1  0.8039394E-009  0.2964806E+03  0.7561462E-02  0.1001692E+00
         22   -1    0    0    0    0  0.00000000000E+00  0.00000000000E+00  0.11350241623E+04  0.11350241623E+04  0.00000000000E+00 0. -1.
         22   -1    0    0    0    0 -0.00000000000E+00 -0.00000000000E+00 -0.12081017287E+04  0.12081017287E+04  0.00000000000E+00 0. -1.
        -24    2    1    2    0    0  0.18647967091E+02  0.41352297321E+02 -0.11320225752E+04  0.11357466533E+04  0.79922403154E+02 0.  0.
         25    2    1    2    0    0 -0.15230033104E+03 -0.25010713076E+03  0.59979918430E+03  0.67908431160E+03  0.12508986002E+03 0.  0.
         24    2    1    2    0    0  0.13365236395E+03  0.20875483344E+03  0.45914582451E+03  0.52829492605E+03  0.82698886656E+02 0.  0.
        -11    1    5    5    0    0 -0.11598116234E+02  0.17645538506E+02  0.32502325917E+02  0.38759289459E+02  0.00000000000E+00 0.  1.
         12    1    5    5    0    0  0.14525048018E+03  0.19110929493E+03  0.42664349859E+03  0.48953563659E+03  0.00000000000E+00 0. -1.
         11    1    3    3    0    0  0.26559272807E+02 -0.40996021403E+01 -0.80898664287E+03  0.80943288174E+03  0.00000000000E+00 0. -1.
        -12    1    3    3    0    0 -0.79113057160E+01  0.45451899461E+02 -0.32303593235E+03  0.32631377157E+03  0.00000000000E+00 0.  1.
          5    1    4    4  501    0 -0.30452583292E+02 -0.15771860643E+03  0.24851467415E+03  0.29593839614E+03  0.41800000000E+01 0. -1.
         -5    1    4    4    0  501 -0.12184774774E+03 -0.92388524327E+02  0.35128451015E+03  0.38314591546E+03  0.41800000000E+01 0. -1.
</event>
<event>
11    1  0.8039394E-009  0.1353858E+03  0.7561462E-02  0.1112823E+00
         22   -1    0    0    0    0  0.00000000000E+00  0.00000000000E+00  0.46573014918E+03  0.46573014918E+03  0.00000000000E+00 0.  1.
         22   -1    0    0    0    0 -0.00000000000E+00 -0.00000000000E+00 -0.35224268784E+03  0.35224268784E+03  0.00000000000E+00 0. -1.
         24    2    1    2    0    0  0.84903536667E+01  0.28470016802E+02 -0.31059657161E+03  0.32253528785E+03  0.81707733087E+02 0.  0.
         25    2    1    2    0    0 -0.51113026800E+02 -0.48582074427E+02  0.15825654045E+03  0.21369423021E+03  0.12508929597E+03 0.  0.
        -24    2    1    2    0    0  0.42622673133E+02  0.20112057625E+02  0.26582749251E+03  0.28174331897E+03  0.80584458104E+02 0.  0.
        -13    1    3    3    0    0  0.40706248706E+02  0.26323887294E+02 -0.12350047493E+03  0.13267370890E+03  0.00000000000E+00 0.  1.
         14    1    3    3    0    0 -0.32215895039E+02  0.21461295085E+01 -0.18709609668E+03  0.18986157894E+03  0.00000000000E+00 0. -1.
         11    1    5    5    0    0  0.45968783538E+02  0.11644280481E+02  0.63710340113E+02  0.79421192167E+02  0.00000000000E+00 0. -1.
        -12    1    5    5    0    0 -0.33461104049E+01  0.84677771437E+01  0.20211715239E+03  0.20232212681E+03  0.00000000000E+00 0.  1.
          5    1    4    4  501    0 -0.14682974735E+01  0.20083094403E+02  0.11802433330E+03  0.11980276387E+03  0.41800000000E+01 0.  1.
         -5    1    4    4    0  501 -0.49644729327E+02 -0.68665168830E+02  0.40232207145E+02  0.93891466343E+02  0.41800000000E+01 0.  1.
</event>
<event>
11    1  0.8039394E-009  0.2229010E+03  0.7561462E-02  0.1039415E+00
         22   -1    0    0    0    0  0.00000000000E+00  0.00000000000E+00  0.49174512896E+03  0.49174512896E+03  0.00000000000E+00 0. -1.
         22   -1    0    0    0    0 -0.00000000000E+00 -0.00000000000E+00 -0.22833785353E+03  0.22833785353E+03  0.00000000000E+00 0.  1.
         24    2    1    2    0    0 -0.34202461361E+02 -0.21966158603E+03 -0.62063264425E+02  0.24458394391E+03  0.80922407810E+02 0.  0.
         25    2    1    2    0    0  0.61300019254E+02  0.11532862692E+03  0.85505238980E+02  0.20004286520E+03  0.12509043718E+03 0.  0.
        -24    2    1    2    0    0 -0.27097557893E+02  0.10433295911E+03  0.23996530088E+03  0.27545617338E+03  0.81689129193E+02 0.  0.
        -13    1    3    3    0    0 -0.57164684855E+02 -0.11043994962E+03 -0.23922380343E+02  0.12663752978E+03  0.00000000000E+00 0.  1.
         14    1    3    3    0    0  0.22962223493E+02 -0.10922163641E+03 -0.38140884081E+02  0.11794641413E+03  0.00000000000E+00 0. -1.
         11    1    5    5    0    0 -0.93946336488E+01 -0.84263891348E+01  0.67310714358E+02  0.68483541399E+02  0.00000000000E+00 0. -1.
        -12    1    5    5    0    0 -0.17702924244E+02  0.11275934824E+03  0.17265458652E+03  0.20697263198E+03  0.00000000000E+00 0.  1.
          5    1    4    4  501    0  0.10496863622E+01  0.78613216792E+02 -0.11973434323E+02  0.79636519420E+02  0.41800000000E+01 0.  1.
         -5    1    4    4    0  501  0.60250332892E+02  0.36715410133E+02  0.97478673303E+02  0.12040634578E+03  0.41800000000E+01 0.  1.
</event>
<event>
11    1  0.8039394E-009  0.1401789E+03  0.7561462E-02  0.1107359E+00
         22   -1    0    0    0    0  0.00000000000E+00  0.00000000000E+00  0.44722753596E+03  0.44722753596E+03  0.00000000000E+00 0. -1.
         22   -1    0    0    0    0 -0.00000000000E+00 -0.00000000000E+00 -0.24459390423E+03  0.24459390423E+03  0.00000000000E+00 0.  1.
         24    2    1    2    0    0  0.20146796406E+02  0.62889164750E+02 -0.19441815188E+03  0.22051391062E+03  0.80417824819E+02 0.  0.
         25    2    1    2    0    0 -0.53792313258E+02 -0.11066518233E+02  0.13651930635E+03  0.19313447854E+03  0.12508926815E+03 0.  0.
        -24    2    1    2    0    0  0.33645516852E+02 -0.51822646518E+02  0.26053247726E+03  0.27817305102E+03  0.75402036521E+02 0.  0.
        -11    1    3    3    0    0  0.20643156770E+02  0.78816321033E+02 -0.18464295718E+03  0.20181965717E+03  0.00000000000E+00 0.  1.
         12    1    3    3    0    0 -0.49636036479E+00 -0.15927156283E+02 -0.97751947049E+01  0.18694253459E+02  0.00000000000E+00 0. -1.
         11    1    5    5    0    0  0.51555868366E+02 -0.43536480655E+02  0.24152264036E+03  0.25077204493E+03  0.00000000000E+00 0. -1.
        -12    1    5    5    0    0 -0.17910351514E+02 -0.82861658630E+01  0.19009836901E+02  0.27401006096E+02  0.00000000000E+00 0.  1.
          5    1    4    4  501    0 -0.63340097841E+02 -0.59461218362E+02  0.82879400665E+02  0.12014188253E+03  0.41800000000E+01 0. -1.
         -5    1    4    4    0  501  0.95477845834E+01  0.48394700129E+02  0.53639905682E+02  0.72992596012E+02  0.41800000000E+01 0. -1.
</event>
<event>
11    1  0.8039394E-009  0.3132143E+03  0.7561462E-02  0.9947487E-01
         22   -1    0    0    0    0  0.00000000000E+00  0.00000000000E+00  0.80345915843E+03  0.80345915843E+03  0.00000000000E+00 0. -1.
         22   -1    0    0    0    0 -0.00000000000E+00 -0.00000000000E+00 -0.17459642082E+03  0.17459642082E+03  0.00000000000E+00 0. -1.
         24    2    1    2    0    0  0.28530629661E+03  0.97818636309E+02  0.10597241563E+03  0.32930876414E+03  0.79031264494E+02 0.  0.
         25    2    1    2    0    0 -0.24954955592E+03 -0.73165021892E+02  0.36028155722E+03  0.46159959213E+03  0.12507310539E+03 0.  0.
        -24    2    1    2    0    0 -0.35756740689E+02 -0.24653614418E+02  0.16260876476E+03  0.18714722297E+03  0.81829869126E+02 0.  0.
        -11    1    3    3    0    0  0.52547234366E+02  0.44610569608E+02  0.21877272407E+01  0.68964490216E+02  0.00000000000E+00 0.  1.
         12    1    3    3    0    0  0.23275906225E+03  0.53208066701E+02  0.10378468839E+03  0.26034427392E+03  0.00000000000E+00 0. -1.
         11    1    5    5    0    0 -0.19698460473E+02  0.15833267348E+02  0.13078523090E+03  0.13320472335E+03  0.00000000000E+00 0. -1.
        -12    1    5    5    0    0 -0.16058280216E+02 -0.40486881765E+02  0.31823533855E+02  0.53942499623E+02  0.00000000000E+00 0.  1.
          5    1    4    4  501    0 -0.70360114925E+02 -0.71993617032E+02  0.18633371841E+03  0.21182859505E+03  0.41800000000E+01 0.  1.
         -5    1    4    4    0  501 -0.17918944100E+03 -0.11714048594E+01  0.17394783881E+03  0.24977099708E+03  0.41800000000E+01 0.  1.
</event>
<event>
11    1  0.8039394E-009  0.1370811E+03  0.7561462E-02  0.1110862E+00
         22   -1    0    0    0    0  0.00000000000E+00  0.00000000000E+00  0.82358614813E+03  0.82358614813E+03  0.00000000000E+00 0.  1.
         22   -1    0    0    0    0 -0.00000000000E+00 -0.00000000000E+00 -0.32193537867E+03  0.32193537867E+03  0.00000000000E+00 0. -1.
        -24    2    1    2    0    0 -0.99882328000E+01 -0.21653118954E+02 -0.26656078474E+03  0.28111725499E+03  0.86044388172E+02 0.  0.
         25    2    1    2    0    0  0.17631885393E+02  0.75625023537E+02  0.76236727751E+02  0.16579333008E+03  0.12508142178E+03 0.  0.
         24    2    1    2    0    0 -0.76436525931E+01 -0.53971904582E+02  0.69197482645E+03  0.69861094172E+03  0.79099276529E+02 0.  0.
        -11    1    5    5    0    0 -0.21901273467E+01 -0.66792540195E+02  0.66404225419E+03  0.66739655036E+03  0.00000000000E+00 0.  1.
         12    1    5    5    0    0 -0.54535252465E+01  0.12820635613E+02  0.27932572258E+02  0.31214391362E+02  0.00000000000E+00 0. -1.
         13    1    3    3    0    0 -0.88238027296E+01 -0.38354005278E+02 -0.26027658085E+03  0.26323523274E+03  0.00000000000E+00 0. -1.
        -14    1    3    3    0    0 -0.11644300704E+01  0.16700886323E+02 -0.62842038962E+01  0.17882022256E+02  0.00000000000E+00 0.  1.
          5    1    4    4  501    0 -0.25966262236E+02  0.94615532099E+02  0.40804763303E+02  0.10634306182E+03  0.41800000000E+01 0.  1.
         -5    1    4    4    0  501  0.43598147629E+02 -0.18990508563E+02  0.35431964447E+02  0.59450268265E+02  0.41800000000E+01 0.  1.
</event>
<event>
11    1  0.8039394E-009  0.1523903E+03  0.7561462E-02  0.1094461E+00
         22   -1    0    0    0    0  0.00000000000E+00  0.00000000000E+00  0.93512664687E+03  0.93512664687E+03  0.00000000000E+00 0.  1.
         22   -1    0    0    0    0 -0.00000000000E+00 -0.00000000000E+00 -0.71623801779E+03  0.71623801779E+03  0.00000000000E+00 0.  1.
         24    2    1    2    0    0  0.77701382588E+02 -0.38763526235E+02 -0.66326776903E+03  0.67346427989E+03  0.78037728322E+02 0.  0.
         25    2    1    2    0    0 -0.84284122235E+02  0.37491427786E+02  0.85739980771E+02  0.17750754705E+03  0.12509262384E+03 0.  0.
        -24    2    1    2    0    0  0.65827396478E+01  0.12720984481E+01  0.79641641733E+03  0.80039283772E+03  0.79401726505E+02 0.  0.
        -11    1    3    3    0    0  0.89416193157E+02 -0.27630746590E+02 -0.62433642495E+03  0.63131187640E+03  0.00000000000E+00 0.  1.
         12    1    3    3    0    0 -0.11714810569E+02 -0.11132779644E+02 -0.38931344073E+02  0.42152403498E+02  0.00000000000E+00 0. -1.
         11    1    5    5    0    0  0.15336566653E+02  0.26110118119E+02  0.13095113895E+03  0.13440665659E+03  0.00000000000E+00 0. -1.
        -12    1    5    5    0    0 -0.87538270054E+01 -0.24838019671E+02  0.66546527839E+03  0.66598618112E+03  0.00000000000E+00 0.  1.
          5    1    4    4  501    0  0.32526084467E+02  0.15530546355E+02  0.24028281911E+02  0.43519820455E+02  0.41800000000E+01 0. -1.
         -5    1    4    4    0  501 -0.11681020670E+03  0.21960881431E+02  0.61711698860E+02  0.13398772660E+03  0.41800000000E+01 0. -1.
</event>
<event>
11    1  0.8039394E-009  0.1358547E+03  0.7561462E-02  0.1112278E+00
         22   -1    0    0    0    0  0.00000000000E+00  0.00000000000E+00  0.13480579106E+04  0.13480579106E+04  0.00000000000E+00 0.  1.
         22   -1    0    0    0    0 -0.00000000000E+00 -0.00000000000E+00 -0.11343466882E+03  0.11343466882E+03  0.00000000000E+00 0.  1.
         24    2    1    2    0    0  0.12944120540E+02 -0.50943606594E+02 -0.45093430032E+02  0.10164914443E+03  0.74406517341E+02 0.  0.
         25    2    1    2    0    0 -0.11724918368E+02  0.53643040952E+02  0.81901402171E+02  0.15927972595E+03  0.12508853611E+03 0.  0.
        -24    2    1    2    0    0 -0.12192021719E+01 -0.26994343579E+01  0.11978152696E+04  0.12005637090E+04  0.81135848377E+02 0.  0.
        -13    1    3    3    0    0  0.43424093532E+02 -0.38696691236E+02 -0.30938211485E+02  0.65880640112E+02  0.00000000000E+00 0.  1.
         14    1    3    3    0    0 -0.30479972991E+02 -0.12246915358E+02 -0.14155218547E+02  0.35768504322E+02  0.00000000000E+00 0. -1.
         13    1    5    5    0    0 -0.14017719699E+01  0.29275617855E+01  0.55832260075E+00  0.32935249794E+01  0.00000000000E+00 0. -1.
        -14    1    5    5    0    0  0.18256979799E+00 -0.56269961434E+01  0.11972569470E+04  0.11972701840E+04  0.00000000000E+00 0.  1.
          5    1    4    4  501    0  0.31454828693E+02  0.66395673219E+02  0.98916148366E+01  0.74250307167E+02  0.41800000000E+01 0. -1.
         -5    1    4    4    0  501 -0.43179747061E+02 -0.12752632267E+02  0.72009787334E+02  0.85029418779E+02  0.41800000000E+01 0. -1.
</event>
<event>
11    1  0.8039394E-009  0.2342773E+03  0.7561462E-02  0.1032625E+00
         22   -1    0    0    0    0  0.00000000000E+00  0.00000000000E+00  0.53611771984E+03  0.53611771984E+03  0.00000000000E+00 0. -1.
         22   -1    0    0    0    0 -0.00000000000E+00 -0.00000000000E+00 -0.23228156404E+04  0.23228156404E+04  0.00000000000E+00 0. -1.
        -24    2    1    2    0    0 -0.18316058596E+02 -0.50802454766E+02 -0.20919864368E+04  0.20941060606E+04  0.77178845478E+02 0.  0.
         25    2    1    2    0    0  0.21382417815E+03  0.60966602624E+02 -0.12599306423E+03  0.28454186133E+03  0.12510840428E+03 0.  0.
         24    2    1    2    0    0 -0.19550811955E+03 -0.10164147858E+02  0.43128158042E+03  0.48028543827E+03  0.79646505818E+02 0.  0.
        -13    1    5    5    0    0 -0.11714188291E+03 -0.30081098236E+02  0.18460289170E+03  0.22069282007E+03  0.00000000000E+00 0.  1.
         14    1    5    5    0    0 -0.78366236641E+02  0.19916950377E+02  0.24667868872E+03  0.25959261820E+03  0.00000000000E+00 0. -1.
         13    1    3    3    0    0  0.17107483825E+02 -0.25250237400E+02 -0.15697560178E+04  0.15700522908E+04  0.00000000000E+00 0. -1.
        -14    1    3    3    0    0 -0.35423542421E+02 -0.25552217366E+02 -0.52223041894E+03  0.52405376980E+03  0.00000000000E+00 0.  1.
          5    1    4    4  501    0  0.70231409234E+02  0.83063017119E+02 -0.42013527498E+02  0.11668129477E+03  0.41800000000E+01 0.  1.
         -5    1    4    4    0  501  0.14359276892E+03 -0.22096414494E+02 -0.83979536732E+02  0.16786056657E+03  0.41800000000E+01 0.  1.
</event>
<event>
11    1  0.8039394E-009  0.1727913E+03  0.7561462E-02  0.1075628E+00
         22   -1    0    0    0    0  0.00000000000E+00  0.00000000000E+00  0.13976839758E+04  0.13976839758E+04  0.00000000000E+00 0.  1.
         22   -1    0    0    0    0 -0.00000000000E+00 -0.00000000000E+00 -0.11796835469E+04  0.11796835469E+04  0.00000000000E+00 0. -1.
        -24    2    1    2    0    0  0.13105290666E+02 -0.46246064629E+02 -0.11433400222E+04  0.11470758301E+04  0.79032312808E+02 0.  0.
         25    2    1    2    0    0 -0.33904140605E+02 -0.76953130965E+02  0.15991334067E+03  0.21973902797E+03  0.12506673729E+03 0.  0.
         24    2    1    2    0    0  0.20798849939E+02  0.12319919559E+03  0.12014271104E+04  0.12105526647E+04  0.80000114454E+02 0.  0.
        -13    1    5    5    0    0 -0.11090916890E+02  0.91939977879E+02  0.99771471699E+03  0.10020033056E+04  0.00000000000E+00 0.  1.
         14    1    5    5    0    0  0.31889766829E+02  0.31259217716E+02  0.20371239342E+03  0.20854935904E+03  0.00000000000E+00 0. -1.
         13    1    3    3    0    0 -0.10415631873E+02 -0.47800350137E+02 -0.10370525622E+04  0.10382058446E+04  0.00000000000E+00 0. -1.
        -14    1    3    3    0    0  0.23520922539E+02  0.15542855076E+01 -0.10628745993E+03  0.10886998548E+03  0.00000000000E+00 0.  1.
          5    1    4    4  501    0 -0.43141602983E+01  0.14190880333E+02  0.11100871315E+03  0.11207318974E+03  0.41800000000E+01 0. -1.
         -5    1    4    4    0  501 -0.29589980306E+02 -0.91144011299E+02  0.48904627520E+02  0.10766583824E+03  0.41800000000E+01 0. -1.
</event>
<event>
11    1  0.8039394E-009  0.1539756E+03  0.7561462E-02  0.1092884E+00
         22   -1    0    0    0    0  0.00000000000E+00  0.00000000000E+00  0.13108361039E+03  0.13108361039E+03  0.00000000000E+00 0. -1.
         22   -1    0    0    0    0 -0.00000000000E+00 -0.00000000000E+00 -0.20962155025E+04  0.20962155025E+04  0.00000000000E+00 0. -1.
         24    2    1    2    0    0  0.89865356996E+02  0.11567654205E+02 -0.15617476924E+04  0.15664121594E+04  0.79884950332E+02 0.  0.
         25    2    1    2    0    0 -0.84953306832E+02 -0.12557140298E+02 -0.50721910643E+03  0.52942739540E+03  0.12508956377E+03 0.  0.
        -24    2    1    2    0    0 -0.49120501638E+01  0.98948609354E+00  0.10383490673E+03  0.13145955809E+03  0.80466267708E+02 0.  0.
        -11    1    3    3    0    0  0.23280769010E+02  0.79037545461E+01 -0.10561025531E+04  0.10563886909E+04  0.00000000000E+00 0.  1.
         12    1    3    3    0    0  0.66584587986E+02  0.36638996586E+01 -0.50564513932E+03  0.51002346851E+03  0.00000000000E+00 0. -1.
         11    1    5    5    0    0  0.14868160381E+02  0.27613016202E+01  0.10971158404E+03  0.11074889911E+03  0.00000000000E+00 0. -1.
        -12    1    5    5    0    0 -0.19780210545E+02 -0.17718155266E+01 -0.58766773126E+01  0.20710658988E+02  0.00000000000E+00 0.  1.
          5    1    4    4  501    0 -0.43337481567E+02 -0.61269975134E+02 -0.37481606348E+03  0.38227830308E+03  0.41800000000E+01 0.  1.
         -5    1    4    4    0  501 -0.41615825265E+02  0.48712834835E+02 -0.13240304294E+03  0.14714909232E+03  0.41800000000E+01 0.  1.
</event>
<event>
11    1  0.8039394E-009  0.1671445E+03  0.7561462E-02  0.1080544E+00
         22   -1    0    0    0    0  0.00000000000E+00  0.00000000000E+00  0.44075571321E+03  0.44075571321E+03  0.00000000000E+00 0.  1.
         22   -1    0    0    0    0 -0.00000000000E+00 -0.00000000000E+00 -0.50502114955E+03  0.50502114955E+03  0.00000000000E+00 0.  1.
        -24    2    1    2    0    0  0.40591562571E+02  0.11622681484E+02 -0.40043101360E+03  0.41063808504E+03  0.80597013313E+02 0.  0.
         25    2    1    2    0    0  0.73339490856E+02 -0.32876210813E+02 -0.21994661604E+02  0.15030098025E+03  0.12508834225E+03 0.  0.
         24    2    1    2    0    0 -0.11393105343E+03  0.21253529329E+02  0.35816023886E+03  0.38483779746E+03  0.79933573731E+02 0.  0.
        -13    1    5    5    0    0 -0.84450883940E+02 -0.10571976421E+02  0.15240904336E+03  0.17456298285E+03  0.00000000000E+00 0.  1.
         14    1    5    5    0    0 -0.29480169488E+02  0.31825505750E+02  0.20575119551E+03  0.21027481461E+03  0.00000000000E+00 0. -1.
         11    1    3    3    0    0 -0.18712146332E+02  0.12816342618E+02 -0.46106461081E+02  0.51382962272E+02  0.00000000000E+00 0. -1.
        -12    1    3    3    0    0  0.59303708903E+02 -0.11936611335E+01 -0.35432455252E+03  0.35925512277E+03  0.00000000000E+00 0.  1.
          5    1    4    4  501    0  0.98859863610E+02  0.82187900689E+01 -0.22223809623E+02  0.10174571862E+03  0.41800000000E+01 0.  1.
         -5    1    4    4    0  501 -0.25520372754E+02 -0.41095000882E+02  0.22914801920E+00  0.48555261629E+02  0.41800000000E+01 0.  1.
</event>
<event>
11    1  0.8039394E-009  0.4265053E+03  0.7561462E-02  0.9574635E-01
         22   -1    0    0    0    0  0.00000000000E+00  0.00000000000E+00  0.14454018118E+03  0.14454018118E+03  0.00000000000E+00 0. -1.
         22   -1    0    0    0    0 -0.00000000000E+00 -0.00000000000E+00 -0.20927618889E+04  0.20927618889E+04  0.00000000000E+00 0.  1.
         24    2    1    2    0    0  0.40431605964E+03  0.11838896682E+03 -0.13482713056E+04  0.14149450291E+04  0.82137069586E+02 0.  0.
         25    2    1    2    0    0 -0.32040592616E+03 -0.21718094470E+03 -0.40472089176E+03  0.57382493580E+03  0.12509411040E+03 0.  0.
        -24    2    1    2    0    0 -0.83910133479E+02  0.98791977879E+02 -0.19522951037E+03  0.24853210523E+03  0.82782124994E+02 0.  0.
        -11    1    3    3    0    0 -0.22624905636E+01 -0.29043869314E+01 -0.46834657442E+01  0.59572794441E+01  0.00000000000E+00 0.  1.
         12    1    3    3    0    0  0.40657855021E+03  0.12129335375E+03 -0.13435878399E+04  0.14089877496E+04  0.00000000000E+00 0. -1.
         13    1    5    5    0    0  0.32680316973E+01  0.33383811512E+02 -0.93921426109E+02  0.99731605745E+02  0.00000000000E+00 0. -1.
        -14    1    5    5    0    0 -0.87178165177E+02  0.65408166368E+02 -0.10130808426E+03  0.14880049949E+03  0.00000000000E+00 0.  1.
          5    1    4    4  501    0 -0.31500646289E+02 -0.75600139662E+02 -0.55781312286E+02  0.99180134271E+02  0.41800000000E+01 0. -1.
         -5    1    4    4    0  501 -0.28890527987E+03 -0.14158080504E+03 -0.34893957947E+03  0.47464480153E+03  0.41800000000E+01 0. -1.
</event>
<event>
11    1  0.8039394E-009  0.1726281E+03  0.7561462E-02  0.1075767E+00
         22   -1    0    0    0    0  0.00000000000E+00  0.00000000000E+00  0.56629122027E+03  0.56629122027E+03  0.00000000000E+00 0.  1.
         22   -1    0    0    0    0 -0.00000000000E+00 -0.00000000000E+00 -0.28667118247E+03  0.28667118247E+03  0.00000000000E+00 0. -1.
        -24    2    1    2    0    0  0.11054041158E+03 -0.42636326182E+02 -0.22841705103E+03  0.26960321678E+03  0.80464317523E+02 0.  0.
         25    2    1    2    0    0 -0.11258007661E+03  0.54663593042E+02  0.21171477275E+03  0.27592219467E+03  0.12509008936E+03 0.  0.
         24    2    1    2    0    0  0.20396650248E+01 -0.12027266860E+02  0.29632231608E+03  0.30743699129E+03  0.81004772831E+02 0.  0.
        -13    1    5    5    0    0  0.98057950038E+01 -0.39804337289E+02  0.24635796955E+03  0.24974544649E+03  0.00000000000E+00 0.  1.
         14    1    5    5    0    0 -0.77661299790E+01  0.27777070429E+02  0.49964346535E+02  0.57691544798E+02  0.00000000000E+00 0. -1.
         11    1    3    3    0    0  0.63718917036E+02 -0.28276284688E+00 -0.17719206062E+03  0.18830084092E+03  0.00000000000E+00 0. -1.
        -12    1    3    3    0    0  0.46821494545E+02 -0.42353563335E+02 -0.51224990410E+02  0.81302375864E+02  0.00000000000E+00 0.  1.
          5    1    4    4  501    0 -0.18267620793E+02  0.40840108310E+02  0.13763205223E+01  0.44955389826E+02  0.41800000000E+01 0. -1.
         -5    1    4    4    0  501 -0.94312455813E+02  0.13823484732E+02  0.21033845223E+03  0.23096680484E+03  0.41800000000E+01 0. -1.
</event>
<event>
11    1  0.8039394E-009  0.1278047E+03  0.7561462E-02  0.1121996E+00
         22   -1    0    0    0    0  0.00000000000E+00  0.00000000000E+00  0.67115376202E+03  0.67115376202E+03  0.00000000000E+00 0.  1.
         22   -1    0    0    0    0 -0.00000000000E+00 -0.00000000000E+00 -0.31489297988E+03  0.31489297988E+03  0.00000000000E+00 0.  1.
        -24    2    1    2    0    0  0.25779502112E+02 -0.36665040340E+01 -0.28794939885E+03  0.29955526604E+03  0.78361183830E+02 0.  0.
         25    2    1    2    0    0 -0.27745875239E+02  0.29392136106E+01  0.21626179647E+03  0.25139872085E+03  0.12511466605E+03 0.  0.
         24    2    1    2    0    0  0.19663731269E+01  0.72729042343E+00  0.42794838452E+03  0.43509275502E+03  0.78495159606E+02 0.  0.
        -11    1    5    5    0    0 -0.31737866657E+02  0.21613404519E+02  0.23443976109E+03  0.23756353469E+03  0.00000000000E+00 0.  1.
         12    1    5    5    0    0  0.33704239784E+02 -0.20886114096E+02  0.19350862343E+03  0.19752922033E+03  0.00000000000E+00 0. -1.
         13    1    3    3    0    0 -0.17520995566E+02  0.22627383468E+02 -0.66695303046E+02  0.72575803245E+02  0.00000000000E+00 0. -1.
        -14    1    3    3    0    0  0.43300497679E+02 -0.26293887502E+02 -0.22125409580E+03  0.22697946279E+03  0.00000000000E+00 0.  1.
          5    1    4    4  501    0 -0.69328344672E+02  0.31353135844E+02  0.14799850918E+03  0.16646461973E+03  0.41800000000E+01 0. -1.
         -5    1    4    4    0  501  0.41582469433E+02 -0.28413922233E+02  0.68263287291E+02  0.84934101117E+02  0.41800000000E+01 0. -1.
</event>
<event>
11    1  0.8039394E-009  0.1753829E+03  0.7561462E-02  0.1073440E+00
         22   -1    0    0    0    0  0.00000000000E+00  0.00000000000E+00  0.36044182169E+03  0.36044182169E+03  0.00000000000E+00 0.  1.
         22   -1    0    0    0    0 -0.00000000000E+00 -0.00000000000E+00 -0.12960254591E+04  0.12960254591E+04  0.00000000000E+00 0. -1.
         24    2    1    2    0    0  0.42537234137E+01 -0.12006638831E+03 -0.11012519133E+04  0.11115257182E+04  0.91102215913E+02 0.  0.
         25    2    1    2    0    0  0.65825902850E+02  0.15798495962E+03 -0.11554537152E+03  0.24143312578E+03  0.12508766682E+03 0.  0.
        -24    2    1    2    0    0 -0.70079626264E+02 -0.37918571305E+02  0.28121364747E+03  0.30350843683E+03  0.81775813279E+02 0.  0.
        -13    1    3    3    0    0  0.27084628993E+02 -0.80428522887E+02 -0.40623094802E+03  0.41500109343E+03  0.00000000000E+00 0.  1.
         14    1    3    3    0    0 -0.22830905580E+02 -0.39637865428E+02 -0.69502096532E+03  0.69652462474E+03  0.00000000000E+00 0. -1.
         13    1    5    5    0    0  0.17139323105E+02  0.14870604324E+01  0.61359459186E+02  0.63725591224E+02  0.00000000000E+00 0. -1.
        -14    1    5    5    0    0 -0.87218949369E+02 -0.39405631738E+02  0.21985418829E+03  0.23978284561E+03  0.00000000000E+00 0.  1.
          5    1    4    4  501    0  0.18256203306E+02 -0.14633905164E+02  0.65731641234E+01  0.24660069467E+02  0.41800000000E+01 0.  1.
         -5    1    4    4    0  501  0.47569699544E+02  0.17261886478E+03 -0.12211853565E+03  0.21677305631E+03  0.41800000000E+01 0.  1.
</event>
<event>
11    1  0.8039394E-009  0.1584895E+03  0.7561462E-02  0.1088507E+00
         22   -1    0    0    0    0  0.00000000000E+00  0.00000000000E+00  0.23460526257E+03  0.23460526257E+03  0.00000000000E+00 0. -1.
         22   -1    0    0    0    0 -0.00000000000E+00 -0.00000000000E+00 -0.59635376492E+03  0.59635376492E+03  0.00000000000E+00 0. -1.
         24    2    1    2    0    0  0.85734734312E+02  0.30684804826E+02 -0.28453630446E+03  0.31035683020E+03  0.84074083899E+02 0.  0.
         25    2    1    2    0    0 -0.10255547327E+03 -0.36315744667E+02 -0.26672941268E+03  0.31405189231E+03  0.12509017973E+03 0.  0.
        -24    2    1    2    0    0  0.16820738959E+02  0.56309398412E+01  0.18951721479E+03  0.20655030498E+03  0.80197313191E+02 0.  0.
        -11    1    3    3    0    0  0.40662210140E+02 -0.28404700301E+02 -0.11655489134E+03  0.12666998472E+03  0.00000000000E+00 0.  1.
         12    1    3    3    0    0  0.45072524171E+02  0.59089505127E+02 -0.16798141312E+03  0.18368684549E+03  0.00000000000E+00 0. -1.
         13    1    5    5    0    0  0.21503310530E+02  0.50186107714E+01  0.19671018645E+03  0.19794563969E+03  0.00000000000E+00 0. -1.
        -14    1    5    5    0    0 -0.46825715711E+01  0.61232906976E+00 -0.71929716632E+01  0.86046652902E+01  0.00000000000E+00 0.  1.
          5    1    4    4  501    0 -0.23110654402E+02 -0.38337096871E+02 -0.21380243150E+03  0.21847834552E+03  0.41800000000E+01 0.  1.
         -5    1    4    4    0  501 -0.79444818869E+02  0.20213522038E+01 -0.52926981182E+02  0.95573546794E+02  0.41800000000E+01 0.  1.
</event>
<event>
11    1  0.8039394E-009  0.1649368E+03  0.7561462E-02  0.1082524E+00
         22   -1    0    0    0    0  0.00000000000E+00  0.00000000000E+00  0.10692657363E+04  0.10692657363E+04  0.00000000000E+00 0.  1.
         22   -1    0    0    0    0 -0.00000000000E+00 -0.00000000000E+00 -0.99114752735E+02  0.99114752735E+02  0.00000000000E+00 0.  1.
         24    2    1    2    0    0  0.79159039305E+02  0.10082998880E+02 -0.10361037032E+02  0.11838329445E+03  0.86829908130E+02 0.  0.
         25    2    1    2    0    0 -0.15211296114E+03 -0.72125564136E+02  0.35337895940E+03  0.41092974789E+03  0.12508444672E+03 0.  0.
        -24    2    1    2    0    0  0.72953921832E+02  0.62042565256E+02  0.62713306116E+03  0.63906744666E+03  0.77069905653E+02 0.  0.
        -13    1    3    3    0    0  0.56104144915E+02  0.47591679746E+02 -0.10763509292E+02  0.74353857936E+02  0.00000000000E+00 0.  1.
         14    1    3    3    0    0  0.23054894389E+02 -0.37508680866E+02  0.40247226083E+00  0.44029436511E+02  0.00000000000E+00 0. -1.
         13    1    5    5    0    0 -0.11184339689E+02 -0.12340669239E+01  0.15175972514E+03  0.15217630088E+03  0.00000000000E+00 0. -1.
        -14    1    5    5    0    0  0.84138261521E+02  0.63276632180E+02  0.47537333602E+03  0.48689114578E+03  0.00000000000E+00 0.  1.
          5    1    4    4  501    0 -0.93686760369E+02 -0.75056191019E+02  0.32355846855E+03  0.34513504002E+03  0.41800000000E+01 0. -1.
         -5    1    4    4    0  501 -0.58426200768E+02  0.29306268823E+01  0.29820490848E+02  0.65794707876E+02  0.41800000000E+01 0. -1.
</event>
<event>
11    1  0.8039394E-009  0.1423295E+03  0.7561462E-02  0.1104985E+00
         22   -1    0    0    0    0  0.00000000000E+00  0.00000000000E+00  0.19936706370E+03  0.19936706370E+03  0.00000000000E+00 0. -1.
         22   -1    0    0    0    0 -0.00000000000E+00 -0.00000000000E+00 -0.11167098235E+04  0.11167098235E+04  0.00000000000E+00 0.  1.
         24    2    1    2    0    0 -0.31629512631E+02  0.53215300662E+02 -0.74181202037E+03  0.74877743964E+03  0.80933838776E+02 0.  0.
         25    2    1    2    0    0  0.76365429143E+02 -0.68737302558E+02 -0.34115915151E+03  0.37761729561E+03  0.12509500293E+03 0.  0.
        -24    2    1    2    0    0 -0.44735916512E+02  0.15522001897E+02  0.16562841208E+03  0.18968215194E+03  0.79399704712E+02 0.  0.
        -13    1    3    3    0    0 -0.54297796630E+02  0.35788342823E+02 -0.63076231046E+03  0.63410578652E+03  0.00000000000E+00 0.  1.
         14    1    3    3    0    0  0.22668283999E+02  0.17426957838E+02 -0.11104970991E+03  0.11467165313E+03  0.00000000000E+00 0. -1.
         11    1    5    5    0    0 -0.28880459560E+02  0.11256182012E+02  0.16990969192E+03  0.17271388475E+03  0.00000000000E+00 0. -1.
        -12    1    5    5    0    0 -0.15855456952E+02  0.42658198845E+01 -0.42812798385E+01  0.16968267192E+02  0.00000000000E+00 0.  1.
          5    1    4    4  501    0  0.99905620016E+02 -0.13690655430E+02 -0.23309627117E+03  0.25400769868E+03  0.41800000000E+01 0.  1.
         -5    1    4    4    0  501 -0.23540190873E+02 -0.55046647129E+02 -0.10806288034E+03  0.12360959693E+03  0.41800000000E+01 0.  1.
</event>
<event>
11    1  0.8039394E-009  0.1364248E+03  0.7561462E-02  0.1111618E+00
         22   -1    0    0    0    0  0.00000000000E+00  0.00000000000E+00  0.44562058445E+02  0.44562058445E+02  0.00000000000E+00 0. -1.
         22   -1    0    0    0    0 -0.00000000000E+00 -0.00000000000E+00 -0.21937605657E+04  0.21937605657E+04  0.00000000000E+00 0.  1.
        -24    2    1    2    0    0  0.57201437710E+02 -0.17689563033E+01 -0.16000649918E+04  0.16030373234E+04  0.79028783297E+02 0.  0.
         25    2    1    2    0    0 -0.33425341762E+02  0.46293457078E+02 -0.51341002743E+03  0.53150504599E+03  0.12508964790E+03 0.  0.
         24    2    1    2    0    0 -0.23776095948E+02 -0.44524500775E+02 -0.35723487991E+02  0.10378025470E+03  0.83345304393E+02 0.  0.
        -11    1    5    5    0    0 -0.12605827113E+02 -0.41708325868E+02 -0.61601762509E+02  0.75453750524E+02  0.00000000000E+00 0.  1.
         12    1    5    5    0    0 -0.11170268835E+02 -0.28161749062E+01  0.25878274519E+02  0.28326504179E+02  0.00000000000E+00 0. -1.
         13    1    3    3    0    0 -0.20598743049E+01  0.19953271547E+02 -0.12304403255E+03  0.12466840047E+03  0.00000000000E+00 0. -1.
        -14    1    3    3    0    0  0.59261312014E+02 -0.21722227850E+02 -0.14770209593E+04  0.14783689230E+04  0.00000000000E+00 0.  1.
          5    1    4    4  501    0 -0.58335349872E+02  0.26546481631E+02 -0.11430114468E+03  0.13111046033E+03  0.41800000000E+01 0. -1.
         -5    1    4    4    0  501  0.24910008110E+02  0.19746975446E+02 -0.39910888274E+03  0.40039458566E+03  0.41800000000E+01 0. -1.
</event>
<event>
11    1  0.8039394E-009  0.3073947E+03  0.7561462E-02  0.9971093E-01
         22   -1    0    0    0    0  0.00000000000E+00  0.00000000000E+00  0.61919642787E+03  0.61919642787E+03  0.00000000000E+00 0. -1.
         22   -1    0    0    0    0 -0.00000000000E+00 -0.00000000000E+00 -0.65124943139E+03  0.65124943139E+03  0.00000000000E+00 0.  1.
        -24    2    1    2    0    0 -0.29575968243E+03  0.44345338151E+02 -0.50184887154E+03  0.58975600569E+03  0.80743777570E+02 0.  0.
         25    2    1    2    0    0  0.18974874933E+03 -0.11367866507E+03  0.86481808488E+02  0.26842733470E+03  0.12508678607E+03 0.  0.
         24    2    1    2    0    0  0.10601093309E+03  0.69333326924E+02  0.38331405954E+03  0.41226251886E+03  0.83578035779E+02 0.  0.
        -11    1    5    5    0    0  0.25575923512E+02  0.43366319758E+02  0.61220841190E+02  0.79263843894E+02  0.00000000000E+00 0.  1.
         12    1    5    5    0    0  0.80435009580E+02  0.25967007166E+02  0.32209321835E+03  0.33299867497E+03  0.00000000000E+00 0. -1.
         13    1    3    3    0    0 -0.19370572498E+03 -0.87149626574E+01 -0.29354860060E+03  0.35180767385E+03  0.00000000000E+00 0. -1.
        -14    1    3    3    0    0 -0.10205395744E+03  0.53060300808E+02 -0.20830027095E+03  0.23794833185E+03  0.00000000000E+00 0.  1.
          5    1    4    4  501    0  0.10314329834E+03 -0.44418116802E+02 -0.20558319751E+02  0.11424371319E+03  0.41800000000E+01 0.  1.
         -5    1    4    4    0  501  0.86605450994E+02 -0.69260548273E+02  0.10704012824E+03  0.15418362151E+03  0.41800000000E+01 0.  1.
</event>
<event>
11    1  0.8039394E-009  0.2207601E+03  0.7561462E-02  0.1040742E+00
         22   -1    0    0    0    0  0.00000000000E+00  0.00000000000E+00  0.35984007388E+03  0.35984007388E+03  0.00000000000E+00 0.  1.
         22   -1    0    0    0    0 -0.00000000000E+00 -0.00000000000E+00 -0.25616380995E+04  0.25616380995E+04  0.00000000000E+00 0. -1.
        -24    2    1    2    0    0  0.43442146363E+02  0.40952493716E+02 -0.23867825593E+04  0.23888275423E+04  0.78750967407E+02 0.  0.
         25    2    1    2    0    0 -0.15364918552E+03 -0.16934256072E+03 -0.12407195401E+02  0.26093354470E+03  0.12508957258E+03 0.  0.
         24    2    1    2    0    0  0.11020703916E+03  0.12839006701E+03  0.19739172906E+03  0.27171708635E+03  0.78975182985E+02 0.  0.
        -13    1    5    5    0    0  0.69241789089E+02  0.11411569394E+03  0.10563462812E+03  0.17022188936E+03  0.00000000000E+00 0.  1.
         14    1    5    5    0    0  0.40965250066E+02  0.14274373074E+02  0.91757100941E+02  0.10149519699E+03  0.00000000000E+00 0. -1.
         11    1    3    3    0    0  0.40086969755E+02  0.28552558435E+02 -0.23334785156E+04  0.23339974714E+04  0.00000000000E+00 0. -1.
        -12    1    3    3    0    0  0.33551766077E+01  0.12399935281E+02 -0.53304043699E+02  0.54830070943E+02  0.00000000000E+00 0.  1.
          5    1    4    4  501    0 -0.14226963737E+03 -0.68065941100E+02  0.28758628665E+01  0.15779532643E+03  0.41800000000E+01 0.  1.
         -5    1    4    4    0  501 -0.11379548151E+02 -0.10127661962E+03 -0.15283058268E+02  0.10313821827E+03  0.41800000000E+01 0.  1.
</event>
<event>
11    1  0.8039394E-009  0.2394255E+03  0.7561462E-02  0.1029688E+00
         22   -1    0    0    0    0  0.00000000000E+00  0.00000000000E+00  0.21088696387E+04  0.21088696387E+04  0.00000000000E+00 0. -1.
         22   -1    0    0    0    0 -0.00000000000E+00 -0.00000000000E+00 -0.58370626124E+03  0.58370626124E+03  0.00000000000E+00 0.  1.
        -24    2    1    2    0    0  0.14910884807E+03  0.13796801038E+03 -0.45927590842E+03  0.50865823796E+03  0.80809792256E+02 0.  0.
         25    2    1    2    0    0 -0.10755122701E+03 -0.19191328904E+03  0.64638685271E+02  0.26119677160E+03  0.12509043497E+03 0.  0.
         24    2    1    2    0    0 -0.41557621067E+02  0.53945278654E+02  0.19198006006E+04  0.19227208903E+04  0.81142758027E+02 0.  0.
        -13    1    5    5    0    0  0.89458381027E+01  0.13508680532E+02  0.72528354520E+02  0.74316045901E+02  0.00000000000E+00 0.  1.
         14    1    5    5    0    0 -0.50503459170E+02  0.40436598122E+02  0.18472722461E+04  0.18484048444E+04  0.00000000000E+00 0. -1.
         13    1    3    3    0    0  0.18585043845E+02 -0.10174853187E+02 -0.44077344009E+02  0.48905457231E+02  0.00000000000E+00 0. -1.
        -14    1    3    3    0    0  0.13052380423E+03  0.14814286357E+03 -0.41519856442E+03  0.45975278073E+03  0.00000000000E+00 0.  1.
          5    1    4    4  501    0 -0.10786005496E+02 -0.66794218010E+02  0.76878974777E+02  0.10249709575E+03  0.41800000000E+01 0.  1.
         -5    1    4    4    0  501 -0.96765221509E+02 -0.12511907103E+03 -0.12240289506E+02  0.15869967585E+03  0.41800000000E+01 0.  1.
</event>
<event>
11    1  0.8039394E-009  0.2056203E+03  0.7561462E-02  0.1050619E+00
         22   -1    0    0    0    0  0.00000000000E+00  0.00000000000E+00  0.18309066699E+03  0.18309066699E+03  0.00000000000E+00 0. -1.
         22   -1    0    0    0    0 -0.00000000000E+00 -0.00000000000E+00 -0.73293430921E+03  0.73293430921E+03  0.00000000000E+00 0. -1.
        -24    2    1    2    0    0 -0.26121127100E+02  0.10784460346E+03 -0.39621521508E+03  0.41936510776E+03  0.81042119729E+02 0.  0.
         25    2    1    2    0    0 -0.14055535479E+03 -0.59496900941E+02 -0.21871510904E+03  0.29458090217E+03  0.12508365208E+03 0.  0.
         24    2    1    2    0    0  0.16667648189E+03 -0.48347702518E+02  0.65086681897E+02  0.20207896628E+03  0.80505170621E+02 0.  0.
        -13    1    5    5    0    0  0.17843103458E+02  0.15015436714E+02  0.27412032408E+02  0.35989709661E+02  0.00000000000E+00 0.  1.
         14    1    5    5    0    0  0.14883337843E+03 -0.63363139231E+02  0.37674649489E+02  0.16608925662E+03  0.00000000000E+00 0. -1.
         11    1    3    3    0    0 -0.31042573419E+01  0.11362834099E+03 -0.32890933319E+03  0.34799768067E+03  0.00000000000E+00 0. -1.
        -12    1    3    3    0    0 -0.23016869758E+02 -0.57837375273E+01 -0.67305881883E+02  0.71367427089E+02  0.00000000000E+00 0.  1.
          5    1    4    4  501    0 -0.15462210076E+03 -0.58214723055E+02 -0.14642321837E+03  0.22080348571E+03  0.41800000000E+01 0. -1.
         -5    1    4    4    0  501  0.14066745971E+02 -0.12821778859E+01 -0.72291890667E+02  0.73777416453E+02  0.41800000000E+01 0. -1.
</event>
<event>
11    1  0.8039394E-009  0.1509831E+03  0.7561462E-02  0.1095878E+00
         22   -1    0    0    0    0  0.00000000000E+00  0.00000000000E+00  0.74691317251E+03  0.74691317251E+03  0.00000000000E+00 0.  1.
         22   -1    0    0    0    0 -0.00000000000E+00 -0.00000000000E+00 -0.46888635558E+03  0.46888635558E+03  0.00000000000E+00 0. -1.
        -24    2    1    2    0    0  0.38716339123E+02 -0.36754109735E+01 -0.20615814765E+03  0.22406947934E+03  0.78698705003E+02 0.  0.
         25    2    1    2    0    0 -0.19253173872E+02  0.86076729309E+02 -0.22539655812E+03  0.27244683736E+03  0.12507510841E+03 0.  0.
         24    2    1    2    0    0 -0.19463165250E+02 -0.82401318335E+02  0.70958152269E+03  0.71928321140E+03  0.81814477851E+02 0.  0.
        -13    1    5    5    0    0 -0.16917043643E+02 -0.93492322896E+02  0.47407475379E+03  0.48350167837E+03  0.00000000000E+00 0.  1.
         14    1    5    5    0    0 -0.25461216071E+01  0.11091004561E+02  0.23550676890E+03  0.23578153302E+03  0.00000000000E+00 0. -1.
         13    1    3    3    0    0  0.29919428254E+01  0.18221830413E+02 -0.16254118087E+03  0.16358674245E+03  0.00000000000E+00 0. -1.
        -14    1    3    3    0    0  0.35724396297E+02 -0.21897241386E+02 -0.43616966773E+02  0.60482736889E+02  0.00000000000E+00 0.  1.
          5    1    4    4  501    0  0.18937956346E+02  0.10472268719E+03 -0.18606042469E+03  0.21438619695E+03  0.41800000000E+01 0. -1.
         -5    1    4    4    0  501 -0.38191130218E+02 -0.18645957884E+02 -0.39336133421E+02  0.58060640414E+02  0.41800000000E+01 0. -1.
</event>
<event>
11    1  0.8039394E-009  0.1766279E+03  0.7561462E-02  0.1072404E+00
         22   -1    0    0    0    0  0.00000000000E+00  0.00000000000E+00  0.87245308650E+03  0.87245308650E+03  0.00000000000E+00 0. -1.
         22   -1    0    0    0    0 -0.00000000000E+00 -0.00000000000E+00 -0.40693963012E+03  0.40693963012E+03  0.00000000000E+00 0. -1.
         24    2    1    2    0    0  0.86684504606E+02  0.88918716305E+02 -0.33274177145E+03  0.36490974598E+03  0.83793166748E+02 0.  0.
         25    2    1    2    0    0 -0.91128169883E+02 -0.91802143293E+02  0.88976609005E+02  0.20074102138E+03  0.12509254117E+03 0.  0.
        -24    2    1    2    0    0  0.44436652772E+01  0.28834269873E+01  0.70927861883E+03  0.71374194926E+03  0.79519498863E+02 0.  0.
        -13    1    3    3    0    0  0.94590844702E+02  0.49338560919E+02 -0.20741476498E+03  0.23324366278E+03  0.00000000000E+00 0.  1.
         14    1    3    3    0    0 -0.79063400959E+01  0.39580155386E+02 -0.12532700647E+03  0.13166608320E+03  0.00000000000E+00 0. -1.
         11    1    5    5    0    0  0.28957155154E+02 -0.11320341816E+02  0.60146412931E+03  0.60226718807E+03  0.00000000000E+00 0. -1.
        -12    1    5    5    0    0 -0.24513489876E+02  0.14203768803E+02  0.10781448952E+03  0.11147476120E+03  0.00000000000E+00 0.  1.
          5    1    4    4  501    0 -0.44266481907E+02 -0.48524572649E+02 -0.24721125655E+02  0.70304779531E+02  0.41800000000E+01 0. -1.
         -5    1    4    4    0  501 -0.46861687976E+02 -0.43277570643E+02  0.11369773466E+03  0.13043624185E+03  0.41800000000E+01 0. -1.
</event>
<event>
11    1  0.8039394E-009  0.1566696E+03  0.7561462E-02  0.1090252E+00
         22   -1    0    0    0    0  0.00000000000E+00  0.00000000000E+00  0.23539652092E+04  0.23539652092E+04  0.00000000000E+00 0. -1.
         22   -1    0    0    0    0 -0.00000000000E+00 -0.00000000000E+00 -0.16610071870E+03  0.16610071870E+03  0.00000000000E+00 0. -1.
         24    2    1    2    0    0  0.29335453137E+02  0.71842605088E+02 -0.13554709359E+03  0.17564887242E+03  0.80359088385E+02 0.  0.
         25    2    1    2    0    0 -0.97020672990E+02  0.25525886011E+01  0.76604871120E+03  0.78224205716E+03  0.12510987714E+03 0.  0.
        -24    2    1    2    0    0  0.67685219853E+02 -0.74395193689E+02  0.15573628729E+04  0.15621749983E+04  0.69969090675E+02 0.  0.
        -13    1    3    3    0    0 -0.20444160143E+01  0.44742763910E+02 -0.13543279310E+02  0.46792253350E+02  0.00000000000E+00 0.  1.
         14    1    3    3    0    0  0.31379869152E+02  0.27099841179E+02 -0.12200381428E+03  0.12885661907E+03  0.00000000000E+00 0. -1.
         13    1    5    5    0    0  0.36726295970E+02 -0.41001365503E+02  0.12729686213E+04  0.12741581705E+04  0.00000000000E+00 0. -1.
        -14    1    5    5    0    0  0.30958923883E+02 -0.33393828186E+02  0.28439425165E+03  0.28801682781E+03  0.00000000000E+00 0.  1.
          5    1    4    4  501    0 -0.91017313080E+02 -0.42239858666E+02  0.64860113066E+03  0.65633014256E+03  0.41800000000E+01 0. -1.
         -5    1    4    4    0  501 -0.60033599104E+01  0.44792447268E+02  0.11744758054E+03  0.12591191460E+03  0.41800000000E+01 0. -1.
</event>
<event>
11    1  0.8039394E-009  0.1473661E+03  0.7561462E-02  0.1099601E+00
         22   -1    0    0    0    0  0.00000000000E+00  0.00000000000E+00  0.15121775086E+04  0.15121775086E+04  0.00000000000E+00 0. -1.
         22   -1    0    0    0    0 -0.00000000000E+00 -0.00000000000E+00 -0.21044464749E+03  0.21044464749E+03  0.00000000000E+00 0. -1.
         24    2    1    2    0    0 -0.45754337969E+02 -0.35904089943E+02 -0.14021526257E+03  0.17340678459E+03  0.83827381973E+02 0.  0.
         25    2    1    2    0    0 -0.30234029558E+02  0.98417097907E+01  0.29971164843E+02  0.13249851737E+03  0.12508649243E+03 0.  0.
        -24    2    1    2    0    0  0.75988367528E+02  0.26062380152E+02  0.14119769588E+04  0.14167168541E+04  0.83392042852E+02 0.  0.
        -11    1    3    3    0    0 -0.66239039498E+01 -0.77823511846E+00 -0.11481749582E+03  0.11501103903E+03  0.00000000000E+00 0.  1.
         12    1    3    3    0    0 -0.39130434020E+02 -0.35125854824E+02 -0.25397766750E+02  0.58395745561E+02  0.00000000000E+00 0. -1.
         11    1    5    5    0    0  0.52922276039E+02 -0.69240123610E+01  0.11848030459E+04  0.11860046234E+04  0.00000000000E+00 0. -1.
        -12    1    5    5    0    0  0.23066091488E+02  0.32986392513E+02  0.22717391296E+03  0.23071223070E+03  0.00000000000E+00 0.  1.
          5    1    4    4  501    0 -0.50462185058E+02 -0.37500516596E+01 -0.35870953407E+02  0.62166652689E+02  0.41800000000E+01 0. -1.
         -5    1    4    4    0  501  0.20228155500E+02  0.13591761450E+02  0.65842118249E+02  0.70331864683E+02  0.41800000000E+01 0. -1.
</event>
<event>
11    1  0.8039394E-009  0.1494465E+03  0.7561462E-02  0.1097446E+00
         22   -1    0    0    0    0  0.00000000000E+00  0.00000000000E+00  0.15247346424E+04  0.15247346424E+04  0.00000000000E+00 0.  1.
         22   -1    0    0    0    0 -0.00000000000E+00 -0.00000000000E+00 -0.35997851895E+03  0.35997851895E+03  0.00000000000E+00 0. -1.
         24    2    1    2    0    0  0.43059750658E+02 -0.48768968242E+02 -0.29733697835E+03  0.31512534407E+03  0.81621990862E+02 0.  0.
         25    2    1    2    0    0 -0.83644899500E+02 -0.23214095152E+02  0.61121724378E+02  0.16406820544E+03  0.12508855830E+03 0.  0.
        -24    2    1    2    0    0  0.40585148842E+02  0.71983063395E+02  0.14009713774E+04  0.14055196118E+04  0.77044553401E+02 0.  0.
        -13    1    3    3    0    0  0.24739611765E+02  0.20390180609E+02 -0.75119014650E+02  0.81674195542E+02  0.00000000000E+00 0.  1.
         14    1    3    3    0    0  0.18320138893E+02 -0.69159148851E+02 -0.22221796370E+03  0.23345114853E+03  0.00000000000E+00 0. -1.
         11    1    5    5    0    0  0.38456223353E+02  0.87580891974E+01  0.27994636980E+03  0.28271108080E+03  0.00000000000E+00 0. -1.
        -12    1    5    5    0    0  0.21289254895E+01  0.63224974197E+02  0.11210250076E+04  0.11228085310E+04  0.00000000000E+00 0.  1.
          5    1    4    4  501    0  0.10244418618E+02  0.38201077351E+02  0.19881166477E+02  0.44463508679E+02  0.41800000000E+01 0. -1.
         -5    1    4    4    0  501 -0.93889318118E+02 -0.61415172503E+02  0.41240557902E+02  0.11960469676E+03  0.41800000000E+01 0. -1.
</event>
<event>
11    1  0.8039394E-009  0.1617072E+03  0.7561462E-02  0.1085483E+00
         22   -1    0    0    0    0  0.00000000000E+00  0.00000000000E+00  0.29827924448E+03  0.29827924448E+03  0.00000000000E+00 0. -1.
         22   -1    0    0    0    0 -0.00000000000E+00 -0.00000000000E+00 -0.76233584547E+03  0.76233584547E+03  0.00000000000E+00 0.  1.
        -24    2    1    2    0    0 -0.10266095218E+03  0.17066320058E+00 -0.69973847633E+03  0.71165513434E+03  0.79245156012E+02 0.  0.
         25    2    1    2    0    0  0.96684458613E+02 -0.42252450901E+02  0.14352637675E+03  0.21766898082E+03  0.12508721055E+03 0.  0.
         24    2    1    2    0    0  0.59764935693E+01  0.42081787700E+02  0.92155498596E+02  0.13129097479E+03  0.83295190793E+02 0.  0.
        -11    1    5    5    0    0 -0.32362869385E+02  0.14947794886E+02  0.10623834775E+02  0.37197550351E+02  0.00000000000E+00 0.  1.
         12    1    5    5    0    0  0.38339362954E+02  0.27133992814E+02  0.81531663821E+02  0.94093424442E+02  0.00000000000E+00 0. -1.
         13    1    3    3    0    0 -0.75422810490E+02  0.20859612896E+02 -0.28623145843E+03  0.29673586165E+03  0.00000000000E+00 0. -1.
        -14    1    3    3    0    0 -0.27238141693E+02 -0.20688949696E+02 -0.41350701789E+03  0.41491927269E+03  0.00000000000E+00 0.  1.
          5    1    4    4  501    0  0.50187237057E+02 -0.76502410619E+02  0.41931279232E+02  0.10073272642E+03  0.41800000000E+01 0.  1.
         -5    1    4    4    0  501  0.46497221556E+02  0.34249959718E+02  0.10159509751E+03  0.11693625440E+03  0.41800000000E+01 0.  1.
</event>
<event>
11    1  0.8039394E-009  0.2317265E+03  0.7561462E-02  0.1034111E+00
         22   -1    0    0    0    0  0.00000000000E+00  0.00000000000E+00  0.11433856073E+04  0.11433856073E+04  0.00000000000E+00 0. -1.
         22   -1    0    0    0    0 -0.00000000000E+00 -0.00000000000E+00 -0.23287131797E+03  0.23287131797E+03  0.00000000000E+00 0.  1.
         24    2    1    2    0    0 -0.15313923855E+03 -0.91413183130E+02 -0.57089263292E+02  0.20655104005E+03  0.87155904722E+02 0.  0.
         25    2    1    2    0    0  0.17327177108E+03  0.16887342138E+03  0.92799459057E+02  0.28775069426E+03  0.12508950133E+03 0.  0.
        -24    2    1    2    0    0 -0.20132532526E+02 -0.77460238253E+02  0.87480409352E+03  0.88195519091E+03  0.78468779461E+02 0.  0.
        -11    1    3    3    0    0 -0.13598677668E+03 -0.52989124665E+02 -0.14473739637E+02  0.14666199202E+03  0.00000000000E+00 0.  1.
         12    1    3    3    0    0 -0.17152461871E+02 -0.38424058466E+02 -0.42615523655E+02  0.59889048027E+02  0.00000000000E+00 0. -1.
         13    1    5    5    0    0 -0.40475289209E+02 -0.64338530283E+02  0.44305651639E+03  0.44952950096E+03  0.00000000000E+00 0. -1.
        -14    1    5    5    0    0  0.20342756683E+02 -0.13121707970E+02  0.43174757713E+03  0.43242568995E+03  0.00000000000E+00 0.  1.
          5    1    4    4  501    0  0.13146825911E+03  0.57978100115E+02  0.89072163436E+02  0.16910554676E+03  0.41800000000E+01 0.  1.
         -5    1    4    4    0  501  0.41803511968E+02  0.11089532127E+03  0.37272956209E+01  0.11864514750E+03  0.41800000000E+01 0.  1.
</event>
<event>
11    1  0.8039394E-009  0.8679237E+03  0.7561462E-02  0.8815904E-01
         22   -1    0    0    0    0  0.00000000000E+00  0.00000000000E+00  0.58459665834E+03  0.58459665834E+03  0.00000000000E+00 0.  1.
         22   -1    0    0    0    0 -0.00000000000E+00 -0.00000000000E+00 -0.17730073258E+04  0.17730073258E+04  0.00000000000E+00 0.  1.
        -24    2    1    2    0    0  0.88367215729E+03 -0.17986623222E+03 -0.81208372022E+03  0.12160039518E+04  0.77183541230E+02 0.  0.
         25    2    1    2    0    0 -0.77847732226E+03  0.32058190341E+03 -0.18643260702E+03  0.87132463810E+03  0.12509920035E+03 0.  0.
         24    2    1    2    0    0 -0.10519483503E+03 -0.14071567119E+03 -0.18989434019E+03  0.27027539424E+03  0.78243688954E+02 0.  0.
        -13    1    5    5    0    0 -0.82199032031E+02 -0.12151585456E+03 -0.10544339240E+03  0.18066846094E+03  0.00000000000E+00 0.  1.
         14    1    5    5    0    0 -0.22995802994E+02 -0.19199816631E+02 -0.84450947784E+02  0.89606933301E+02  0.00000000000E+00 0. -1.
         13    1    3    3    0    0  0.43907436343E+03 -0.12321411557E+03 -0.38304417679E+03  0.59555928023E+03  0.00000000000E+00 0. -1.
        -14    1    3    3    0    0  0.44459779386E+03 -0.56652116647E+02 -0.42903954343E+03  0.62044467155E+03  0.00000000000E+00 0.  1.
          5    1    4    4  501    0 -0.62788415404E+03  0.23187592046E+03 -0.19223028916E+03  0.69640139995E+03  0.41800000000E+01 0.  1.
         -5    1    4    4    0  501 -0.15059316822E+03  0.88705982950E+02  0.57976821355E+01  0.17492323815E+03  0.41800000000E+01 0.  1.
</event>
<event>
11    1  0.8039394E-009  0.1431544E+03  0.7561462E-02  0.1104086E+00
         22   -1    0    0    0    0  0.00000000000E+00  0.00000000000E+00  0.71728563514E+03  0.71728563514E+03  0.00000000000E+00 0. -1.
         22   -1    0    0    0    0 -0.00000000000E+00 -0.00000000000E+00 -0.11316047582E+04  0.11316047582E+04  0.00000000000E+00 0.  1.
        -24    2    1    2    0    0 -0.88121199889E+01 -0.69036680164E+02 -0.10918175188E+04  0.10970184440E+04  0.80871845969E+02 0.  0.
         25    2    1    2    0    0 -0.25163865342E+02  0.74063400459E+02  0.12475143381E+03  0.19320752484E+03  0.12509044732E+03 0.  0.
         24    2    1    2    0    0  0.33975985331E+02 -0.50267202947E+01  0.55274696191E+03  0.55866442452E+03  0.73464956429E+02 0.  0.
        -13    1    5    5    0    0  0.29602318933E+02  0.28800323909E+02  0.19680405562E+03  0.20109100490E+03  0.00000000000E+00 0.  1.
         14    1    5    5    0    0  0.43736663978E+01 -0.33827044204E+02  0.35594290629E+03  0.35757341962E+03  0.00000000000E+00 0. -1.
         11    1    3    3    0    0 -0.79000770540E+01 -0.37114141365E+02 -0.15221773239E+03  0.15687609365E+03  0.00000000000E+00 0. -1.
        -12    1    3    3    0    0 -0.91204293486E+00 -0.31922538800E+02 -0.93959978643E+03  0.94014235038E+03  0.00000000000E+00 0.  1.
          5    1    4    4  501    0  0.51989492885E+01 -0.34055084553E+02  0.36065283791E+02  0.50049524999E+02  0.41800000000E+01 0. -1.
         -5    1    4    4    0  501 -0.30362814630E+02  0.10811848501E+03  0.88686150015E+02  0.14315799984E+03  0.41800000000E+01 0. -1.
</event>
<event>
11    1  0.8039394E-009  0.1777519E+03  0.7561462E-02  0.1071476E+00
         22   -1    0    0    0    0  0.00000000000E+00  0.00000000000E+00  0.12416388010E+03  0.12416388010E+03  0.00000000000E+00 0.  1.
         22   -1    0    0    0    0 -0.00000000000E+00 -0.00000000000E+00 -0.24653511023E+04  0.24653511023E+04  0.00000000000E+00 0.  1.
        -24    2    1    2    0    0  0.83548338359E+02  0.86302588162E+02 -0.14681326103E+04  0.14752683537E+04  0.81085710630E+02 0.  0.
         25    2    1    2    0    0 -0.61972315964E+02 -0.13547066353E+03 -0.96438203419E+03  0.98380549727E+03  0.12509068696E+03 0.  0.
         24    2    1    2    0    0 -0.21576022394E+02  0.49168075370E+02  0.91327422291E+02  0.13044113142E+03  0.76099713053E+02 0.  0.
        -13    1    5    5    0    0  0.12626878456E+02  0.56689961923E+02  0.55210023884E+02  0.80133242663E+02  0.00000000000E+00 0.  1.
         14    1    5    5    0    0 -0.34202900850E+02 -0.75218865528E+01  0.36117398407E+02  0.50307888761E+02  0.00000000000E+00 0. -1.
         11    1    3    3    0    0 -0.10287552729E+02 -0.70125710754E+01 -0.14554068624E+03  0.14607224666E+03  0.00000000000E+00 0. -1.
        -12    1    3    3    0    0  0.93835891088E+02  0.93315159237E+02 -0.13225919240E+04  0.13291961070E+04  0.00000000000E+00 0.  1.
          5    1    4    4  501    0 -0.45886620544E+02 -0.15748590054E+03 -0.75577670401E+03  0.77338430908E+03  0.41800000000E+01 0. -1.
         -5    1    4    4    0  501 -0.16085695420E+02  0.22015237006E+02 -0.20860533019E+03  0.21042118819E+03  0.41800000000E+01 0. -1.
</event>
<event>
11    1  0.8039394E-009  0.1404899E+03  0.7561462E-02  0.1107013E+00
         22   -1    0    0    0    0  0.00000000000E+00  0.00000000000E+00  0.72464493710E+03  0.72464493710E+03  0.00000000000E+00 0.  1.
         22   -1    0    0    0    0 -0.00000000000E+00 -0.00000000000E+00 -0.36580017536E+03  0.36580017536E+03  0.00000000000E+00 0.  1.
        -24    2    1    2    0    0 -0.61666150968E+02 -0.26624321853E+02 -0.22546145983E+03  0.24880932255E+03  0.81003953170E+02 0.  0.
         25    2    1    2    0    0  0.61004767388E+02 -0.12812323460E+02 -0.87116669375E+02  0.16468852925E+03  0.12508900954E+03 0.  0.
         24    2    1    2    0    0  0.66138357938E+00  0.39436645314E+02  0.67142289095E+03  0.67694726066E+03  0.76767237836E+02 0.  0.
        -13    1    5    5    0    0 -0.11873064395E+02  0.53906797540E+02  0.61272526109E+03  0.61520659786E+03  0.00000000000E+00 0.  1.
         14    1    5    5    0    0  0.12534447974E+02 -0.14470152226E+02  0.58697629861E+02  0.61740662798E+02  0.00000000000E+00 0. -1.
         13    1    3    3    0    0  0.21863811428E+01 -0.19351473773E+00  0.64537378247E+01  0.68167765378E+01  0.00000000000E+00 0. -1.
        -14    1    3    3    0    0 -0.63852532111E+02 -0.26430807116E+02 -0.23191519765E+03  0.24199254601E+03  0.00000000000E+00 0.  1.
          5    1    4    4  501    0  0.13571058783E+02 -0.60711812963E+02 -0.72427960828E+02  0.95568717578E+02  0.41800000000E+01 0. -1.
         -5    1    4    4    0  501  0.47433708606E+02  0.47899489503E+02 -0.14688708547E+02  0.69119811672E+02  0.41800000000E+01 0. -1.
</event>
<event>
11    1  0.8039394E-009  0.1552297E+03  0.7561462E-02  0.1091652E+00
         22   -1    0    0    0    0  0.00000000000E+00  0.00000000000E+00  0.10720173228E+04  0.10720173228E+04  0.00000000000E+00 0.  1.
         22   -1    0    0    0    0 -0.00000000000E+00 -0.00000000000E+00 -0.15788272909E+04  0.15788272909E+04  0.00000000000E+00 0.  1.
         24    2    1    2    0    0 -0.14063418567E+02 -0.90373108029E+02 -0.15347005110E+04  0.15394684341E+04  0.79324163148E+02 0.  0.
         25    2    1    2    0    0  0.16135022559E+02  0.13148716448E+03  0.17177546796E+03  0.25040637253E+03  0.12508927466E+03 0.  0.
        -24    2    1    2    0    0 -0.20716039917E+01 -0.41114056448E+02  0.85611507498E+03  0.86096980700E+03  0.81494354280E+02 0.  0.
        -11    1    3    3    0    0 -0.14005909384E+02 -0.10346779088E+03 -0.12074243703E+04  0.12119304268E+04  0.00000000000E+00 0.  1.
         12    1    3    3    0    0 -0.57509183630E-01  0.13094682846E+02 -0.32727614065E+03  0.32753800736E+03  0.00000000000E+00 0. -1.
         13    1    5    5    0    0 -0.40540999550E+02 -0.14263788344E+02  0.33455550068E+03  0.33730462691E+03  0.00000000000E+00 0. -1.
        -14    1    5    5    0    0  0.38469395558E+02 -0.26850268104E+02  0.52155957431E+03  0.52366518009E+03  0.00000000000E+00 0.  1.
          5    1    4    4  501    0 -0.12901143470E+02  0.10377797909E+02  0.11000941651E+03  0.11132691639E+03  0.41800000000E+01 0. -1.
         -5    1    4    4    0  501  0.29036166029E+02  0.12110936657E+03  0.61766051451E+02  0.13907945614E+03  0.41800000000E+01 0. -1.
</event>
<event>
11    1  0.8039394E-009  0.1963730E+03  0.7561462E-02  0.1057119E+00
         22   -1    0    0    0    0  0.00000000000E+00  0.00000000000E+00  0.52426587618E+03  0.52426587618E+03  0.00000000000E+00 0.  1.
         22   -1    0    0    0    0 -0.00000000000E+00 -0.00000000000E+00 -0.15724541926E+04  0.15724541926E+04  0.00000000000E+00 0. -1.
         24    2    1    2    0    0 -0.49909018592E+02  0.15530771738E+02 -0.14927895569E+04  0.14957338351E+04  0.77890495449E+02 0.  0.
         25    2    1    2    0    0 -0.88654321419E+02  0.74107470273E+02  0.70465176193E+02  0.18429238556E+03  0.12508731535E+03 0.  0.
        -24    2    1    2    0    0  0.13856334001E+03 -0.89638242011E+02  0.37413606433E+03  0.41669384807E+03  0.80132108147E+02 0.  0.
        -11    1    3    3    0    0 -0.17841800287E+01  0.34407740772E+02 -0.91126387138E+03  0.91191497367E+03  0.00000000000E+00 0.  1.
         12    1    3    3    0    0 -0.48124838563E+02 -0.18876969034E+02 -0.58152568556E+03  0.58381886147E+03  0.00000000000E+00 0. -1.
         11    1    5    5    0    0  0.44848114183E+02 -0.55760943940E+02  0.86371357576E+02  0.11216348615E+03  0.00000000000E+00 0. -1.
        -12    1    5    5    0    0  0.93715225829E+02 -0.33877298071E+02  0.28776470676E+03  0.30453036192E+03  0.00000000000E+00 0.  1.
          5    1    4    4  501    0 -0.10041900759E+03  0.33915763458E+02  0.46558276497E+01  0.10617629315E+03  0.41800000000E+01 0.  1.
         -5    1    4    4    0  501  0.11764686167E+02  0.40191706815E+02  0.65809348544E+02  0.78116092408E+02  0.41800000000E+01 0.  1.
</event>
<event>
11    1  0.8039394E-009  0.1355605E+03  0.7561462E-02  0.1112620E+00
         22   -1    0    0    0    0  0.00000000000E+00  0.00000000000E+00  0.18145369280E+04  0.18145369280E+04  0.00000000000E+00 0. -1.
         22   -1    0    0    0    0 -0.00000000000E+00 -0.00000000000E+00 -0.27493014980E+02  0.27493014980E+02  0.00000000000E+00 0.  1.
         24    2    1    2    0    0  0.17497334591E+02  0.56485802416E+02  0.17653495282E+03  0.20193922436E+03  0.78218016949E+02 0.  0.
         25    2    1    2    0    0 -0.15582923969E+02 -0.37658870670E+02  0.30730777479E+03  0.33428078347E+03  0.12507819830E+03 0.  0.
        -24    2    1    2    0    0 -0.19144106217E+01 -0.18826931746E+02  0.13032011854E+04  0.13058099352E+04  0.80300303658E+02 0.  0.
        -13    1    3    3    0    0  0.11814349620E+01  0.13552080706E+02 -0.51447591669E+01  0.14543838108E+02  0.00000000000E+00 0.  1.
         14    1    3    3    0    0  0.16315899629E+02  0.42933721710E+02  0.18167971199E+03  0.18739538625E+03  0.00000000000E+00 0. -1.
         13    1    5    5    0    0 -0.19120972059E+02  0.12143388726E+02  0.10386455325E+04  0.10388924947E+04  0.00000000000E+00 0. -1.
        -14    1    5    5    0    0  0.17206561438E+02 -0.30970320472E+02  0.26455565296E+03  0.26691744046E+03  0.00000000000E+00 0.  1.
          5    1    4    4  501    0  0.44613187464E+02 -0.52887323189E+02  0.16233728033E+03  0.17651705423E+03  0.41800000000E+01 0. -1.
         -5    1    4    4    0  501 -0.60196111434E+02  0.15228452519E+02  0.14497049447E+03  0.15776372924E+03  0.41800000000E+01 0. -1.
</event>
<event>
11    1  0.8039394E-009  0.2078947E+03  0.7561462E-02  0.1049077E+00
         22   -1    0    0    0    0  0.00000000000E+00  0.00000000000E+00  0.28794640164E+03  0.28794640164E+03  0.00000000000E+00 0. -1.
         22   -1    0    0    0    0 -0.00000000000E+00 -0.00000000000E+00 -0.31120085507E+03  0.31120085507E+03  0.00000000000E+00 0.  1.
         24    2    1    2    0    0  0.61465929624E+02  0.16598121055E+03 -0.16353140971E+03  0.25557829408E+03  0.85146460198E+02 0.  0.
         25    2    1    2    0    0 -0.65942356603E+02 -0.12615999952E+03  0.16167102471E+02  0.19019349132E+03  0.12508976404E+03 0.  0.
        -24    2    1    2    0    0  0.44764269788E+01 -0.39821211033E+02  0.12410985381E+03  0.15337547130E+03  0.80715625122E+02 0.  0.
        -13    1    3    3    0    0  0.73315573816E+02  0.16600910368E+03 -0.13989986632E+03  0.22914224505E+03  0.00000000000E+00 0.  1.
         14    1    3    3    0    0 -0.11849644192E+02 -0.27893133419E-01 -0.23631543390E+02  0.26436049033E+02  0.00000000000E+00 0. -1.
         13    1    5    5    0    0 -0.28185406598E+01 -0.36215601277E+02  0.13498823079E+03  0.13979033014E+03  0.00000000000E+00 0. -1.
        -14    1    5    5    0    0  0.72949676386E+01 -0.36056097559E+01 -0.10878376988E+02  0.13585141164E+02  0.00000000000E+00 0.  1.
          5    1    4    4  501    0 -0.93527682024E+02 -0.47661876043E+02 -0.13461872799E+01  0.10506363002E+03  0.41800000000E+01 0.  1.
         -5    1    4    4    0  501  0.27585325422E+02 -0.78498123474E+02  0.17513289751E+02  0.85129861303E+02  0.41800000000E+01 0.  1.
</event>
<event>
11    1  0.8039394E-009  0.2217799E+03  0.7561462E-02  0.1040108E+00
         22   -1    0    0    0    0  0.00000000000E+00  0.00000000000E+00  0.56173555259E+03  0.56173555259E+03  0.00000000000E+00 0.  1.
         22   -1    0    0    0    0 -0.00000000000E+00 -0.00000000000E+00 -0.44622315634E+03  0.44622315634E+03  0.00000000000E+00 0.  1.
         24    2    1    2    0    0 -0.19286964927E+01  0.65757781192E+02 -0.34494273817E+03  0.36060575984E+03  0.81995217886E+02 0.  0.
         25    2    1    2    0    0 -0.89467719233E+02 -0.20479059974E+03  0.18716113026E+03  0.31720759913E+03  0.12509080598E+03 0.  0.
        -24    2    1    2    0    0  0.91396415726E+02  0.13903281854E+03  0.27329400416E+03  0.33014534996E+03  0.81381262900E+02 0.  0.
        -11    1    3    3    0    0  0.21264877735E+02  0.65615800876E+02 -0.31638137833E+03  0.32381291651E+03  0.00000000000E+00 0.  1.
         12    1    3    3    0    0 -0.23193574228E+02  0.14198031601E+00 -0.28561359843E+02  0.36792843325E+02  0.00000000000E+00 0. -1.
         11    1    5    5    0    0  0.10559702920E+02 -0.72499859884E+01  0.47675298582E+02  0.49366017841E+02  0.00000000000E+00 0. -1.
        -12    1    5    5    0    0  0.80836712806E+02  0.14628280453E+03  0.22561870558E+03  0.28077933212E+03  0.00000000000E+00 0.  1.
          5    1    4    4  501    0 -0.55139616099E+02 -0.23605934705E+02  0.90642143558E+01  0.60805014585E+02  0.41800000000E+01 0. -1.
         -5    1    4    4    0  501 -0.34328103134E+02 -0.18118466503E+03  0.17809691590E+03  0.25640258454E+03  0.41800000000E+01 0. -1.
</event>
<event>
11    1  0.8039394E-009  0.1407539E+03  0.7561462E-02  0.1106720E+00
         22   -1    0    0    0    0  0.00000000000E+00  0.00000000000E+00  0.14792895979E+04  0.14792895979E+04  0.00000000000E+00 0. -1.
         22   -1    0    0    0    0 -0.00000000000E+00 -0.00000000000E+00 -0.71660422947E+02  0.71660422947E+02  0.00000000000E+00 0.  1.
         24    2    1    2    0    0  0.63692522368E+01  0.12380703332E+00 -0.26187933006E+02  0.85719970410E+02  0.81372739844E+02 0.  0.
         25    2    1    2    0    0  0.15864216192E+02  0.60835578297E+02  0.35654281821E+03  0.38304353850E+03  0.12508769016E+03 0.  0.
        -24    2    1    2    0    0 -0.22233468429E+02 -0.60959385330E+02  0.10772742898E+04  0.10821865120E+04  0.79983607567E+02 0.  0.
        -13    1    3    3    0    0 -0.17522464666E+02  0.34476710367E+02 -0.55736685213E+01  0.39073598587E+02  0.00000000000E+00 0.  1.
         14    1    3    3    0    0  0.23891716903E+02 -0.34352903334E+02 -0.20614264484E+02  0.46646371823E+02  0.00000000000E+00 0. -1.
         11    1    5    5    0    0 -0.46580460551E+02 -0.36603268475E+02  0.87486150069E+03  0.87686497476E+03  0.00000000000E+00 0. -1.
        -12    1    5    5    0    0  0.24346992123E+02 -0.24356116855E+02  0.20241278909E+03  0.20532153721E+03  0.00000000000E+00 0.  1.
          5    1    4    4  501    0 -0.69403620703E+01  0.53191464385E+02  0.43880433391E+02  0.69429571104E+02  0.41800000000E+01 0. -1.
         -5    1    4    4    0  501  0.22804578262E+02  0.76441139116E+01  0.31266238482E+03  0.31361396740E+03  0.41800000000E+01 0. -1.
</event>
<event>
11    1  0.8039394E-009  0.1942497E+03  0.7561462E-02  0.1058666E+00
         22   -1    0    0    0    0  0.00000000000E+00  0.00000000000E+00  0.41149874490E+03  0.41149874490E+03  0.00000000000E+00 0. -1.
         22   -1    0    0    0    0 -0.00000000000E+00 -0.00000000000E+00 -0.80659736088E+03  0.80659736088E+03  0.00000000000E+00 0. -1.
         24    2    1    2    0    0  0.13130550811E+03  0.60494935419E+02 -0.69043498244E+03  0.70976369850E+03  0.78506490561E+02 0.  0.
         25    2    1    2    0    0 -0.22747525726E+03 -0.75497375940E+02  0.12924379124E+03  0.29965985961E+03  0.12508887820E+03 0.  0.
        -24    2    1    2    0    0  0.96169749149E+02  0.15002440521E+02  0.16609257522E+03  0.20867254767E+03  0.80522013967E+02 0.  0.
        -11    1    3    3    0    0  0.51934985719E+01 -0.96849719705E+01 -0.14959962537E+03  0.15000273004E+03  0.00000000000E+00 0.  1.
         12    1    3    3    0    0  0.12611200954E+03  0.70179907389E+02 -0.54083535707E+03  0.55976096845E+03  0.00000000000E+00 0. -1.
         11    1    5    5    0    0  0.78306322157E+02  0.41340008340E+02  0.14685598066E+03  0.17148631268E+03  0.00000000000E+00 0. -1.
        -12    1    5    5    0    0  0.17863426992E+02 -0.26337567819E+02  0.19236594560E+02  0.37186234991E+02  0.00000000000E+00 0.  1.
          5    1    4    4  501    0 -0.13318344939E+03 -0.86292889945E+02  0.28681728629E+02  0.16132082322E+03  0.41800000000E+01 0.  1.
         -5    1    4    4    0  501 -0.94291807874E+02  0.10795514005E+02  0.10056206261E+03  0.13833903640E+03  0.41800000000E+01 0.  1.
</event>
<event>
11    1  0.8039394E-009  0.1685424E+03  0.7561462E-02  0.1079307E+00
         22   -1    0    0    0    0  0.00000000000E+00  0.00000000000E+00  0.98283634888E+03  0.98283634888E+03  0.00000000000E+00 0. -1.
         22   -1    0    0    0    0 -0.00000000000E+00 -0.00000000000E+00 -0.20514418301E+04  0.20514418301E+04  0.00000000000E+00 0.  1.
        -24    2    1    2    0    0  0.54714348835E+02  0.45804125252E+02 -0.19798930930E+04  0.19828699876E+04  0.81884369607E+02 0.  0.
         25    2    1    2    0    0 -0.15227833302E+03  0.65502882626E+01  0.86296062555E+02  0.21522892811E+03  0.12507951112E+03 0.  0.
         24    2    1    2    0    0  0.97563984181E+02 -0.52354413514E+02  0.82499154923E+03  0.83617926331E+03  0.79529796008E+02 0.  0.
        -11    1    5    5    0    0  0.52372868270E+02  0.13152437213E+02  0.41862364918E+03  0.42209200844E+03  0.00000000000E+00 0.  1.
         12    1    5    5    0    0  0.45191115911E+02 -0.65506850727E+02  0.40636790005E+03  0.41408725487E+03  0.00000000000E+00 0. -1.
         11    1    3    3    0    0  0.38618256726E+02  0.10615338455E+02 -0.31612322065E+03  0.31865019346E+03  0.00000000000E+00 0. -1.
        -12    1    3    3    0    0  0.16096092109E+02  0.35188786797E+02 -0.16637698724E+04  0.16642197941E+04  0.00000000000E+00 0.  1.
          5    1    4    4  501    0 -0.88946240485E+01 -0.14781296534E+02  0.66540635658E+02  0.68867478957E+02  0.41800000000E+01 0. -1.
         -5    1    4    4    0  501 -0.14338370897E+03  0.21331584797E+02  0.19755426897E+02  0.14636144916E+03  0.41800000000E+01 0. -1.
</event>
<event>
11    1  0.8039394E-009  0.2605649E+03  0.7561462E-02  0.1018417E+00
         22   -1    0    0    0    0  0.00000000000E+00  0.00000000000E+00  0.54626775439E+02  0.54626775439E+02  0.00000000000E+00 0.  1.
         22   -1    0    0    0    0 -0.00000000000E+00 -0.00000000000E+00 -0.28140241648E+04  0.28140241648E+04  0.00000000000E+00 0.  1.
         24    2    1    2    0    0 -0.79879069652E+02 -0.16800912543E+03 -0.87194111434E+03  0.89527127245E+03  0.81373290560E+02 0.  0.
         25    2    1    2    0    0  0.25629168907E+03  0.18514718099E+03 -0.15228124480E+04  0.15603107386E+04  0.12508773185E+03 0.  0.
        -24    2    1    2    0    0 -0.17641261942E+03 -0.17138055560E+02 -0.36464382694E+03  0.41306892911E+03  0.79029706013E+02 0.  0.
        -11    1    3    3    0    0 -0.50562800435E+02 -0.16273209423E+03 -0.67967462617E+03  0.70071101657E+03  0.00000000000E+00 0.  1.
         12    1    3    3    0    0 -0.29316269217E+02 -0.52770312015E+01 -0.19226648817E+03  0.19456025589E+03  0.00000000000E+00 0. -1.
         11    1    5    5    0    0 -0.13988290767E+02  0.14250460613E+02 -0.11366824044E+02  0.22977219047E+02  0.00000000000E+00 0. -1.
        -12    1    5    5    0    0 -0.16242432865E+03 -0.31388516173E+02 -0.35327700289E+03  0.39009171006E+03  0.00000000000E+00 0.  1.
          5    1    4    4  501    0  0.24908897944E+03  0.12400777414E+03 -0.12545640570E+04  0.12850570779E+04  0.41800000000E+01 0.  1.
         -5    1    4    4    0  501  0.72027096306E+01  0.61139406848E+02 -0.26824839100E+03  0.27525366077E+03  0.41800000000E+01 0.  1.
</event>
<event>
11    1  0.8039394E-009  0.1423313E+03  0.7561462E-02  0.1104983E+00
         22   -1    0    0    0    0  0.00000000000E+00  0.00000000000E+00  0.18471886338E+03  0.18471886338E+03  0.00000000000E+00 0.  1.
         22   -1    0    0    0    0 -0.00000000000E+00 -0.00000000000E+00 -0.57829771932E+03  0.57829771932E+03  0.00000000000E+00 0.  1.
         24    2    1    2    0    0  0.51347904472E+02 -0.42453077026E+02 -0.47399525852E+03  0.48502035473E+03  0.78322208627E+02 0.  0.
         25    2    1    2    0    0 -0.10375227675E+03  0.20877512239E+02  0.63977315797E+02  0.17592797003E+03  0.12512852694E+03 0.  0.
        -24    2    1    2    0    0  0.52404372282E+02  0.21575564787E+02  0.16439086785E+02  0.10206825794E+03  0.83282425965E+02 0.  0.
        -13    1    3    3    0    0  0.67448201370E+02 -0.31120024733E+02 -0.43542278304E+03  0.44171338648E+03  0.00000000000E+00 0.  1.
         14    1    3    3    0    0 -0.16100296899E+02 -0.11333052293E+02 -0.38572475481E+02  0.43306968253E+02  0.00000000000E+00 0. -1.
         11    1    5    5    0    0  0.23655345474E+02 -0.30428483426E+02 -0.50694998141E+01  0.38873741799E+02  0.00000000000E+00 0. -1.
        -12    1    5    5    0    0  0.28749026808E+02  0.52004048213E+02  0.21508586599E+02  0.63194516142E+02  0.00000000000E+00 0.  1.
          5    1    4    4  501    0 -0.48594254402E+02  0.35388873492E+02 -0.28919179893E+02  0.66839848097E+02  0.41800000000E+01 0.  1.
         -5    1    4    4    0  501 -0.55158022352E+02 -0.14511361254E+02  0.92896495690E+02  0.10908812193E+03  0.41800000000E+01 0.  1.
</event>
<event>
11    1  0.8039394E-009  0.2231345E+03  0.7561462E-02  0.1039271E+00
         22   -1    0    0    0    0  0.00000000000E+00  0.00000000000E+00  0.12068102921E+04  0.12068102921E+04  0.00000000000E+00 0.  1.
         22   -1    0    0    0    0 -0.00000000000E+00 -0.00000000000E+00 -0.46500938953E+03  0.46500938953E+03  0.00000000000E+00 0. -1.
        -24    2    1    2    0    0 -0.10454165162E+03  0.16029182088E+03 -0.41177651209E+03  0.46020932069E+03  0.74901923739E+02 0.  0.
         25    2    1    2    0    0 -0.73707970735E+01 -0.11892234083E+03  0.30094822361E+03  0.34700745777E+03  0.12508993027E+03 0.  0.
         24    2    1    2    0    0  0.11191244869E+03 -0.41369480042E+02  0.85262919102E+03  0.86460290314E+03  0.79534977717E+02 0.  0.
        -13    1    5    5    0    0  0.87735177052E+02 -0.23885639617E+02  0.36840830428E+03  0.37946365272E+03  0.00000000000E+00 0.  1.
         14    1    5    5    0    0  0.24177271642E+02 -0.17483840425E+02  0.48422088674E+03  0.48513925042E+03  0.00000000000E+00 0. -1.
         11    1    3    3    0    0 -0.61433272763E+02  0.82557524251E+02 -0.30144789905E+03  0.31852884902E+03  0.00000000000E+00 0. -1.
        -12    1    3    3    0    0 -0.43108378857E+02  0.77734296625E+02 -0.11032861304E+03  0.14168047168E+03  0.00000000000E+00 0.  1.
          5    1    4    4  501    0 -0.62168125152E+02 -0.81265563818E+02  0.21605833459E+03  0.23909756167E+03  0.41800000000E+01 0. -1.
         -5    1    4    4    0  501  0.54797328079E+02 -0.37656777017E+02  0.84889889020E+02  0.10790989611E+03  0.41800000000E+01 0. -1.
</event>
<event>
11    1  0.8039394E-009  0.3593684E+03  0.7561462E-02  0.9777889E-01
         22   -1    0    0    0    0  0.00000000000E+00  0.00000000000E+00  0.67260769897E+03  0.67260769897E+03  0.00000000000E+00 0. -1.
         22   -1    0    0    0    0 -0.00000000000E+00 -0.00000000000E+00 -0.20364096671E+04  0.20364096671E+04  0.00000000000E+00 0.  1.
        -24    2    1    2    0    0  0.68653188253E+02  0.13087020488E+03 -0.14551251433E+04  0.14651084910E+04  0.85518634690E+02 0.  0.
         25    2    1    2    0    0  0.85552594121E+02  0.38605920318E+02 -0.54278070193E+03  0.56486032627E+03  0.12508650756E+03 0.  0.
         24    2    1    2    0    0 -0.15420578237E+03 -0.16947612519E+03  0.63410387706E+03  0.67904854886E+03  0.80731805847E+02 0.  0.
        -11    1    5    5    0    0 -0.78172388473E+01 -0.34684112690E+02  0.45669419143E+02  0.57877394042E+02  0.00000000000E+00 0.  1.
         12    1    5    5    0    0 -0.14638854353E+03 -0.13479201250E+03  0.58843445792E+03  0.62117115482E+03  0.00000000000E+00 0. -1.
         13    1    3    3    0    0  0.77211001565E+02  0.87366619608E+02 -0.79601270075E+03  0.80450648521E+03  0.00000000000E+00 0. -1.
        -14    1    3    3    0    0 -0.85578133114E+01  0.43503585269E+02 -0.65911244255E+03  0.66060200577E+03  0.00000000000E+00 0.  1.
          5    1    4    4  501    0  0.71210359932E+02  0.21879945837E+02 -0.11880319616E+03  0.14029012513E+03  0.41800000000E+01 0.  1.
         -5    1    4    4    0  501  0.14342234188E+02  0.16725974481E+02 -0.42397750577E+03  0.42457020115E+03  0.41800000000E+01 0.  1.
</event>
<event>
11    1  0.8039394E-009  0.2173181E+03  0.7561462E-02  0.1042911E+00
         22   -1    0    0    0    0  0.00000000000E+00  0.00000000000E+00  0.10186854182E+04  0.10186854182E+04  0.00000000000E+00 0.  1.
         22   -1    0    0    0    0 -0.00000000000E+00 -0.00000000000E+00 -0.19854529739E+03  0.19854529739E+03  0.00000000000E+00 0.  1.
         24    2    1    2    0    0  0.93959447579E+02 -0.13636990000E+03 -0.71520792937E+02  0.19785445752E+03  0.81277519176E+02 0.  0.
         25    2    1    2    0    0 -0.18003050474E+03  0.16582510621E+03  0.26732827457E+03  0.38343335652E+03  0.12509110286E+03 0.  0.
        -24    2    1    2    0    0  0.86071057165E+02 -0.29455206211E+02  0.62433263914E+03  0.63594290152E+03  0.79726367299E+02 0.  0.
        -13    1    3    3    0    0  0.86144451246E+02 -0.12682133541E+03 -0.88380248125E+02  0.17696210288E+03  0.00000000000E+00 0.  1.
         14    1    3    3    0    0  0.78149963325E+01 -0.95485645930E+01  0.16859455188E+02  0.20892354647E+02  0.00000000000E+00 0. -1.
         11    1    5    5    0    0  0.45310067895E+02  0.25684762879E+02  0.24721131021E+03  0.25263836050E+03  0.00000000000E+00 0. -1.
        -12    1    5    5    0    0  0.40760989269E+02 -0.55139969090E+02  0.37712132893E+03  0.38330454102E+03  0.00000000000E+00 0.  1.
          5    1    4    4  501    0 -0.78290035428E+02  0.14928742425E+03  0.13728445999E+03  0.21744093460E+03  0.41800000000E+01 0. -1.
         -5    1    4    4    0  501 -0.10174046931E+03  0.16537681964E+02  0.13004381458E+03  0.16599242191E+03  0.41800000000E+01 0. -1.
</event>
<event>
11    1  0.8039394E-009  0.1347501E+03  0.7561462E-02  0.1113567E+00
         22   -1    0    0    0    0  0.00000000000E+00  0.00000000000E+00  0.17598035960E+03  0.17598035960E+03  0.00000000000E+00 0. -1.
         22   -1    0    0    0    0 -0.00000000000E+00 -0.00000000000E+00 -0.43759760130E+04  0.43759760130E+04  0.00000000000E+00 0. -1.
        -24    2    1    2    0    0  0.13909573996E+02 -0.46037686392E+01 -0.30595586552E+04  0.30606310990E+04  0.79679914934E+02 0.  0.
         25    2    1    2    0    0  0.27718290691E+02 -0.23515962113E+02 -0.12997545871E+04  0.13062660997E+04  0.12509129638E+03 0.  0.
         24    2    1    2    0    0 -0.41627864687E+02  0.28119730753E+02  0.15931758891E+03  0.18505917385E+03  0.79631685363E+02 0.  0.
        -13    1    5    5    0    0  0.11965793940E+02 -0.37709718867E+01 -0.14402922009E+01  0.12628336993E+02  0.00000000000E+00 0.  1.
         14    1    5    5    0    0 -0.53593658627E+02  0.31890702639E+02  0.16075788111E+03  0.17243083686E+03  0.00000000000E+00 0. -1.
         11    1    3    3    0    0  0.47349945625E+02 -0.42215332224E+01 -0.17512190100E+04  0.17518641099E+04  0.00000000000E+00 0. -1.
        -12    1    3    3    0    0 -0.33440371629E+02 -0.38223541677E+00 -0.13083396452E+04  0.13087669891E+04  0.00000000000E+00 0.  1.
          5    1    4    4  501    0  0.33549995860E+02  0.25416644436E+02 -0.10876473908E+04  0.10884695343E+04  0.41800000000E+01 0.  1.
         -5    1    4    4    0  501 -0.58317051689E+01 -0.48932606549E+02 -0.21210719637E+03  0.21779656545E+03  0.41800000000E+01 0.  1.
</event>
<event>
11    1  0.8039394E-009  0.1691425E+03  0.7561462E-02  0.1078780E+00
         22   -1    0    0    0    0  0.00000000000E+00  0.00000000000E+00  0.21306763477E+04  0.21306763477E+04  0.00000000000E+00 0.  1.
         22   -1    0    0    0    0 -0.00000000000E+00 -0.00000000000E+00 -0.28678417696E+02  0.28678417696E+02  0.00000000000E+00 0. -1.
        -24    2    1    2    0    0  0.76031961502E+02 -0.82576586726E+02  0.22093101094E+03  0.26054009283E+03  0.80441758612E+02 0.  0.
         25    2    1    2    0    0 -0.70150710190E+02  0.10078932841E+03  0.11992906704E+04  0.12120335073E+04  0.12508996708E+03 0.  0.
         24    2    1    2    0    0 -0.58812513121E+01 -0.18212741684E+02  0.68177624868E+03  0.68678116528E+03  0.80518461517E+02 0.  0.
        -13    1    5    5    0    0 -0.18110986905E+02 -0.33258379527E+02  0.15187173288E+03  0.15652204606E+03  0.00000000000E+00 0.  1.
         14    1    5    5    0    0  0.12229735593E+02  0.15045637843E+02  0.52990451580E+03  0.53025911922E+03  0.00000000000E+00 0. -1.
         11    1    3    3    0    0  0.49744495531E+02 -0.91017117195E+02  0.13476909068E+03  0.17006274801E+03  0.00000000000E+00 0. -1.
        -12    1    3    3    0    0  0.26287465971E+02  0.84405304684E+01  0.86161920259E+02  0.90477344813E+02  0.00000000000E+00 0.  1.
          5    1    4    4  501    0  0.72242342923E+01 -0.10174266244E+02  0.47644615058E+03  0.47662785489E+03  0.41800000000E+01 0. -1.
         -5    1    4    4    0  501 -0.77374944482E+02  0.11096359465E+03  0.72284451984E+03  0.73540565244E+03  0.41800000000E+01 0. -1.
</event>
<event>
11    1  0.8039394E-009  0.3271806E+03  0.7561462E-02  0.9893017E-01
         22   -1    0    0    0    0  0.00000000000E+00  0.00000000000E+00  0.33245269520E+03  0.33245269520E+03  0.00000000000E+00 0. -1.
         22   -1    0    0    0    0 -0.00000000000E+00 -0.00000000000E+00 -0.11519913240E+04  0.11519913240E+04  0.00000000000E+00 0. -1.
         24    2    1    2    0    0 -0.32670582538E+03  0.90829556616E+02 -0.76013004447E+03  0.83601829209E+03  0.78372160328E+02 0.  0.
         25    2    1    2    0    0  0.12058616794E+03 -0.26079709337E+03 -0.15726111642E+03  0.35062124031E+03  0.12509215646E+03 0.  0.
        -24    2    1    2    0    0  0.20611965743E+03  0.16996753676E+03  0.97852532086E+02  0.29780448680E+03  0.87966570860E+02 0.  0.
        -13    1    3    3    0    0 -0.19970210424E+03  0.72949402261E+02 -0.55218111903E+03  0.59169800907E+03  0.00000000000E+00 0.  1.
         14    1    3    3    0    0 -0.12700372114E+03  0.17880154355E+02 -0.20794892544E+03  0.24432028302E+03  0.00000000000E+00 0. -1.
         13    1    5    5    0    0  0.16479519814E+03  0.15267954504E+03  0.11173893355E+03  0.25090653653E+03  0.00000000000E+00 0. -1.
        -14    1    5    5    0    0  0.41324459297E+02  0.17287991718E+02 -0.13886401462E+02  0.46897950269E+02  0.00000000000E+00 0.  1.
          5    1    4    4  501    0  0.79512526518E+02 -0.21412280765E+03 -0.17275124876E+03  0.28641104200E+03  0.41800000000E+01 0. -1.
         -5    1    4    4    0  501  0.41073641426E+02 -0.46674285722E+02  0.15490132338E+02  0.64210198314E+02  0.41800000000E+01 0. -1.
</event>
<event>
11    1  0.8039394E-009  0.1263057E+03  0.7561462E-02  0.1123893E+00
         22   -1    0    0    0    0  0.00000000000E+00  0.00000000000E+00  0.11557434387E+03  0.11557434387E+03  0.00000000000E+00 0. -1.
         22   -1    0    0    0    0 -0.00000000000E+00 -0.00000000000E+00 -0.31876448655E+04  0.31876448655E+04  0.00000000000E+00 0.  1.
         24    2    1    2    0    0 -0.31693644313E+01 -0.33809268751E+02 -0.21058258915E+04  0.21075737833E+04  0.78812784828E+02 0.  0.
         25    2    1    2    0    0 -0.12357183112E+02  0.24975701361E+02 -0.10548746809E+04  0.10626311217E+04  0.12509125745E+03 0.  0.
        -24    2    1    2    0    0  0.15526547543E+02  0.88335673905E+01  0.88630050827E+02  0.13301430440E+03  0.97562357868E+02 0.  0.
        -13    1    3    3    0    0  0.24072573547E+02 -0.16710060169E+02 -0.17627361967E+04  0.17629797543E+04  0.00000000000E+00 0.  1.
         14    1    3    3    0    0 -0.27241937978E+02 -0.17099208582E+02 -0.34308969480E+03  0.34459402896E+03  0.00000000000E+00 0. -1.
         11    1    5    5    0    0  0.43308496251E+01  0.13495631407E+02  0.10867001076E+03  0.10959041730E+03  0.00000000000E+00 0. -1.
        -12    1    5    5    0    0  0.11195697918E+02 -0.46620640168E+01 -0.20039959930E+02  0.23423887098E+02  0.00000000000E+00 0.  1.
          5    1    4    4  501    0 -0.62964839620E+02  0.22717848176E+02 -0.38230022374E+03  0.38813864163E+03  0.41800000000E+01 0. -1.
         -5    1    4    4    0  501  0.50607656508E+02  0.22578531849E+01 -0.67257445717E+03  0.67449248004E+03  0.41800000000E+01 0. -1.
</event>
<event>
11    1  0.8039394E-009  0.4835462E+03  0.7561462E-02  0.9431058E-01
         22   -1    0    0    0    0  0.00000000000E+00  0.00000000000E+00  0.12797642168E+04  0.12797642168E+04  0.00000000000E+00 0. -1.
         22   -1    0    0    0    0 -0.00000000000E+00 -0.00000000000E+00 -0.52909499821E+03  0.52909499821E+03  0.00000000000E+00 0. -1.
        -24    2    1    2    0    0  0.46780241379E+02 -0.39993175080E+03 -0.72425499250E+02  0.41878869922E+03  0.89469130835E+02 0.  0.
         25    2    1    2    0    0  0.30381819094E+02  0.60582886927E+03  0.96827478734E+02  0.62687674009E+03  0.12508881989E+03 0.  0.
         24    2    1    2    0    0 -0.77162060472E+02 -0.20589711847E+03  0.72626723913E+03  0.76319377572E+03  0.81566106294E+02 0.  0.
        -11    1    5    5    0    0 -0.23868966563E+02 -0.77085705384E+01  0.43113824383E+02  0.49879369257E+02  0.00000000000E+00 0.  1.
         12    1    5    5    0    0 -0.53293093909E+02 -0.19818854793E+03  0.68315341474E+03  0.71331440646E+03  0.00000000000E+00 0. -1.
         11    1    3    3    0    0  0.22327551070E+02 -0.36501610001E+03 -0.82718606153E+02  0.37493684883E+03  0.00000000000E+00 0. -1.
        -12    1    3    3    0    0  0.24452690309E+02 -0.34915650790E+02  0.10293106903E+02  0.43851850396E+02  0.00000000000E+00 0.  1.
          5    1    4    4  501    0  0.65925336501E+02  0.53970781652E+03  0.92678072615E+02  0.55157717026E+03  0.41800000000E+01 0.  1.
         -5    1    4    4    0  501 -0.35543517407E+02  0.66121052746E+02  0.41494061189E+01  0.75299569833E+02  0.41800000000E+01 0.  1.
</event>
<event>
11    1  0.8039394E-009  0.2200778E+03  0.7561462E-02  0.1041169E+00
         22   -1    0    0    0    0  0.00000000000E+00  0.00000000000E+00  0.28488891548E+04  0.28488891548E+04  0.00000000000E+00 0.  1.
         22   -1    0    0    0    0 -0.00000000000E+00 -0.00000000000E+00 -0.22199602539E+03  0.22199602539E+03  0.00000000000E+00 0.  1.
         24    2    1    2    0    0 -0.15969437872E+03 -0.83345558281E+02 -0.14966303624E+03  0.24825947997E+03  0.82370919021E+02 0.  0.
         25    2    1    2    0    0  0.13635822230E+03  0.15584126281E+03  0.66016633541E+03  0.70309770050E+03  0.12508685801E+03 0.  0.
        -24    2    1    2    0    0  0.23336156418E+02 -0.72495704532E+02  0.21163898302E+04  0.21195279997E+04  0.86561103658E+02 0.  0.
        -11    1    3    3    0    0 -0.11830965059E+03 -0.55994617076E+02 -0.14943348208E+03  0.19865280298E+03  0.00000000000E+00 0.  1.
         12    1    3    3    0    0 -0.41384728130E+02 -0.27350941205E+02 -0.22955415510E+00  0.49606676993E+02  0.00000000000E+00 0. -1.
         11    1    5    5    0    0  0.42647590416E+02 -0.57192074556E+02  0.87821339908E+03  0.88110642075E+03  0.00000000000E+00 0. -1.
        -12    1    5    5    0    0 -0.19311433999E+02 -0.15303629976E+02  0.12381764311E+04  0.12384215790E+04  0.00000000000E+00 0.  1.
          5    1    4    4  501    0  0.60664811618E+02  0.95630380763E+02  0.17587240249E+03  0.20922228240E+03  0.41800000000E+01 0.  1.
         -5    1    4    4    0  501  0.75693410687E+02  0.60210882049E+02  0.48429393292E+03  0.49387541810E+03  0.41800000000E+01 0.  1.
</event>
<event>
11    1  0.8039394E-009  0.1346130E+03  0.7561462E-02  0.1113728E+00
         22   -1    0    0    0    0  0.00000000000E+00  0.00000000000E+00  0.49122492240E+03  0.49122492240E+03  0.00000000000E+00 0.  1.
         22   -1    0    0    0    0 -0.00000000000E+00 -0.00000000000E+00 -0.12900966011E+04  0.12900966011E+04  0.00000000000E+00 0.  1.
         24    2    1    2    0    0 -0.15646051838E+02  0.48021801215E+02 -0.12370794820E+04  0.12407072838E+04  0.80237316620E+02 0.  0.
         25    2    1    2    0    0 -0.32256325163E+02 -0.23900250461E+02  0.49822153206E+02  0.14050451331E+03  0.12509028270E+03 0.  0.
        -24    2    1    2    0    0  0.47902377001E+02 -0.24121550754E+02  0.38838565013E+03  0.40010972634E+03  0.79799078670E+02 0.  0.
        -11    1    3    3    0    0  0.18294548803E+02  0.55573800742E+02 -0.66337635306E+03  0.66595144240E+03  0.00000000000E+00 0.  1.
         12    1    3    3    0    0 -0.33940600641E+02 -0.75519995274E+01 -0.57370312897E+03  0.57475584143E+03  0.00000000000E+00 0. -1.
         11    1    5    5    0    0  0.14131658793E+02  0.96891995856E+01  0.12526626799E+02  0.21225002893E+02  0.00000000000E+00 0. -1.
        -12    1    5    5    0    0  0.33770718209E+02 -0.33810750340E+02  0.37585902333E+03  0.37888472345E+03  0.00000000000E+00 0.  1.
          5    1    4    4  501    0 -0.23899780835E+02 -0.45284115785E+02  0.84389602845E+02  0.98797409555E+02  0.41800000000E+01 0. -1.
         -5    1    4    4    0  501 -0.83565443289E+01  0.21383865324E+02 -0.34567449640E+02  0.41707103758E+02  0.41800000000E+01 0. -1.
</event>
<event>
11    1  0.8039394E-009  0.3488418E+03  0.7561462E-02  0.9814068E-01
         22   -1    0    0    0    0  0.00000000000E+00  0.00000000000E+00  0.80434691312E+03  0.80434691312E+03  0.00000000000E+00 0. -1.
         22   -1    0    0    0    0 -0.00000000000E+00 -0.00000000000E+00 -0.43742355604E+03  0.43742355604E+03  0.00000000000E+00 0. -1.
         24    2    1    2    0    0 -0.27749056047E+01 -0.11039576672E+02 -0.28465199504E+03  0.29640043575E+03  0.81834513984E+02 0.  0.
         25    2    1    2    0    0 -0.71452608504E+02  0.32327290787E+03  0.32018124635E+03  0.47725634318E+03  0.12508692324E+03 0.  0.
        -24    2    1    2    0    0  0.74227514108E+02 -0.31223333120E+03  0.33139410577E+03  0.46811369023E+03  0.79429192849E+02 0.  0.
        -13    1    3    3    0    0 -0.14913672746E+02  0.93071595940E+01 -0.90321138533E+01  0.19764107244E+02  0.00000000000E+00 0.  1.
         14    1    3    3    0    0  0.12138767142E+02 -0.20346736266E+02 -0.27561988119E+03  0.27663632851E+03  0.00000000000E+00 0. -1.
         13    1    5    5    0    0  0.74633256365E+02 -0.28721727464E+03  0.32887123672E+03  0.44296746624E+03  0.00000000000E+00 0. -1.
        -14    1    5    5    0    0 -0.40574225613E+00 -0.25016056560E+02  0.25228690534E+01  0.25146223988E+02  0.00000000000E+00 0.  1.
          5    1    4    4  501    0 -0.48475103049E+02  0.39919052822E+02  0.25869543436E+02  0.68044632937E+02  0.41800000000E+01 0.  1.
         -5    1    4    4    0  501 -0.22977505454E+02  0.28335385505E+03  0.29431170291E+03  0.40921171024E+03  0.41800000000E+01 0.  1.
</event>
<event>
11    1  0.8039394E-009  0.1511402E+03  0.7561462E-02  0.1095719E+00
         22   -1    0    0    0    0  0.00000000000E+00  0.00000000000E+00  0.19060537168E+04  0.19060537168E+04  0.00000000000E+00 0. -1.
         22   -1    0    0    0    0 -0.00000000000E+00 -0.00000000000E+00 -0.30984694554E+02  0.30984694554E+02  0.00000000000E+00 0.  1.
         24    2    1    2    0    0 -0.79898252475E+02  0.26540555296E+02  0.14015326160E+03  0.18389879575E+03  0.84188470217E+02 0.  0.
         25    2    1    2    0    0  0.73189589970E+02 -0.56655973094E+02  0.84878174499E+03  0.86292777658E+03  0.12508909470E+03 0.  0.
        -24    2    1    2    0    0  0.67086625052E+01  0.30115417798E+02  0.88613401563E+03  0.89021183899E+03  0.79320111424E+02 0.  0.
        -13    1    3    3    0    0 -0.87656167654E+02 -0.36999250319E+01  0.99857397443E+02  0.13292401212E+03  0.00000000000E+00 0.  1.
         14    1    3    3    0    0  0.77579151790E+01  0.30240480328E+02  0.40295864162E+02  0.50974783638E+02  0.00000000000E+00 0. -1.
         11    1    5    5    0    0 -0.18540203742E+02 -0.71290888848E+01  0.61870865580E+03  0.61902743382E+03  0.00000000000E+00 0. -1.
        -12    1    5    5    0    0  0.25248866247E+02  0.37244506683E+02  0.26742535983E+03  0.27118440517E+03  0.00000000000E+00 0.  1.
          5    1    4    4  501    0  0.97927155648E+02 -0.50386202720E+02  0.44964558992E+03  0.46295477768E+03  0.41800000000E+01 0. -1.
         -5    1    4    4    0  501 -0.24737565677E+02 -0.62697703738E+01  0.39913615506E+03  0.39997299891E+03  0.41800000000E+01 0. -1.
</event>
<event>
11    1  0.8039394E-009  0.2935505E+03  0.7561462E-02  0.1002958E+00
         22   -1    0    0    0    0  0.00000000000E+00  0.00000000000E+00  0.73146560086E+03  0.73146560086E+03  0.00000000000E+00 0.  1.
         22   -1    0    0    0    0 -0.00000000000E+00 -0.00000000000E+00 -0.52092909681E+03  0.52092909681E+03  0.00000000000E+00 0.  1.
        -24    2    1    2    0    0 -0.23803607453E+03 -0.11941598889E+03 -0.41696405246E+03  0.50122765765E+03  0.80304374560E+02 0.  0.
         25    2    1    2    0    0  0.24870537867E+03  0.80788351424E+02  0.32512362548E+03  0.43558526479E+03  0.12509207788E+03 0.  0.
         24    2    1    2    0    0 -0.10669304138E+02  0.38627637464E+02  0.30237693103E+03  0.31558177524E+03  0.80957519825E+02 0.  0.
        -11    1    5    5    0    0  0.30876431209E+02 -0.22203123949E+01  0.82504223255E+02  0.88120546107E+02  0.00000000000E+00 0.  1.
         12    1    5    5    0    0 -0.41545735347E+02  0.40847949859E+02  0.21987270777E+03  0.22746122913E+03  0.00000000000E+00 0. -1.
         11    1    3    3    0    0 -0.53058513869E+02 -0.67829121780E+02 -0.13007913964E+03  0.15600185328E+03  0.00000000000E+00 0. -1.
        -12    1    3    3    0    0 -0.18497756066E+03 -0.51586867108E+02 -0.28688491282E+03  0.34522580438E+03  0.00000000000E+00 0.  1.
          5    1    4    4  501    0  0.96290179411E+02  0.94523913447E+02  0.17660630906E+03  0.22229221684E+03  0.41800000000E+01 0.  1.
         -5    1    4    4    0  501  0.15241519925E+03 -0.13735562023E+02  0.14851731642E+03  0.21329304795E+03  0.41800000000E+01 0.  1.
</event>
<event>
11    1  0.8039394E-009  0.4264168E+03  0.7561462E-02  0.9574876E-01
         22   -1    0    0    0    0  0.00000000000E+00  0.00000000000E+00  0.56669861079E+03  0.56669861079E+03  0.00000000000E+00 0.  1.
         22   -1    0    0    0    0 -0.00000000000E+00 -0.00000000000E+00 -0.81707081806E+03  0.81707081806E+03  0.00000000000E+00 0.  1.
        -24    2    1    2    0    0 -0.37045786644E+03 -0.17217627597E+03 -0.58051887135E+03  0.71487086556E+03  0.84584239823E+02 0.  0.
         25    2    1    2    0    0  0.32079810201E+03  0.26198817504E+03  0.17501134913E+03  0.46671812728E+03  0.12509041486E+03 0.  0.
         24    2    1    2    0    0  0.49659764425E+02 -0.89811899067E+02  0.15513531495E+03  0.20218043601E+03  0.79231896000E+02 0.  0.
        -13    1    5    5    0    0 -0.21197221302E+01 -0.72060241770E+02  0.66928717379E+02  0.98369837226E+02  0.00000000000E+00 0.  1.
         14    1    5    5    0    0  0.51779486556E+02 -0.17751657297E+02  0.88206597575E+02  0.10381059879E+03  0.00000000000E+00 0. -1.
         11    1    3    3    0    0 -0.29907201334E+01 -0.15739256512E+02 -0.11666422587E+02  0.19818527151E+02  0.00000000000E+00 0. -1.
        -12    1    3    3    0    0 -0.36746714631E+03 -0.15643701946E+03 -0.56885244876E+03  0.69505233841E+03  0.00000000000E+00 0.  1.
          5    1    4    4  501    0  0.28979251340E+03  0.26058453794E+03  0.12799166155E+03  0.41022352451E+03  0.41800000000E+01 0.  1.
         -5    1    4    4    0  501  0.31005588611E+02  0.14036371049E+01  0.47019687571E+02  0.56494602764E+02  0.41800000000E+01 0.  1.
</event>
<event>
11    1  0.8039394E-009  0.1653625E+03  0.7561462E-02  0.1082139E+00
         22   -1    0    0    0    0  0.00000000000E+00  0.00000000000E+00  0.36214293036E+03  0.36214293036E+03  0.00000000000E+00 0.  1.
         22   -1    0    0    0    0 -0.00000000000E+00 -0.00000000000E+00 -0.42799286157E+03  0.42799286157E+03  0.00000000000E+00 0. -1.
         24    2    1    2    0    0 -0.51296104973E+02  0.17089777508E+02 -0.25917223833E+03  0.27648812978E+03  0.79699974344E+02 0.  0.
         25    2    1    2    0    0  0.12093182396E+03  0.62993935779E+02 -0.86201807681E+02  0.20412588140E+03  0.12507550447E+03 0.  0.
        -24    2    1    2    0    0 -0.69635718990E+02 -0.80083713287E+02  0.27952411479E+03  0.30952178075E+03  0.80046658358E+02 0.  0.
        -11    1    3    3    0    0  0.16106751876E+02  0.22887606261E+02 -0.61750162808E+02  0.67796405385E+02  0.00000000000E+00 0.  1.
         12    1    3    3    0    0 -0.67402856849E+02 -0.57978287532E+01 -0.19742207552E+03  0.20869172440E+03  0.00000000000E+00 0. -1.
         11    1    5    5    0    0  0.86436108344E+00 -0.43408576622E+02  0.47922517017E+02  0.64665441170E+02  0.00000000000E+00 0. -1.
        -12    1    5    5    0    0 -0.70500080073E+02 -0.36675136665E+02  0.23160159777E+03  0.24485633958E+03  0.00000000000E+00 0.  1.
          5    1    4    4  501    0  0.38800293440E+02  0.90305551167E+02 -0.45902960936E+02  0.10855924449E+03  0.41800000000E+01 0.  1.
         -5    1    4    4    0  501  0.82131530523E+02 -0.27311615387E+02 -0.40298846745E+02  0.95566636908E+02  0.41800000000E+01 0.  1.
</event>
<event>
11    1  0.8039394E-009  0.3627525E+03  0.7561462E-02  0.9766539E-01
         22   -1    0    0    0    0  0.00000000000E+00  0.00000000000E+00  0.30274336580E+03  0.30274336580E+03  0.00000000000E+00 0. -1.
         22   -1    0    0    0    0 -0.00000000000E+00 -0.00000000000E+00 -0.11153620412E+04  0.11153620412E+04  0.00000000000E+00 0.  1.
         24    2    1    2    0    0  0.90371557964E+02 -0.99360179903E+02 -0.78450941599E+02  0.17490627754E+03  0.79988698230E+02 0.  0.
         25    2    1    2    0    0 -0.20555248669E+03  0.29707946612E+03 -0.88046952752E+03  0.95988743834E+03  0.12509704796E+03 0.  0.
        -24    2    1    2    0    0  0.11518092873E+03 -0.19771928622E+03  0.14630179373E+03  0.28331169112E+03  0.80633349125E+02 0.  0.
        -11    1    3    3    0    0  0.71681591727E+02 -0.10941511726E+03 -0.80489767911E+02  0.15358555016E+03  0.00000000000E+00 0.  1.
         12    1    3    3    0    0  0.18689966237E+02  0.10054937361E+02  0.20388263123E+01  0.21320727380E+02  0.00000000000E+00 0. -1.
         11    1    5    5    0    0  0.75042695810E+02 -0.10230492782E+03  0.35650002717E+02  0.13179008743E+03  0.00000000000E+00 0. -1.
        -12    1    5    5    0    0  0.40138232916E+02 -0.95414358396E+02  0.11065179102E+03  0.15152160369E+03  0.00000000000E+00 0.  1.
          5    1    4    4  501    0 -0.92177674320E+02  0.23456073950E+03 -0.55335250456E+03  0.60805586163E+03  0.41800000000E+01 0. -1.
         -5    1    4    4    0  501 -0.11337481237E+03  0.62518726622E+02 -0.32711702295E+03  0.35183157670E+03  0.41800000000E+01 0. -1.
</event>
<event>
11    1  0.8039394E-009  0.1297759E+03  0.7561462E-02  0.1119545E+00
         22   -1    0    0    0    0  0.00000000000E+00  0.00000000000E+00  0.34225135996E+03  0.34225135996E+03  0.00000000000E+00 0. -1.
         22   -1    0    0    0    0 -0.00000000000E+00 -0.00000000000E+00 -0.27091267561E+03  0.27091267561E+03  0.00000000000E+00 0.  1.
         24    2    1    2    0    0 -0.24186091726E+02 -0.66289957372E+01 -0.15008273012E+03  0.17146684170E+03  0.79038859457E+02 0.  0.
         25    2    1    2    0    0  0.10703819586E+02  0.38639247041E+02 -0.61769165801E+02  0.14515457487E+03  0.12508739983E+03 0.  0.
        -24    2    1    2    0    0  0.13482272141E+02 -0.32010251304E+02  0.28319058027E+03  0.29654261901E+03  0.80834350867E+02 0.  0.
        -13    1    3    3    0    0  0.24983670845E+02 -0.15539788173E+02 -0.33263944885E+02  0.44408995199E+02  0.00000000000E+00 0.  1.
         14    1    3    3    0    0 -0.49169762571E+02  0.89107924354E+01 -0.11681878524E+03  0.12705784650E+03  0.00000000000E+00 0. -1.
         13    1    5    5    0    0  0.82486057343E+01 -0.59462408336E+02  0.19221283607E+03  0.20136929223E+03  0.00000000000E+00 0. -1.
        -14    1    5    5    0    0  0.52336664063E+01  0.27452157032E+02  0.90977744202E+02  0.95173326777E+02  0.00000000000E+00 0.  1.
          5    1    4    4  501    0 -0.15275457370E+02  0.75813189885E+02 -0.13190461784E+02  0.78564877907E+02  0.41800000000E+01 0. -1.
         -5    1    4    4    0  501  0.25979276955E+02 -0.37173942844E+02 -0.48578704017E+02  0.66589696964E+02  0.41800000000E+01 0. -1.
</event>
<event>
11    1  0.8039394E-009  0.1454935E+03  0.7561462E-02  0.1101574E+00
         22   -1    0    0    0    0  0.00000000000E+00  0.00000000000E+00  0.45115065231E+03  0.45115065231E+03  0.00000000000E+00 0.  1.
         22   -1    0    0    0    0 -0.00000000000E+00 -0.00000000000E+00 -0.12550408312E+03  0.12550408312E+03  0.00000000000E+00 0.  1.
         24    2    1    2    0    0 -0.65940098147E+02  0.49836995594E+02 -0.52897471567E+01  0.11636091742E+03  0.81731627928E+02 0.  0.
         25    2    1    2    0    0  0.72792360494E+02  0.63533303306E+01  0.36086298058E+02  0.14929130477E+03  0.12508629110E+03 0.  0.
        -24    2    1    2    0    0 -0.68522623473E+01 -0.56190325925E+02  0.29485001828E+03  0.31100251323E+03  0.81127823395E+02 0.  0.
        -13    1    3    3    0    0 -0.12666658618E+02  0.25853310135E+02 -0.39332457682E+02  0.48743000654E+02  0.00000000000E+00 0.  1.
         14    1    3    3    0    0 -0.53273439529E+02  0.23983685459E+02  0.34042710525E+02  0.67617916763E+02  0.00000000000E+00 0. -1.
         13    1    5    5    0    0 -0.38047001818E+02 -0.47006437577E+02  0.13571664645E+03  0.14858057627E+03  0.00000000000E+00 0. -1.
        -14    1    5    5    0    0  0.31194739470E+02 -0.91838883476E+01  0.15913337184E+03  0.16242193697E+03  0.00000000000E+00 0.  1.
          5    1    4    4  501    0  0.13888887652E+02  0.55450024596E+02 -0.12168963107E+02  0.58593194921E+02  0.41800000000E+01 0.  1.
         -5    1    4    4    0  501  0.58903472843E+02 -0.49096694266E+02  0.48255261166E+02  0.90698109853E+02  0.41800000000E+01 0.  1.
</event>
<event>
11    1  0.8039394E-009  0.1845489E+03  0.7561462E-02  0.1066022E+00
         22   -1    0    0    0    0  0.00000000000E+00  0.00000000000E+00  0.52064184570E+03  0.52064184570E+03  0.00000000000E+00 0. -1.
         22   -1    0    0    0    0 -0.00000000000E+00 -0.00000000000E+00 -0.99849262065E+03  0.99849262065E+03  0.00000000000E+00 0.  1.
        -24    2    1    2    0    0  0.32607859968E+02  0.19555761051E+02 -0.89143396989E+03  0.89582848874E+03  0.80052846541E+02 0.  0.
         25    2    1    2    0    0 -0.74220792177E+02 -0.14428269822E+03  0.27123964663E+02  0.20666191176E+03  0.12508882171E+03 0.  0.
         24    2    1    2    0    0  0.41612932208E+02  0.12472693717E+03  0.38645923028E+03  0.41664406585E+03  0.83385226255E+02 0.  0.
        -13    1    5    5    0    0 -0.83998519522E+01  0.21507197139E+02  0.14179016584E+02  0.27095415717E+02  0.00000000000E+00 0.  1.
         14    1    5    5    0    0  0.50012784161E+02  0.10321974003E+03  0.37228021369E+03  0.38954865013E+03  0.00000000000E+00 0. -1.
         13    1    3    3    0    0  0.47517007563E+02 -0.11460417712E+02 -0.36314541796E+03  0.36642025295E+03  0.00000000000E+00 0. -1.
        -14    1    3    3    0    0 -0.14909147595E+02  0.31016178763E+02 -0.52828855193E+03  0.52940823579E+03  0.00000000000E+00 0.  1.
          5    1    4    4  501    0 -0.60581479488E+02 -0.16197744217E+03  0.43831344372E+02  0.17845298142E+03  0.41800000000E+01 0. -1.
         -5    1    4    4    0  501 -0.13639312688E+02  0.17694743951E+02 -0.16707379708E+02  0.28208930338E+02  0.41800000000E+01 0. -1.
</event>
<event>
11    1  0.8039394E-009  0.1577660E+03  0.7561462E-02  0.1089197E+00
         22   -1    0    0    0    0  0.00000000000E+00  0.00000000000E+00  0.65486614891E+03  0.65486614891E+03  0.00000000000E+00 0. -1.
         22   -1    0    0    0    0 -0.00000000000E+00 -0.00000000000E+00 -0.11306873067E+03  0.11306873067E+03  0.00000000000E+00 0.  1.
        -24    2    1    2    0    0  0.21962381091E+02  0.36909461187E+02 -0.49188433748E+02  0.10554816183E+03  0.82923205097E+02 0.  0.
         25    2    1    2    0    0 -0.19626487576E+02  0.70161380805E+02  0.18437266808E+03  0.23441703477E+03  0.12510094759E+03 0.  0.
         24    2    1    2    0    0 -0.23358935151E+01 -0.10707084199E+03  0.40661318391E+03  0.42796968298E+03  0.79712901169E+02 0.  0.
        -13    1    5    5    0    0  0.22863797005E+02 -0.25048676447E+02  0.45191158046E+02  0.56501594409E+02  0.00000000000E+00 0.  1.
         14    1    5    5    0    0 -0.25199690520E+02 -0.82022165545E+02  0.36142202587E+03  0.37146808857E+03  0.00000000000E+00 0. -1.
         11    1    3    3    0    0  0.47261991700E+02  0.42970960896E+02 -0.21120024579E+02  0.67277446280E+02  0.00000000000E+00 0. -1.
        -12    1    3    3    0    0 -0.25299610608E+02 -0.60614997094E+01 -0.28068409169E+02  0.38270715553E+02  0.00000000000E+00 0.  1.
          5    1    4    4  501    0 -0.22921960154E+02  0.89374157427E+02  0.19200887275E+03  0.21306814846E+03  0.41800000000E+01 0. -1.
         -5    1    4    4    0  501  0.32954725781E+01 -0.19212776622E+02 -0.76362046744E+01  0.21348886315E+02  0.41800000000E+01 0. -1.
</event>
<event>
11    1  0.8039394E-009  0.1403516E+03  0.7561462E-02  0.1107166E+00
         22   -1    0    0    0    0  0.00000000000E+00  0.00000000000E+00  0.11861741088E+04  0.11861741088E+04  0.00000000000E+00 0. -1.
         22   -1    0    0    0    0 -0.00000000000E+00 -0.00000000000E+00 -0.23783936620E+03  0.23783936620E+03  0.00000000000E+00 0. -1.
         24    2    1    2    0    0  0.63035540974E+02  0.10295394039E+01 -0.21073023470E+03  0.23429014535E+03  0.80685196987E+02 0.  0.
         25    2    1    2    0    0 -0.86832078061E+02 -0.47221762109E+01  0.43537171437E+03  0.46125619767E+03  0.12508653599E+03 0.  0.
        -24    2    1    2    0    0  0.23796537087E+02  0.36926368071E+01  0.72369326294E+03  0.72846713199E+03  0.79702652500E+02 0.  0.
        -11    1    3    3    0    0  0.41374293954E+02 -0.29142018177E+02 -0.57391226835E+02  0.76516941531E+02  0.00000000000E+00 0.  1.
         12    1    3    3    0    0  0.21661247019E+02  0.30171557581E+02 -0.15333900787E+03  0.15777320382E+03  0.00000000000E+00 0. -1.
         13    1    5    5    0    0  0.38901540612E+02 -0.27773410768E+02  0.45913515019E+03  0.46161648405E+03  0.00000000000E+00 0. -1.
        -14    1    5    5    0    0 -0.15105003525E+02  0.31466047576E+02  0.26455811275E+03  0.26685064794E+03  0.00000000000E+00 0.  1.
          5    1    4    4  501    0 -0.24064514897E+02 -0.50744868428E+02  0.29833017915E+03  0.30359926011E+03  0.41800000000E+01 0. -1.
         -5    1    4    4    0  501 -0.62767563164E+02  0.46022692217E+02  0.13704153522E+03  0.15765693756E+03  0.41800000000E+01 0. -1.
</event>
<event>
11    1  0.8039394E-009  0.1339504E+03  0.7561462E-02  0.1114508E+00
         22   -1    0    0    0    0  0.00000000000E+00  0.00000000000E+00  0.36645831295E+03  0.36645831295E+03  0.00000000000E+00 0. -1.
         22   -1    0    0    0    0 -0.00000000000E+00 -0.00000000000E+00 -0.83063774259E+03  0.83063774259E+03  0.00000000000E+00 0. -1.
        -24    2    1    2    0    0 -0.63933277151E+01 -0.50709212304E+02 -0.63814128469E+03  0.64543653789E+03  0.82168889253E+02 0.  0.
         25    2    1    2    0    0 -0.35380222880E+02  0.29393017876E+02 -0.15845812350E+03  0.20704963421E+03  0.12507943256E+03 0.  0.
         24    2    1    2    0    0  0.41773550595E+02  0.21316194427E+02  0.33241997856E+03  0.34460988344E+03  0.77804369740E+02 0.  0.
        -13    1    5    5    0    0  0.23744254640E+02  0.29505399670E+01  0.20150325512E+02  0.31281479069E+02  0.00000000000E+00 0.  1.
         14    1    5    5    0    0  0.18029295954E+02  0.18365654460E+02  0.31226965304E+03  0.31332840438E+03  0.00000000000E+00 0. -1.
         13    1    3    3    0    0 -0.15114262471E+02 -0.14810114746E+02 -0.54243490407E+03  0.54284749753E+03  0.00000000000E+00 0. -1.
        -14    1    3    3    0    0  0.87209347558E+01 -0.35899097558E+02 -0.95706380625E+02  0.10258904035E+03  0.00000000000E+00 0.  1.
          5    1    4    4  501    0 -0.20778219459E+02  0.60724494531E+02 -0.24803254966E+02  0.68933826942E+02  0.41800000000E+01 0.  1.
         -5    1    4    4    0  501 -0.14602003420E+02 -0.31331476654E+02 -0.13365486853E+03  0.13811580726E+03  0.41800000000E+01 0.  1.
</event>
<event>
11    1  0.8039394E-009  0.1494150E+03  0.7561462E-02  0.1097478E+00
         22   -1    0    0    0    0  0.00000000000E+00  0.00000000000E+00  0.10651649738E+04  0.10651649738E+04  0.00000000000E+00 0.  1.
         22   -1    0    0    0    0 -0.00000000000E+00 -0.00000000000E+00 -0.53703948564E+03  0.53703948564E+03  0.00000000000E+00 0.  1.
        -24    2    1    2    0    0  0.88135222380E+02  0.63259519213E+02 -0.47671954371E+03  0.49532091765E+03  0.79446232881E+02 0.  0.
         25    2    1    2    0    0 -0.74249412109E+02  0.24481352153E+02  0.72173468386E+02  0.16422122084E+03  0.12508912036E+03 0.  0.
         24    2    1    2    0    0 -0.13885810271E+02 -0.87740871367E+02  0.93267156345E+03  0.94266232092E+03  0.10413803230E+03 0.  0.
        -11    1    5    5    0    0  0.27379150955E+02 -0.67930781997E+02  0.77578385596E+03  0.77923346964E+03  0.00000000000E+00 0.  1.
         12    1    5    5    0    0 -0.41264961226E+02 -0.19810089370E+02  0.15688770749E+03  0.16342885127E+03  0.00000000000E+00 0. -1.
         13    1    3    3    0    0  0.43923751335E+02  0.39651497366E+02 -0.10745678103E+03  0.12267231540E+03  0.00000000000E+00 0. -1.
        -14    1    3    3    0    0  0.44211471045E+02  0.23608021847E+02 -0.36926276267E+03  0.37264860226E+03  0.00000000000E+00 0.  1.
          5    1    4    4  501    0 -0.28964429203E+02 -0.40376293255E+02  0.68754572089E+02  0.84934367598E+02  0.41800000000E+01 0. -1.
         -5    1    4    4    0  501 -0.45284982906E+02  0.64857645408E+02  0.34188962966E+01  0.79286853239E+02  0.41800000000E+01 0. -1.
</event>
<event>
11    1  0.8039394E-009  0.1421905E+03  0.7561462E-02  0.1105137E+00
         22   -1    0    0    0    0  0.00000000000E+00  0.00000000000E+00  0.18093162360E+03  0.18093162360E+03  0.00000000000E+00 0. -1.
         22   -1    0    0    0    0 -0.00000000000E+00 -0.00000000000E+00 -0.18039516003E+04  0.18039516003E+04  0.00000000000E+00 0.  1.
         24    2    1    2    0    0  0.19650618421E+02  0.37768810626E+02 -0.11510819359E+04  0.11548847999E+04  0.83406522754E+02 0.  0.
         25    2    1    2    0    0 -0.74553732587E+02  0.19364652980E+01 -0.62624344373E+03  0.64295424430E+03  0.12508917022E+03 0.  0.
        -24    2    1    2    0    0  0.54903114166E+02 -0.39705275923E+02  0.15430540295E+03  0.18704417967E+03  0.81144974509E+02 0.  0.
        -11    1    3    3    0    0  0.49866203278E+02  0.13773618882E+02 -0.80451701590E+03  0.80617862765E+03  0.00000000000E+00 0.  1.
         12    1    3    3    0    0 -0.30215584856E+02  0.23995191743E+02 -0.34656492000E+03  0.34870617226E+03  0.00000000000E+00 0. -1.
         13    1    5    5    0    0  0.24676422511E-01 -0.35395423245E+02  0.11245690598E+03  0.11789568397E+03  0.00000000000E+00 0. -1.
        -14    1    5    5    0    0  0.54878437744E+02 -0.43098526783E+01  0.41848496968E+02  0.69148495702E+02  0.00000000000E+00 0.  1.
          5    1    4    4  501    0 -0.82511813948E+02  0.65639891026E+01 -0.62733441199E+03  0.63278528922E+03  0.41800000000E+01 0.  1.
         -5    1    4    4    0  501  0.79580813603E+01 -0.46275238047E+01  0.10909682604E+01  0.10168955071E+02  0.41800000000E+01 0.  1.
</event>
<event>
11    1  0.8039394E-009  0.1330859E+03  0.7561462E-02  0.1115534E+00
         22   -1    0    0    0    0  0.00000000000E+00  0.00000000000E+00  0.62839400812E+03  0.62839400812E+03  0.00000000000E+00 0. -1.
         22   -1    0    0    0    0 -0.00000000000E+00 -0.00000000000E+00 -0.50387186479E+03  0.50387186479E+03  0.00000000000E+00 0. -1.
        -24    2    1    2    0    0  0.89419644015E-01  0.45727072733E+02 -0.21372465567E+03  0.23389029698E+03  0.83279465658E+02 0.  0.
         25    2    1    2    0    0 -0.48212728141E+02 -0.35086039565E+02 -0.25899985393E+03  0.29374124827E+03  0.12508996471E+03 0.  0.
         24    2    1    2    0    0  0.48123308497E+02 -0.10641033169E+02  0.59724665293E+03  0.60463432767E+03  0.80312024891E+02 0.  0.
        -13    1    5    5    0    0 -0.15124220864E+02  0.92078474960E+01  0.43979411162E+02  0.47410074018E+02  0.00000000000E+00 0.  1.
         14    1    5    5    0    0  0.63247529361E+02 -0.19848880665E+02  0.55326724177E+03  0.55722425365E+03  0.00000000000E+00 0. -1.
         13    1    3    3    0    0 -0.45154953650E+01  0.50461357732E+02 -0.21940545502E+03  0.22517880010E+03  0.00000000000E+00 0. -1.
        -14    1    3    3    0    0  0.46049150090E+01 -0.47342849988E+01  0.56807993428E+01  0.87114968785E+01  0.00000000000E+00 0.  1.
          5    1    4    4  501    0 -0.36190166849E+02  0.35648441512E+02 -0.44991697217E+02  0.67987239813E+02  0.41800000000E+01 0.  1.
         -5    1    4    4    0  501 -0.12022561292E+02 -0.70734481077E+02 -0.21400815672E+03  0.22575400846E+03  0.41800000000E+01 0.  1.
</event>
<event>
11    1  0.8039394E-009  0.2162993E+03  0.7561462E-02  0.1043561E+00
         22   -1    0    0    0    0  0.00000000000E+00  0.00000000000E+00  0.53598258247E+03  0.53598258247E+03  0.00000000000E+00 0.  1.
         22   -1    0    0    0    0 -0.00000000000E+00 -0.00000000000E+00 -0.52936969615E+03  0.52936969615E+03  0.00000000000E+00 0. -1.
         24    2    1    2    0    0  0.45066324251E+02  0.16614651908E+03 -0.39814850372E+03  0.44108236249E+03  0.79973621308E+02 0.  0.
         25    2    1    2    0    0 -0.40184219973E+02 -0.20054485059E+03  0.33111817234E+02  0.24201992118E+03  0.12507694102E+03 0.  0.
        -24    2    1    2    0    0 -0.48821042773E+01  0.34398331507E+02  0.37164957280E+03  0.38224999494E+03  0.82368522576E+02 0.  0.
        -11    1    3    3    0    0  0.41370754844E+01  0.54887304609E+01 -0.97583382163E+02  0.97825140071E+02  0.00000000000E+00 0.  1.
         12    1    3    3    0    0  0.40929248766E+02  0.16065778862E+03 -0.30056512156E+03  0.34325722242E+03  0.00000000000E+00 0. -1.
         11    1    5    5    0    0 -0.65177444192E+01 -0.24296578527E+02  0.59072157481E+02  0.64205330853E+02  0.00000000000E+00 0. -1.
        -12    1    5    5    0    0  0.16356401419E+01  0.58694910034E+02  0.31257741532E+03  0.31804466408E+03  0.00000000000E+00 0.  1.
          5    1    4    4  501    0 -0.91108450046E+01 -0.18541289809E+03 -0.10781582999E+02  0.18599641181E+03  0.41800000000E+01 0. -1.
         -5    1    4    4    0  501 -0.31073374969E+02 -0.15131952503E+02  0.43893400233E+02  0.56023509373E+02  0.41800000000E+01 0. -1.
</event>
<event>
11    1  0.8039394E-009  0.2270145E+03  0.7561462E-02  0.1036910E+00
         22   -1    0    0    0    0  0.00000000000E+00  0.00000000000E+00  0.95937323961E+02  0.95937323961E+02  0.00000000000E+00 0.  1.
         22   -1    0    0    0    0 -0.00000000000E+00 -0.00000000000E+00 -0.83469843386E+03  0.83469843386E+03  0.00000000000E+00 0. -1.
        -24    2    1    2    0    0  0.13986917521E+03  0.10431640208E+03 -0.35566481735E+03  0.40388914423E+03  0.78636382197E+02 0.  0.
         25    2    1    2    0    0 -0.17571421558E+03 -0.12143758624E+03 -0.35580904575E+03  0.43344015345E+03  0.12509083368E+03 0.  0.
         24    2    1    2    0    0  0.35845040370E+02  0.17121184162E+02 -0.27287246801E+02  0.93306460153E+02  0.79896807209E+02 0.  0.
        -13    1    5    5    0    0 -0.11387653705E+02  0.59245092806E+01 -0.40920479944E+02  0.42886642979E+02  0.00000000000E+00 0.  1.
         14    1    5    5    0    0  0.47232694075E+02  0.11196674881E+02  0.13633233143E+02  0.50419817175E+02  0.00000000000E+00 0. -1.
         11    1    3    3    0    0  0.17371477468E+02  0.47280230782E+02 -0.14608311116E+03  0.15452334393E+03  0.00000000000E+00 0. -1.
        -12    1    3    3    0    0  0.12249769774E+03  0.57036171295E+02 -0.20958170619E+03  0.24936580030E+03  0.00000000000E+00 0.  1.
          5    1    4    4  501    0 -0.57794799587E+02 -0.10964463374E+03 -0.22476925112E+03  0.25671165384E+03  0.41800000000E+01 0. -1.
         -5    1    4    4    0  501 -0.11791941599E+03 -0.11792952503E+02 -0.13103979463E+03  0.17672849961E+03  0.41800000000E+01 0. -1.
</event>
<event>
11    1  0.8039394E-009  0.1525737E+03  0.7561462E-02  0.1094278E+00
         22   -1    0    0    0    0  0.00000000000E+00  0.00000000000E+00  0.81031231805E+02  0.81031231805E+02  0.00000000000E+00 0. -1.
         22   -1    0    0    0    0 -0.00000000000E+00 -0.00000000000E+00 -0.12011025542E+04  0.12011025542E+04  0.00000000000E+00 0. -1.
        -24    2    1    2    0    0  0.21991179892E+00  0.48414999601E+02 -0.89928437655E+03  0.90410014621E+03  0.79628034747E+02 0.  0.
         25    2    1    2    0    0  0.22756385008E+02 -0.12082809845E+03 -0.19192338591E+03  0.26000075300E+03  0.12509405690E+03 0.  0.
         24    2    1    2    0    0 -0.22976296807E+02  0.72413098851E+02 -0.28863559912E+02  0.11803288677E+03  0.85598423861E+02 0.  0.
        -13    1    5    5    0    0  0.10072785113E+02  0.21544275461E+02 -0.48710793397E+02  0.54206625042E+02  0.00000000000E+00 0.  1.
         14    1    5    5    0    0 -0.33049081920E+02  0.50868823389E+02  0.19847233485E+02  0.63826261725E+02  0.00000000000E+00 0. -1.
         11    1    3    3    0    0 -0.70591298349E+01  0.38703975248E+02 -0.88255931455E+03  0.88343577736E+03  0.00000000000E+00 0. -1.
        -12    1    3    3    0    0  0.72790416338E+01  0.97110243535E+01 -0.16725061998E+02  0.20664368850E+02  0.00000000000E+00 0.  1.
          5    1    4    4  501    0 -0.17678693597E+02  0.20694200670E+01 -0.98952410971E+02  0.10062738565E+03  0.41800000000E+01 0.  1.
         -5    1    4    4    0  501  0.40435078606E+02 -0.12289751852E+03 -0.92970974935E+02  0.15937336735E+03  0.41800000000E+01 0.  1.
</event>
<event>
11    1  0.8039394E-009  0.1756852E+03  0.7561462E-02  0.1073187E+00
         22   -1    0    0    0    0  0.00000000000E+00  0.00000000000E+00  0.61462130182E+02  0.61462130182E+02  0.00000000000E+00 0. -1.
         22   -1    0    0    0    0 -0.00000000000E+00 -0.00000000000E+00 -0.40640694353E+04  0.40640694353E+04  0.00000000000E+00 0.  1.
        -24    2    1    2    0    0  0.20946816980E+02 -0.63297398921E+02 -0.17235856541E+04  0.17267661582E+04  0.80799308699E+02 0.  0.
         25    2    1    2    0    0  0.62119281120E+02  0.15266792228E+03 -0.22377532770E+04  0.22472992493E+04  0.12509151677E+03 0.  0.
         24    2    1    2    0    0 -0.83066098099E+02 -0.89370523364E+02 -0.41268374023E+02  0.15146615798E+03  0.79698501985E+02 0.  0.
        -11    1    5    5    0    0 -0.91583169761E+02 -0.75395382337E+02 -0.13710466366E+02  0.11941489668E+03  0.00000000000E+00 0.  1.
         12    1    5    5    0    0  0.85170716616E+01 -0.13975141027E+02 -0.27557907657E+02  0.32051261299E+02  0.00000000000E+00 0. -1.
         13    1    3    3    0    0 -0.20330717737E+02 -0.28899387216E+02 -0.28566864996E+03  0.28784560138E+03  0.00000000000E+00 0. -1.
        -14    1    3    3    0    0  0.41277534717E+02 -0.34398011705E+02 -0.14379170041E+04  0.14389205568E+04  0.00000000000E+00 0.  1.
          5    1    4    4  501    0 -0.37967424570E+02  0.41308398216E+02 -0.52354179963E+03  0.52655616742E+03  0.41800000000E+01 0.  1.
         -5    1    4    4    0  501  0.10008670569E+03  0.11135952407E+03 -0.17142114773E+04  0.17207430818E+04  0.41800000000E+01 0.  1.
</event>
<event>
11    1  0.8039394E-009  0.1338091E+03  0.7561462E-02  0.1114675E+00
         22   -1    0    0    0    0  0.00000000000E+00  0.00000000000E+00  0.41052532617E+04  0.41052532617E+04  0.00000000000E+00 0. -1.
         22   -1    0    0    0    0 -0.00000000000E+00 -0.00000000000E+00 -0.17701678875E+03  0.17701678875E+03  0.00000000000E+00 0.  1.
        -24    2    1    2    0    0 -0.47674974434E+01 -0.88831299558E+01 -0.85226440517E+02  0.11365460587E+03  0.74512980365E+02 0.  0.
         25    2    1    2    0    0 -0.41876479089E+02 -0.28437605566E+00 -0.20525126220E+02  0.13350859546E+03  0.12509813702E+03 0.  0.
         24    2    1    2    0    0  0.46643976532E+02  0.91675060114E+01  0.40339880397E+04  0.40351068492E+04  0.82268315137E+02 0.  0.
        -11    1    5    5    0    0  0.23658237354E+02  0.18738745988E+02  0.44055392090E+03  0.44158646947E+03  0.00000000000E+00 0.  1.
         12    1    5    5    0    0  0.22985739178E+02 -0.95712399766E+01  0.35934341188E+04  0.35935203797E+04  0.00000000000E+00 0. -1.
         11    1    3    3    0    0 -0.44681728839E+01 -0.41890529934E+02 -0.49934778044E+02  0.65331945673E+02  0.00000000000E+00 0. -1.
        -12    1    3    3    0    0 -0.29932455949E+00  0.33007399979E+02 -0.35291662473E+02  0.48322660198E+02  0.00000000000E+00 0.  1.
          5    1    4    4  501    0 -0.55702851528E+02  0.47331488006E+02 -0.35743533619E+02  0.81474842870E+02  0.41800000000E+01 0. -1.
         -5    1    4    4    0  501  0.13826372439E+02 -0.47615864061E+02  0.15218407398E+02  0.52033752593E+02  0.41800000000E+01 0. -1.
</event>
<event>
11    1  0.8039394E-009  0.1273160E+03  0.7561462E-02  0.1122611E+00
         22   -1    0    0    0    0  0.00000000000E+00  0.00000000000E+00  0.13911971313E+04  0.13911971313E+04  0.00000000000E+00 0. -1.
         22   -1    0    0    0    0 -0.00000000000E+00 -0.00000000000E+00 -0.37341863511E+03  0.37341863511E+03  0.00000000000E+00 0. -1.
         24    2    1    2    0    0  0.17066424994E+02  0.85831200272E+01 -0.21117282668E+03  0.22686918354E+03  0.80689100257E+02 0.  0.
         25    2    1    2    0    0 -0.36035478494E+02  0.55085935731E+01 -0.12541034000E+03  0.18084319027E+03  0.12509039041E+03 0.  0.
        -24    2    1    2    0    0  0.18969053500E+02 -0.14091713600E+02  0.13543616629E+04  0.13569033926E+04  0.79579529899E+02 0.  0.
        -13    1    3    3    0    0  0.44124426862E+02  0.17555552206E+02 -0.83564414658E+02  0.96115419451E+02  0.00000000000E+00 0.  1.
         14    1    3    3    0    0 -0.27058001869E+02 -0.89724321786E+01 -0.12760841202E+03  0.13075376409E+03  0.00000000000E+00 0. -1.
         13    1    5    5    0    0  0.21839591792E+02 -0.29273258229E+02  0.12965024761E+04  0.12970167933E+04  0.00000000000E+00 0. -1.
        -14    1    5    5    0    0 -0.28705382917E+01  0.15181544629E+02  0.57859186754E+02  0.59886599330E+02  0.00000000000E+00 0.  1.
          5    1    4    4  501    0 -0.68182351033E+02 -0.35977295066E+02 -0.67199528522E+02  0.10235452011E+03  0.41800000000E+01 0. -1.
         -5    1    4    4    0  501  0.32146872539E+02  0.41485888639E+02 -0.58210811482E+02  0.78488670161E+02  0.41800000000E+01 0. -1.
</event>
<event>
11    1  0.9348661E-009  0.1453961E+03  0.7561462E-02  0.1101678E+00
         22   -1    0    0    0    0  0.00000000000E+00  0.00000000000E+00  0.40810906800E+03  0.40810906800E+03  0.00000000000E+00 0.  1.
         22   -1    0    0    0    0 -0.00000000000E+00 -0.00000000000E+00 -0.76108161967E+03  0.76108161967E+03  0.00000000000E+00 0.  1.
        -24    2    1    2    0    0 -0.30342339447E+02 -0.56562243084E+02 -0.45699931005E+03  0.46879066495E+03  0.82440119207E+02 0.  0.
         25    2    1    2    0    0  0.86362388586E+02  0.86047787532E+02 -0.26516405491E+03  0.31752385840E+03  0.12508693270E+03 0.  0.
         24    2    1    2    0    0 -0.56020049139E+02 -0.29485544448E+02  0.36919081329E+03  0.38287616432E+03  0.79275830787E+02 0.  0.
        -13    1    5    5    0    0 -0.26853853786E+02 -0.50945137310E+02  0.29185945603E+03  0.29748693845E+03  0.00000000000E+00 0.  1.
         14    1    5    5    0    0 -0.29166195352E+02  0.21459592862E+02  0.77331357264E+02  0.85389225862E+02  0.00000000000E+00 0. -1.
         13    1    3    3    0    0  0.16488515416E+02 -0.13284097449E+02 -0.28138970452E+02  0.35215622155E+02  0.00000000000E+00 0. -1.
        -14    1    3    3    0    0 -0.46830854864E+02 -0.43278145635E+02 -0.42886033960E+03  0.43357504280E+03  0.00000000000E+00 0.  1.
          5    1    4    4  501    0  0.68244206884E+02  0.64012240912E+02 -0.61996006331E+02  0.11232014940E+03  0.41800000000E+01 0. -1.
         -5    1    4    4    0  501  0.18118181702E+02  0.22035546620E+02 -0.20316804858E+03  0.20520370900E+03  0.41800000000E+01 0. -1.
</event>
<event>
11    1  0.8039394E-009  0.1474318E+03  0.7561462E-02  0.1099532E+00
         22   -1    0    0    0    0  0.00000000000E+00  0.00000000000E+00  0.47476840230E+03  0.47476840230E+03  0.00000000000E+00 0.  1.
         22   -1    0    0    0    0 -0.00000000000E+00 -0.00000000000E+00 -0.89414880965E+03  0.89414880965E+03  0.00000000000E+00 0. -1.
         24    2    1    2    0    0 -0.62487532801E+02 -0.47694287288E+02 -0.86191937998E+03  0.86922033175E+03  0.80371205998E+02 0.  0.
         25    2    1    2    0    0  0.10362397492E+02  0.50909518050E+02  0.23946468155E+03  0.27510995622E+03  0.12507196327E+03 0.  0.
        -24    2    1    2    0    0  0.52125135309E+02 -0.32152307618E+01  0.20307429108E+03  0.22458692397E+03  0.80453410618E+02 0.  0.
        -13    1    3    3    0    0  0.66562863114E+01 -0.28940196626E+02 -0.11142473871E+03  0.11531397801E+03  0.00000000000E+00 0.  1.
         14    1    3    3    0    0 -0.69143819113E+02 -0.18754090662E+02 -0.75049464127E+03  0.75390635374E+03  0.00000000000E+00 0. -1.
         11    1    5    5    0    0  0.28412766663E+02  0.31256627356E+02  0.15594732163E+03  0.16156679482E+03  0.00000000000E+00 0. -1.
        -12    1    5    5    0    0  0.23712368647E+02 -0.34471858118E+02  0.47126969447E+02  0.63020129151E+02  0.00000000000E+00 0.  1.
          5    1    4    4  501    0  0.14067004376E+02  0.45990632523E+02  0.15042636753E+02  0.50564535125E+02  0.41800000000E+01 0.  1.
         -5    1    4    4    0  501 -0.37046068840E+01  0.49188855269E+01  0.22442204479E+03  0.22454542110E+03  0.41800000000E+01 0.  1.
</event>
<event>
11    1  0.8039394E-009  0.1851785E+03  0.7561462E-02  0.1065529E+00
         22   -1    0    0    0    0  0.00000000000E+00  0.00000000000E+00  0.26370571045E+04  0.26370571045E+04  0.00000000000E+00 0. -1.
         22   -1    0    0    0    0 -0.00000000000E+00 -0.00000000000E+00 -0.13367389718E+04  0.13367389718E+04  0.00000000000E+00 0. -1.
        -24    2    1    2    0    0 -0.25067906403E+02  0.13347456862E+03 -0.12568429146E+04  0.12668891069E+04  0.83126631621E+02 0.  0.
         25    2    1    2    0    0 -0.22337442808E+02 -0.16311475469E+03  0.70730931322E+02  0.21855467255E+03  0.12513151361E+03 0.  0.
         24    2    1    2    0    0  0.47405349211E+02  0.29640186070E+02  0.24864301160E+04  0.24883522968E+04  0.80228571164E+02 0.  0.
        -13    1    5    5    0    0  0.64044620916E+01  0.32475214123E+02  0.35838694456E+03  0.35991229306E+03  0.00000000000E+00 0.  1.
         14    1    5    5    0    0  0.41000887120E+02 -0.28350280526E+01  0.21280431715E+04  0.21284400038E+04  0.00000000000E+00 0. -1.
         11    1    3    3    0    0  0.59429515805E+01  0.12160558793E+03 -0.84734589476E+03  0.85604807287E+03  0.00000000000E+00 0. -1.
        -12    1    3    3    0    0 -0.31010857983E+02  0.11868980685E+02 -0.40949701985E+03  0.41084103408E+03  0.00000000000E+00 0.  1.
          5    1    4    4  501    0 -0.29476105147E+02  0.10988389600E+02  0.42973478195E+01  0.32023820492E+02  0.41800000000E+01 0.  1.
         -5    1    4    4    0  501  0.71386623385E+01 -0.17410314429E+03  0.66433583502E+02  0.18653085205E+03  0.41800000000E+01 0.  1.
</event>
<event>
11    1  0.8039394E-009  0.1300256E+03  0.7561462E-02  0.1119238E+00
         22   -1    0    0    0    0  0.00000000000E+00  0.00000000000E+00  0.21465912157E+03  0.21465912157E+03  0.00000000000E+00 0. -1.
         22   -1    0    0    0    0 -0.00000000000E+00 -0.00000000000E+00 -0.10489728525E+04  0.10489728525E+04  0.00000000000E+00 0. -1.
        -24    2    1    2    0    0  0.34400246336E+02 -0.14671458076E+02 -0.81541459242E+03  0.82003926172E+03  0.78516269687E+02 0.  0.
         25    2    1    2    0    0 -0.21104391786E+02  0.32825596603E+01 -0.20433684542E+03  0.24053130959E+03  0.12508234866E+03 0.  0.
         24    2    1    2    0    0 -0.13295854550E+02  0.11388898415E+02  0.18543770689E+03  0.20306140279E+03  0.80872142353E+02 0.  0.
        -11    1    5    5    0    0 -0.30623678996E+02  0.32671397730E+01  0.20452608083E+02  0.36970164930E+02  0.00000000000E+00 0.  1.
         12    1    5    5    0    0  0.17327824446E+02  0.81217586423E+01  0.16498509881E+03  0.16609123786E+03  0.00000000000E+00 0. -1.
         13    1    3    3    0    0  0.58439776556E+02 -0.47821063725E+01 -0.64415566826E+03  0.64681883165E+03  0.00000000000E+00 0. -1.
        -14    1    3    3    0    0 -0.24039530220E+02 -0.98893517031E+01 -0.17125892416E+03  0.17322043007E+03  0.00000000000E+00 0.  1.
          5    1    4    4  501    0 -0.47066229338E+02  0.49204267736E+02 -0.78377905146E+02  0.10390793195E+03  0.41800000000E+01 0.  1.
         -5    1    4    4    0  501  0.25961837551E+02 -0.45921708076E+02 -0.12595894027E+03  0.13662337763E+03  0.41800000000E+01 0.  1.
</event>
<event>
11    1  0.8039394E-009  0.1319836E+03  0.7561462E-02  0.1116856E+00
         22   -1    0    0    0    0  0.00000000000E+00  0.00000000000E+00  0.10825769468E+03  0.10825769468E+03  0.00000000000E+00 0.  1.
         22   -1    0    0    0    0 -0.00000000000E+00 -0.00000000000E+00 -0.10619158373E+04  0.10619158373E+04  0.00000000000E+00 0. -1.
         24    2    1    2    0    0 -0.40817696955E+02 -0.85423220201E+01 -0.85748138697E+03  0.86231526057E+03  0.81081588372E+02 0.  0.
         25    2    1    2    0    0  0.53842761520E+02 -0.31128924746E+02 -0.14778877079E+03  0.20334244235E+03  0.12505428887E+03 0.  0.
        -24    2    1    2    0    0 -0.13025064565E+02  0.39671246766E+02  0.51612015087E+02  0.10451582910E+03  0.80723591990E+02 0.  0.
        -13    1    3    3    0    0  0.24918899838E+01  0.30777485804E+02 -0.38275669334E+03  0.38400019459E+03  0.00000000000E+00 0.  1.
         14    1    3    3    0    0 -0.43309586939E+02 -0.39319807824E+02 -0.47472469363E+03  0.47831506599E+03  0.00000000000E+00 0. -1.
         13    1    5    5    0    0 -0.33587629714E+02  0.19766349546E+02 -0.67145968448E+01  0.39546469564E+02  0.00000000000E+00 0. -1.
        -14    1    5    5    0    0  0.20562565148E+02  0.19904897220E+02  0.58326611932E+02  0.64969359535E+02  0.00000000000E+00 0.  1.
          5    1    4    4  501    0  0.63286380315E+02  0.30593569123E+00 -0.13249449976E+02  0.64794134416E+02  0.41800000000E+01 0. -1.
         -5    1    4    4    0  501 -0.94436187949E+01 -0.31434860438E+02 -0.13453932081E+03  0.13854830793E+03  0.41800000000E+01 0. -1.
</event>
<event>
11    1  0.8039394E-009  0.1291541E+03  0.7561462E-02  0.1120313E+00
         22   -1    0    0    0    0  0.00000000000E+00  0.00000000000E+00  0.73950881393E+03  0.73950881393E+03  0.00000000000E+00 0. -1.
         22   -1    0    0    0    0 -0.00000000000E+00 -0.00000000000E+00 -0.13354059141E+03  0.13354059141E+03  0.00000000000E+00 0. -1.
         24    2    1    2    0    0 -0.14441773801E+02  0.25818556084E+02 -0.73266488382E+02  0.11132836181E+03  0.78427438794E+02 0.  0.
         25    2    1    2    0    0  0.43455753603E+02 -0.12805215403E+02  0.80535350927E+02  0.15551715772E+03  0.12508903843E+03 0.  0.
        -24    2    1    2    0    0 -0.29013979802E+02 -0.13013340681E+02  0.59869935997E+03  0.60620388580E+03  0.89616234418E+02 0.  0.
        -13    1    3    3    0    0  0.52030036585E+01 -0.24689836901E+02 -0.79469154809E+01  0.26453974351E+02  0.00000000000E+00 0.  1.
         14    1    3    3    0    0 -0.19644777460E+02  0.50508392986E+02 -0.65319572901E+02  0.84874387464E+02  0.00000000000E+00 0. -1.
         11    1    5    5    0    0 -0.34239539770E+02  0.18048963195E+01  0.58294805177E+03  0.58395550755E+03  0.00000000000E+00 0. -1.
        -12    1    5    5    0    0  0.52255599676E+01 -0.14818237001E+02  0.15751308199E+02  0.22248378250E+02  0.00000000000E+00 0.  1.
          5    1    4    4  501    0 -0.26025957567E+02  0.16725544224E+02  0.73164487012E+02  0.79546268653E+02  0.41800000000E+01 0. -1.
         -5    1    4    4    0  501  0.69481711170E+02 -0.29530759627E+02  0.73708639152E+01  0.75970889071E+02  0.41800000000E+01 0. -1.
</event>
<event>
11    1  0.8039394E-009  0.2000581E+03  0.7561462E-02  0.1054483E+00
         22   -1    0    0    0    0  0.00000000000E+00  0.00000000000E+00  0.48994315832E+04  0.48994315832E+04  0.00000000000E+00 0. -1.
         22   -1    0    0    0    0 -0.00000000000E+00 -0.00000000000E+00 -0.10976534464E+04  0.10976534464E+04  0.00000000000E+00 0. -1.
         24    2    1    2    0    0 -0.85271180987E+02  0.81131555636E+02 -0.10674947721E+04  0.10769451163E+04  0.80076160779E+02 0.  0.
         25    2    1    2    0    0  0.78840491191E+02  0.80449481507E+02  0.27495969746E+03  0.32239976478E+03  0.12510328124E+03 0.  0.
        -24    2    1    2    0    0  0.64306897960E+01 -0.16158103714E+03  0.45943132115E+04  0.45977401485E+04  0.73149183135E+02 0.  0.
        -13    1    3    3    0    0  0.15439084901E+02  0.63161695910E+01 -0.10732094740E+03  0.10860959944E+03  0.00000000000E+00 0.  1.
         14    1    3    3    0    0 -0.10071026589E+03  0.74815386045E+02 -0.96017382465E+03  0.96833551685E+03  0.00000000000E+00 0. -1.
         11    1    5    5    0    0 -0.21520683467E+02 -0.14013548040E+03  0.35380543979E+04  0.35408939571E+04  0.00000000000E+00 0. -1.
        -12    1    5    5    0    0  0.27951373263E+02 -0.21445556741E+02  0.10562588135E+04  0.10568461914E+04  0.00000000000E+00 0.  1.
          5    1    4    4  501    0  0.80279942172E+02  0.10983480789E+03  0.24458375028E+03  0.27990576529E+03  0.41800000000E+01 0.  1.
         -5    1    4    4    0  501 -0.14394509813E+01 -0.29385326385E+02  0.30375947177E+02  0.42493999491E+02  0.41800000000E+01 0.  1.
</event>
<event>
11    1  0.8039394E-009  0.1648306E+03  0.7561462E-02  0.1082620E+00
         22   -1    0    0    0    0  0.00000000000E+00  0.00000000000E+00  0.77691055469E+02  0.77691055469E+02  0.00000000000E+00 0. -1.
         22   -1    0    0    0    0 -0.00000000000E+00 -0.00000000000E+00 -0.90225653882E+03  0.90225653882E+03  0.00000000000E+00 0.  1.
         24    2    1    2    0    0 -0.10333204566E+03 -0.32367581336E+02 -0.44466992538E+03  0.46447309953E+03  0.79238536549E+02 0.  0.
         25    2    1    2    0    0  0.10705666912E+03  0.88010043403E+01 -0.39549267135E+03  0.42848618928E+03  0.12508946089E+03 0.  0.
        -24    2    1    2    0    0 -0.37246234616E+01  0.23566576995E+02  0.15597113376E+02  0.86988305478E+02  0.82185393916E+02 0.  0.
        -13    1    3    3    0    0 -0.10240368562E+03 -0.51624730504E+02 -0.37083908526E+03  0.38816652971E+03  0.00000000000E+00 0.  1.
         14    1    3    3    0    0 -0.92836004097E+00  0.19257149169E+02 -0.73830840116E+02  0.76306569826E+02  0.00000000000E+00 0. -1.
         13    1    5    5    0    0 -0.14920105119E+02 -0.14309083251E+02  0.36764469572E+02  0.42178022987E+02  0.00000000000E+00 0. -1.
        -14    1    5    5    0    0  0.11195481657E+02  0.37875660246E+02 -0.21167356195E+02  0.44810282491E+02  0.00000000000E+00 0.  1.
          5    1    4    4  501    0  0.40566612631E+01  0.52273175116E+02 -0.11276046735E+03  0.12442401993E+03  0.41800000000E+01 0.  1.
         -5    1    4    4    0  501  0.10300000786E+03 -0.43472170776E+02 -0.28273220400E+03  0.30406216935E+03  0.41800000000E+01 0.  1.
</event>
<event>
11    1  0.8039394E-009  0.1995750E+03  0.7561462E-02  0.1054825E+00
         22   -1    0    0    0    0  0.00000000000E+00  0.00000000000E+00  0.32022700039E+03  0.32022700039E+03  0.00000000000E+00 0.  1.
         22   -1    0    0    0    0 -0.00000000000E+00 -0.00000000000E+00 -0.20685757142E+04  0.20685757142E+04  0.00000000000E+00 0. -1.
        -24    2    1    2    0    0  0.27443272924E+02 -0.29670581158E+02 -0.15266682581E+04  0.15285066964E+04  0.63113182940E+02 0.  0.
         25    2    1    2    0    0 -0.11208989949E+03  0.15786626939E+03 -0.48962802476E+03  0.54117401417E+03  0.12509119234E+03 0.  0.
         24    2    1    2    0    0  0.84646626568E+02 -0.12819568823E+03  0.26794756909E+03  0.31912200405E+03  0.80273082790E+02 0.  0.
        -11    1    5    5    0    0  0.83099060654E+02 -0.12342577086E+03  0.27367576284E+03  0.31150890510E+03  0.00000000000E+00 0.  1.
         12    1    5    5    0    0  0.15475659141E+01 -0.47699173699E+01 -0.57281937501E+01  0.76130989494E+01  0.00000000000E+00 0. -1.
         11    1    3    3    0    0  0.12995503635E+02 -0.48661449163E+02 -0.93212047952E+03  0.93348026658E+03  0.00000000000E+00 0. -1.
        -12    1    3    3    0    0  0.14447769289E+02  0.18990868006E+02 -0.59454777860E+03  0.59502642979E+03  0.00000000000E+00 0.  1.
          5    1    4    4  501    0 -0.35157449193E+02  0.85289815325E+02 -0.37041480270E+03  0.38175253410E+03  0.41800000000E+01 0. -1.
         -5    1    4    4    0  501 -0.76932450299E+02  0.72576454061E+02 -0.11921322206E+03  0.15942148007E+03  0.41800000000E+01 0. -1.
</event>
<event>
11    1  0.8039394E-009  0.1565440E+03  0.7561462E-02  0.1090374E+00
         22   -1    0    0    0    0  0.00000000000E+00  0.00000000000E+00  0.23121857096E+04  0.23121857096E+04  0.00000000000E+00 0. -1.
         22   -1    0    0    0    0 -0.00000000000E+00 -0.00000000000E+00 -0.64306393719E+02  0.64306393719E+02  0.00000000000E+00 0. -1.
         24    2    1    2    0    0  0.70501566989E+02  0.61974927076E+02  0.24845788007E+02  0.12721674447E+03  0.82191388585E+02 0.  0.
         25    2    1    2    0    0 -0.10202031157E+03 -0.27211325728E+02  0.55465428717E+03  0.57830596330E+03  0.12509120151E+03 0.  0.
        -24    2    1    2    0    0  0.31518744576E+02 -0.34763601349E+02  0.16683792407E+04  0.16709693955E+04  0.80296268913E+02 0.  0.
        -13    1    3    3    0    0  0.11126097531E+02  0.38366153800E+02 -0.24165673035E+02  0.46687595321E+02  0.00000000000E+00 0.  1.
         14    1    3    3    0    0  0.59375469458E+02  0.23608773276E+02  0.49011461042E+02  0.80529149148E+02  0.00000000000E+00 0. -1.
         11    1    5    5    0    0  0.57564366193E+02 -0.13172465494E+02  0.11007603388E+04  0.11023431832E+04  0.00000000000E+00 0. -1.
        -12    1    5    5    0    0 -0.26045621617E+02 -0.21591135854E+02  0.56761890194E+03  0.56862621237E+03  0.00000000000E+00 0.  1.
          5    1    4    4  501    0 -0.55848609906E+02  0.13831545810E+02  0.74738314476E+02  0.94412218163E+02  0.41800000000E+01 0.  1.
         -5    1    4    4    0  501 -0.46171701660E+02 -0.41042871537E+02  0.47991597269E+03  0.48389374514E+03  0.41800000000E+01 0.  1.
</event>
<event>
11    1  0.8039394E-009  0.1400869E+03  0.7561462E-02  0.1107461E+00
         22   -1    0    0    0    0  0.00000000000E+00  0.00000000000E+00  0.18967036988E+04  0.18967036988E+04  0.00000000000E+00 0.  1.
         22   -1    0    0    0    0 -0.00000000000E+00 -0.00000000000E+00 -0.15209093313E+03  0.15209093313E+03  0.00000000000E+00 0.  1.
         24    2    1    2    0    0  0.33815988530E+02  0.51784095864E+02 -0.97125048577E+02  0.14038621653E+03  0.80311276074E+02 0.  0.
         25    2    1    2    0    0 -0.92574361815E+02 -0.31936416032E+02  0.17005400297E+03  0.23271665120E+03  0.12509487872E+03 0.  0.
        -24    2    1    2    0    0  0.58758373285E+02 -0.19847679831E+02  0.16716838113E+04  0.16756917642E+04  0.97824572421E+02 0.  0.
        -11    1    3    3    0    0  0.11158741969E+02  0.36265602210E+02 -0.10514092819E+03  0.11177802202E+03  0.00000000000E+00 0.  1.
         12    1    3    3    0    0  0.22657246561E+02  0.15518493653E+02  0.80158796120E+01  0.28608194507E+02  0.00000000000E+00 0. -1.
         11    1    5    5    0    0  0.72198207074E+02  0.18938286390E+02  0.10387263763E+04  0.10414046882E+04  0.00000000000E+00 0. -1.
        -12    1    5    5    0    0 -0.13439833789E+02 -0.38785966221E+02  0.63295743501E+03  0.63428707605E+03  0.00000000000E+00 0.  1.
          5    1    4    4  501    0 -0.12311531601E+03 -0.29468185422E+02  0.14762012310E+03  0.19451202567E+03  0.41800000000E+01 0.  1.
         -5    1    4    4    0  501  0.30540954191E+02 -0.24682306099E+01  0.22433879877E+02  0.38204625525E+02  0.41800000000E+01 0.  1.
</event>
<event>
11    1  0.8039394E-009  0.1371580E+03  0.7561462E-02  0.1110774E+00
         22   -1    0    0    0    0  0.00000000000E+00  0.00000000000E+00  0.97080938793E+02  0.97080938793E+02  0.00000000000E+00 0. -1.
         22   -1    0    0    0    0 -0.00000000000E+00 -0.00000000000E+00 -0.13445076175E+04  0.13445076175E+04  0.00000000000E+00 0.  1.
         24    2    1    2    0    0 -0.31546122464E+01  0.11315477827E+01 -0.10013645632E+04  0.10049830484E+04  0.85139339492E+02 0.  0.
         25    2    1    2    0    0  0.58775043200E+02  0.53156386556E+01 -0.29556529159E+03  0.32632606643E+03  0.12508836204E+03 0.  0.
        -24    2    1    2    0    0 -0.55620430953E+02 -0.64471864384E+01  0.49503176102E+02  0.11027944146E+03  0.81091258549E+02 0.  0.
        -13    1    3    3    0    0  0.17221086207E+02  0.26300584699E+02 -0.82942709611E+03  0.83002264688E+03  0.00000000000E+00 0.  1.
         14    1    3    3    0    0 -0.20375698454E+02 -0.25169036917E+02 -0.17193746710E+03  0.17496040152E+03  0.00000000000E+00 0. -1.
         11    1    5    5    0    0 -0.51474171764E+02 -0.14672961100E+02  0.69817764769E+02  0.87973896262E+02  0.00000000000E+00 0. -1.
        -12    1    5    5    0    0 -0.41462591896E+01  0.82257746613E+01 -0.20314588667E+02  0.22305545202E+02  0.00000000000E+00 0.  1.
          5    1    4    4  501    0 -0.19444912018E+02 -0.42120141749E+02 -0.92438097597E+02  0.10351079766E+03  0.41800000000E+01 0. -1.
         -5    1    4    4    0  501  0.78219955218E+02  0.47435780404E+02 -0.20312719399E+03  0.22281526877E+03  0.41800000000E+01 0. -1.
</event>
<event>
11    1  0.8039394E-009  0.1327706E+03  0.7561462E-02  0.1115911E+00
         22   -1    0    0    0    0  0.00000000000E+00  0.00000000000E+00  0.60469532238E+02  0.60469532238E+02  0.00000000000E+00 0.  1.
         22   -1    0    0    0    0 -0.00000000000E+00 -0.00000000000E+00 -0.23832804283E+04  0.23832804283E+04  0.00000000000E+00 0.  1.
         24    2    1    2    0    0  0.14996553801E+02 -0.45226772262E+02 -0.15746447152E+04  0.15773986257E+04  0.80063023900E+02 0.  0.
         25    2    1    2    0    0  0.73130590611E+01  0.35413797092E+02 -0.76776736112E+03  0.77873013762E+03  0.12508512536E+03 0.  0.
        -24    2    1    2    0    0 -0.22309612862E+02  0.98129751702E+01  0.19601180249E+02  0.87621197192E+02  0.81848974474E+02 0.  0.
        -11    1    3    3    0    0  0.30839350265E+02 -0.13627036303E+02 -0.13063797897E+04  0.13068147981E+04  0.00000000000E+00 0.  1.
         12    1    3    3    0    0 -0.15842796464E+02 -0.31599735959E+02 -0.26826492553E+03  0.27058382764E+03  0.00000000000E+00 0. -1.
         11    1    5    5    0    0  0.96093201273E+01 -0.93722197214E+00 -0.27824868731E+02  0.29452346906E+02  0.00000000000E+00 0. -1.
        -12    1    5    5    0    0 -0.31918932990E+02  0.10750197142E+02  0.47426048980E+02  0.58168850287E+02  0.00000000000E+00 0.  1.
          5    1    4    4  501    0  0.56338691988E+02  0.23663485909E+02 -0.60961705669E+03  0.61268624678E+03  0.41800000000E+01 0. -1.
         -5    1    4    4    0  501 -0.49025632927E+02  0.11750311183E+02 -0.15815030443E+03  0.16604389085E+03  0.41800000000E+01 0. -1.
</event>
<event>
11    1  0.8039394E-009  0.1432502E+03  0.7561462E-02  0.1103982E+00
         22   -1    0    0    0    0  0.00000000000E+00  0.00000000000E+00  0.20691687367E+04  0.20691687367E+04  0.00000000000E+00 0. -1.
         22   -1    0    0    0    0 -0.00000000000E+00 -0.00000000000E+00 -0.92002935718E+03  0.92002935718E+03  0.00000000000E+00 0.  1.
        -24    2    1    2    0    0 -0.68128599567E+02 -0.21359588310E+02 -0.85370736528E+03  0.86047668380E+03  0.80660521572E+02 0.  0.
         25    2    1    2    0    0  0.33716222210E+02  0.17215704201E+02  0.69055582336E+01  0.13087771175E+03  0.12509246415E+03 0.  0.
         24    2    1    2    0    0  0.34412377357E+02  0.41438841086E+01  0.19959411866E+04  0.19978436983E+04  0.79980242804E+02 0.  0.
        -11    1    5    5    0    0 -0.19834848455E+01  0.90375483324E+00  0.73105694358E+00  0.22990061300E+01  0.00000000000E+00 0.  1.
         12    1    5    5    0    0  0.36395862202E+02  0.32401292754E+01  0.19952101296E+04  0.19955446922E+04  0.00000000000E+00 0. -1.
         13    1    3    3    0    0 -0.10666202190E+02 -0.20523327968E+02 -0.54488891745E+02  0.59194714153E+02  0.00000000000E+00 0. -1.
        -14    1    3    3    0    0 -0.57462397377E+02 -0.83626034171E+00 -0.79921847354E+03  0.80128196965E+03  0.00000000000E+00 0.  1.
          5    1    4    4  501    0 -0.21201936982E+02  0.40479968286E+02  0.41441951110E+02  0.61830879632E+02  0.41800000000E+01 0. -1.
         -5    1    4    4    0  501  0.54918159192E+02 -0.23264264085E+02 -0.34536392876E+02  0.69046832117E+02  0.41800000000E+01 0. -1.
</event>
<event>
11    1  0.8039394E-009  0.1373415E+03  0.7561462E-02  0.1110564E+00
         22   -1    0    0    0    0  0.00000000000E+00  0.00000000000E+00  0.54130907822E+03  0.54130907822E+03  0.00000000000E+00 0.  1.
         22   -1    0    0    0    0 -0.00000000000E+00 -0.00000000000E+00 -0.32206803615E+03  0.32206803615E+03  0.00000000000E+00 0.  1.
        -24    2    1    2    0    0  0.28202870846E+01  0.37828866167E+02 -0.26524978855E+03  0.27938651764E+03  0.79122681795E+02 0.  0.
         25    2    1    2    0    0  0.34269821130E+02 -0.77059083359E+02  0.82953003286E+02  0.17216598736E+03  0.12508958182E+03 0.  0.
         24    2    1    2    0    0 -0.37090108214E+02  0.39230217192E+02  0.40153782733E+03  0.41182460938E+03  0.73838987288E+02 0.  0.
        -11    1    5    5    0    0 -0.39833699556E+02  0.28075148479E+02  0.39615017232E+03  0.39913643859E+03  0.00000000000E+00 0.  1.
         12    1    5    5    0    0  0.27435913412E+01  0.11155068713E+02  0.53876550144E+01  0.12688170790E+02  0.00000000000E+00 0. -1.
         13    1    3    3    0    0 -0.23837676986E+01  0.62238815481E+02 -0.20223706895E+03  0.21161092732E+03  0.00000000000E+00 0. -1.
        -14    1    3    3    0    0  0.52040547832E+01 -0.24409949315E+02 -0.63012719598E+02  0.67775590317E+02  0.00000000000E+00 0.  1.
          5    1    4    4  501    0  0.56984845920E+02  0.75989741935E+01  0.10988965963E+02  0.58679185800E+02  0.41800000000E+01 0.  1.
         -5    1    4    4    0  501 -0.22715024790E+02 -0.84658057552E+02  0.71964037323E+02  0.11348680156E+03  0.41800000000E+01 0.  1.
</event>
<event>
11    1  0.8039394E-009  0.1374386E+03  0.7561462E-02  0.1110453E+00
         22   -1    0    0    0    0  0.00000000000E+00  0.00000000000E+00  0.10840875129E+03  0.10840875129E+03  0.00000000000E+00 0. -1.
         22   -1    0    0    0    0 -0.00000000000E+00 -0.00000000000E+00 -0.65819399357E+03  0.65819399357E+03  0.00000000000E+00 0.  1.
         24    2    1    2    0    0  0.67738471209E+01  0.56380202768E+02 -0.53579185574E+03  0.54484478111E+03  0.80983396739E+02 0.  0.
         25    2    1    2    0    0  0.94304713680E+01 -0.60402214269E+02 -0.11859993893E+02  0.13973577901E+03  0.12509223478E+03 0.  0.
        -24    2    1    2    0    0 -0.16204318489E+02  0.40220115012E+01 -0.21333926491E+01  0.82022184744E+02  0.80276590061E+02 0.  0.
        -11    1    3    3    0    0  0.15869124742E+02  0.62179362115E+02 -0.52709966912E+03  0.53099167920E+03  0.00000000000E+00 0.  1.
         12    1    3    3    0    0 -0.90952776216E+01 -0.57991593476E+01 -0.86921866293E+01  0.13853101911E+02  0.00000000000E+00 0. -1.
         11    1    5    5    0    0  0.15816942169E+02 -0.20587473205E+02  0.22806490950E+02  0.34556558596E+02  0.00000000000E+00 0. -1.
        -12    1    5    5    0    0 -0.32021260658E+02  0.24609484707E+02 -0.24939883599E+02  0.47465626148E+02  0.00000000000E+00 0.  1.
          5    1    4    4  501    0 -0.47933244332E+01  0.31805796745E+02 -0.30475531921E+02  0.44506349115E+02  0.41800000000E+01 0. -1.
         -5    1    4    4    0  501  0.14223795801E+02 -0.92208011014E+02  0.18615538027E+02  0.95229429895E+02  0.41800000000E+01 0. -1.
</event>
<event>
11    1  0.8039394E-009  0.2721057E+03  0.7561462E-02  0.1012741E+00
         22   -1    0    0    0    0  0.00000000000E+00  0.00000000000E+00  0.17334026454E+03  0.17334026454E+03  0.00000000000E+00 0.  1.
         22   -1    0    0    0    0 -0.00000000000E+00 -0.00000000000E+00 -0.99465562382E+03  0.99465562382E+03  0.00000000000E+00 0.  1.
         24    2    1    2    0    0 -0.23385322118E+03  0.25282455559E+02 -0.58222071174E+03  0.63309941672E+03  0.80668349729E+02 0.  0.
         25    2    1    2    0    0  0.24619439046E+03 -0.87039359181E+02 -0.30118811299E+03  0.41779017220E+03  0.12508725212E+03 0.  0.
        -24    2    1    2    0    0 -0.12341169275E+02  0.61756903622E+02  0.62093465447E+02  0.11710629944E+03  0.76759802712E+02 0.  0.
        -13    1    3    3    0    0 -0.16208944214E+03 -0.19811977056E+02 -0.40390121990E+03  0.43566236598E+03  0.00000000000E+00 0.  1.
         14    1    3    3    0    0 -0.71763779044E+02  0.45094432615E+02 -0.17831949184E+03  0.19743705074E+03  0.00000000000E+00 0. -1.
         13    1    5    5    0    0  0.18103014759E+02  0.32934671093E+02  0.64999562360E+02  0.75082320225E+02  0.00000000000E+00 0. -1.
        -14    1    5    5    0    0 -0.30444184035E+02  0.28822232529E+02 -0.29060969132E+01  0.42023979211E+02  0.00000000000E+00 0.  1.
          5    1    4    4  501    0  0.22593267371E+03 -0.36249320752E+02 -0.27263925415E+03  0.35596238791E+03  0.41800000000E+01 0.  1.
         -5    1    4    4    0  501  0.20261716749E+02 -0.50790038430E+02 -0.28548858837E+02  0.61827784290E+02  0.41800000000E+01 0.  1.
</event>
<event>
11    1  0.8039394E-009  0.2811246E+03  0.7561462E-02  0.1008512E+00
         22   -1    0    0    0    0  0.00000000000E+00  0.00000000000E+00  0.33876334949E+04  0.33876334949E+04  0.00000000000E+00 0.  1.
         22   -1    0    0    0    0 -0.00000000000E+00 -0.00000000000E+00 -0.49419531375E+03  0.49419531375E+03  0.00000000000E+00 0.  1.
        -24    2    1    2    0    0 -0.24472793887E+03 -0.50360572277E+02 -0.31532355516E+03  0.41160878465E+03  0.86976409765E+02 0.  0.
         25    2    1    2    0    0  0.24955443436E+03  0.66896205322E+02  0.28065974715E+02  0.28842260981E+03  0.12508950763E+03 0.  0.
         24    2    1    2    0    0 -0.48264954896E+01 -0.16535633045E+02  0.31806957616E+04  0.31817974141E+04  0.81930061091E+02 0.  0.
        -11    1    5    5    0    0  0.38487414282E+02 -0.11173948631E+02  0.15256003870E+04  0.15261266917E+04  0.00000000000E+00 0.  1.
         12    1    5    5    0    0 -0.43313909771E+02 -0.53616844144E+01  0.16550953745E+04  0.16556707225E+04  0.00000000000E+00 0. -1.
         13    1    3    3    0    0 -0.40622082026E+01  0.58987149301E+00  0.57896736560E+01  0.70971687949E+01  0.00000000000E+00 0. -1.
        -14    1    3    3    0    0 -0.24066573067E+03 -0.50950443770E+02 -0.32111322882E+03  0.40451161585E+03  0.00000000000E+00 0.  1.
          5    1    4    4  501    0  0.32665655574E+02  0.23339214947E+02 -0.40104694350E+02  0.56900113509E+02  0.41800000000E+01 0. -1.
         -5    1    4    4    0  501  0.21688877879E+03  0.43556990375E+02  0.68170669065E+02  0.23152249630E+03  0.41800000000E+01 0. -1.
</event>
<event>
11    1  0.8039394E-009  0.1743791E+03  0.7561462E-02  0.1074282E+00
         22   -1    0    0    0    0  0.00000000000E+00  0.00000000000E+00  0.69491129785E+03  0.69491129785E+03  0.00000000000E+00 0.  1.
         22   -1    0    0    0    0 -0.00000000000E+00 -0.00000000000E+00 -0.41108990464E+04  0.41108990464E+04  0.00000000000E+00 0.  1.
         24    2    1    2    0    0 -0.11462261516E+03  0.14953164033E+02 -0.32927779661E+04  0.32957703056E+04  0.79707165640E+02 0.  0.
         25    2    1    2    0    0  0.17643538371E+03 -0.38152123685E+02 -0.79780367670E+03  0.82748039392E+03  0.12509223238E+03 0.  0.
        -24    2    1    2    0    0 -0.61812768549E+02  0.23198959651E+02  0.67459389416E+03  0.68255964481E+03  0.80322702926E+02 0.  0.
        -11    1    3    3    0    0 -0.22644056740E+02 -0.28316003572E+02 -0.11676238193E+04  0.11681866001E+04  0.00000000000E+00 0.  1.
         12    1    3    3    0    0 -0.91978558417E+02  0.43269167606E+02 -0.21251541468E+04  0.21275837054E+04  0.00000000000E+00 0. -1.
         11    1    5    5    0    0 -0.14554316677E+02 -0.19457216230E+02  0.60838166046E+02  0.65511020792E+02  0.00000000000E+00 0. -1.
        -12    1    5    5    0    0 -0.47258451872E+02  0.42656175881E+02  0.61375572811E+03  0.61704862402E+03  0.00000000000E+00 0.  1.
          5    1    4    4  501    0  0.13251978719E+03  0.27621527533E+02 -0.41394476708E+03  0.43553666364E+03  0.41800000000E+01 0.  1.
         -5    1    4    4    0  501  0.43915596511E+02 -0.65773651218E+02 -0.38385890962E+03  0.39194373028E+03  0.41800000000E+01 0.  1.
</event>
<event>
11    1  0.8039394E-009  0.1317268E+03  0.7561462E-02  0.1117165E+00
         22   -1    0    0    0    0  0.00000000000E+00  0.00000000000E+00  0.15406082798E+03  0.15406082798E+03  0.00000000000E+00 0. -1.
         22   -1    0    0    0    0 -0.00000000000E+00 -0.00000000000E+00 -0.10632694625E+04  0.10632694625E+04  0.00000000000E+00 0.  1.
         24    2    1    2    0    0  0.39939752467E+02  0.20211839547E+01 -0.81404812641E+03  0.81839778700E+03  0.74170861083E+02 0.  0.
         25    2    1    2    0    0 -0.52891078049E+02 -0.31692019100E+01 -0.21402224078E+03  0.25349735199E+03  0.12509147828E+03 0.  0.
        -24    2    1    2    0    0  0.12951325581E+02  0.11480179553E+01  0.11886173266E+03  0.14543515150E+03  0.82790198829E+02 0.  0.
        -11    1    3    3    0    0 -0.67885576930E+01 -0.27296452366E+02 -0.33667051808E+03  0.33784348235E+03  0.00000000000E+00 0.  1.
         12    1    3    3    0    0  0.46728310160E+02  0.29317636321E+02 -0.47737760834E+03  0.48055430464E+03  0.00000000000E+00 0. -1.
         11    1    5    5    0    0  0.49427251145E+00  0.34479385208E+02  0.98670665497E+02  0.10452259344E+03  0.00000000000E+00 0. -1.
        -12    1    5    5    0    0  0.12457053070E+02 -0.33331367253E+02  0.20191067164E+02  0.40912558064E+02  0.00000000000E+00 0.  1.
          5    1    4    4  501    0 -0.60979930996E+01  0.55587785004E+02 -0.60246425757E+02  0.82306084696E+02  0.41800000000E+01 0. -1.
         -5    1    4    4    0  501 -0.46793084949E+02 -0.58756986914E+02 -0.15377581503E+03  0.17119126729E+03  0.41800000000E+01 0. -1.
</event>
<event>
11    1  0.8039394E-009  0.1372974E+03  0.7561462E-02  0.1110614E+00
         22   -1    0    0    0    0  0.00000000000E+00  0.00000000000E+00  0.72345036819E+02  0.72345036819E+02  0.00000000000E+00 0. -1.
         22   -1    0    0    0    0 -0.00000000000E+00 -0.00000000000E+00 -0.23509374571E+04  0.23509374571E+04  0.00000000000E+00 0. -1.
        -24    2    1    2    0    0  0.10893019594E+02 -0.14534639412E+02 -0.17736206058E+04  0.17754768342E+04  0.79107660690E+02 0.  0.
         25    2    1    2    0    0  0.65379680953E+01 -0.40510123021E+02 -0.52987602895E+03  0.54598523156E+03  0.12508977551E+03 0.  0.
         24    2    1    2    0    0 -0.17430987690E+02  0.55044762434E+02  0.24904214479E+02  0.10182042810E+03  0.80083796597E+02 0.  0.
        -13    1    5    5    0    0 -0.29495588824E+02 -0.87161094280E+01 -0.35562889715E+01  0.30961387484E+02  0.00000000000E+00 0.  1.
         14    1    5    5    0    0  0.12064601135E+02  0.63760871862E+02  0.28460503451E+02  0.70859040621E+02  0.00000000000E+00 0. -1.
         13    1    3    3    0    0  0.89291086216E+01  0.12605082282E+02 -0.15665352118E+04  0.15666113707E+04  0.00000000000E+00 0. -1.
        -14    1    3    3    0    0  0.19639109729E+01 -0.27139721694E+02 -0.20708539401E+03  0.20886546352E+03  0.00000000000E+00 0.  1.
          5    1    4    4  501    0  0.42459040120E+02 -0.22770254448E+02 -0.74428441534E+02  0.88759900207E+02  0.41800000000E+01 0. -1.
         -5    1    4    4    0  501 -0.35921072025E+02 -0.17739868573E+02 -0.45544758741E+03  0.45722533136E+03  0.41800000000E+01 0. -1.
</event>
<event>
11    1  0.8039394E-009  0.2912231E+03  0.7561462E-02  0.1003976E+00
         22   -1    0    0    0    0  0.00000000000E+00  0.00000000000E+00  0.60350343642E+03  0.60350343642E+03  0.00000000000E+00 0. -1.
         22   -1    0    0    0    0 -0.00000000000E+00 -0.00000000000E+00 -0.21543351922E+04  0.21543351922E+04  0.00000000000E+00 0.  1.
        -24    2    1    2    0    0  0.51199104563E+02 -0.43200272462E+02 -0.19383624546E+04  0.19411915857E+04  0.80549086346E+02 0.  0.
         25    2    1    2    0    0 -0.29365006068E+03 -0.40183573981E+02 -0.26582322395E+02  0.32279684356E+03  0.12508438988E+03 0.  0.
         24    2    1    2    0    0  0.24245095612E+03  0.83383846443E+02  0.41411302121E+03  0.49385019931E+03  0.81627771365E+02 0.  0.
        -13    1    5    5    0    0  0.44203390401E+02  0.58583264528E+01  0.27157542095E+02  0.52209116104E+02  0.00000000000E+00 0.  1.
         14    1    5    5    0    0  0.19824756571E+03  0.77525519990E+02  0.38695547911E+03  0.44164108321E+03  0.00000000000E+00 0. -1.
         11    1    3    3    0    0 -0.97069670044E+01  0.13617142491E+02 -0.15816331611E+03  0.15904491925E+03  0.00000000000E+00 0. -1.
        -12    1    3    3    0    0  0.60906071568E+02 -0.56817414953E+02 -0.17801991385E+04  0.17821466665E+04  0.00000000000E+00 0.  1.
          5    1    4    4  501    0 -0.21891342601E+03 -0.14722672641E+02  0.35461467025E+02  0.22229447411E+03  0.41800000000E+01 0.  1.
         -5    1    4    4    0  501 -0.74736634669E+02 -0.25460901340E+02 -0.62043789421E+02  0.10050236945E+03  0.41800000000E+01 0.  1.
</event>
<event>
11    1  0.8039394E-009  0.1392868E+03  0.7561462E-02  0.1108357E+00
         22   -1    0    0    0    0  0.00000000000E+00  0.00000000000E+00  0.84307240392E+03  0.84307240392E+03  0.00000000000E+00 0. -1.
         22   -1    0    0    0    0 -0.00000000000E+00 -0.00000000000E+00 -0.93162006132E+03  0.93162006132E+03  0.00000000000E+00 0. -1.
         24    2    1    2    0    0 -0.53310915706E+02 -0.11861813598E+02 -0.87949599845E+03  0.88485443008E+03  0.80444979940E+02 0.  0.
         25    2    1    2    0    0  0.10203927491E+03 -0.20500219494E+02  0.98260894639E+02  0.19009296276E+03  0.12509140040E+03 0.  0.
        -24    2    1    2    0    0 -0.48728359204E+02  0.32362033092E+02  0.69268744641E+03  0.69974507240E+03  0.80034453565E+02 0.  0.
        -13    1    3    3    0    0  0.77667900105E+01 -0.31987060139E+02 -0.29240607367E+03  0.29425296424E+03  0.00000000000E+00 0.  1.
         14    1    3    3    0    0 -0.61077705716E+02  0.20125246542E+02 -0.58708992478E+03  0.59060146584E+03  0.00000000000E+00 0. -1.
         11    1    5    5    0    0 -0.67958801808E+02  0.30435157452E+02  0.62276231896E+03  0.62719821705E+03  0.00000000000E+00 0. -1.
        -12    1    5    5    0    0  0.19230442604E+02  0.19268756396E+01  0.69925127448E+02  0.72546855349E+02  0.00000000000E+00 0.  1.
          5    1    4    4  501    0  0.63909734807E+02 -0.64752321471E+02  0.94751293588E+02  0.13142525395E+03  0.41800000000E+01 0.  1.
         -5    1    4    4    0  501  0.38129540103E+02  0.44252101977E+02  0.35096010513E+01  0.58667708813E+02  0.41800000000E+01 0.  1.
</event>
<event>
11    1  0.8039394E-009  0.1485577E+03  0.7561462E-02  0.1098362E+00
         22   -1    0    0    0    0  0.00000000000E+00  0.00000000000E+00  0.33053787591E+03  0.33053787591E+03  0.00000000000E+00 0.  1.
         22   -1    0    0    0    0 -0.00000000000E+00 -0.00000000000E+00 -0.13271978448E+03  0.13271978448E+03  0.00000000000E+00 0.  1.
         24    2    1    2    0    0  0.32909466348E+02  0.77503101716E+02 -0.37815199743E+02  0.12251725392E+03  0.80565032273E+02 0.  0.
         25    2    1    2    0    0 -0.42667449879E+02 -0.55598045789E+02  0.81083750223E+02  0.16472301109E+03  0.12508973522E+03 0.  0.
        -24    2    1    2    0    0  0.97579835317E+01 -0.21905055927E+02  0.15454954095E+03  0.17601739538E+03  0.80755886159E+02 0.  0.
        -11    1    3    3    0    0  0.42535362631E+02  0.24565957108E+02 -0.46942177856E+02  0.67943442543E+02  0.00000000000E+00 0.  1.
         12    1    3    3    0    0 -0.96258962834E+01  0.52937144608E+02  0.91269781131E+01  0.54573811374E+02  0.00000000000E+00 0. -1.
         11    1    5    5    0    0 -0.12500215578E+02 -0.17902504148E+02  0.21402507845E+01  0.21939364569E+02  0.00000000000E+00 0. -1.
        -12    1    5    5    0    0  0.22258199110E+02 -0.40025517784E+01  0.15240929017E+03  0.15407803081E+03  0.00000000000E+00 0.  1.
          5    1    4    4  501    0  0.15446415398E+02 -0.77609613331E+02  0.58401727521E+02  0.98438193846E+02  0.41800000000E+01 0. -1.
         -5    1    4    4    0  501 -0.58113865277E+02  0.22011567542E+02  0.22682022701E+02  0.66284817243E+02  0.41800000000E+01 0. -1.
</event>
<event>
11    1  0.8039394E-009  0.1316729E+03  0.7561462E-02  0.1117230E+00
         22   -1    0    0    0    0  0.00000000000E+00  0.00000000000E+00  0.76684161775E+03  0.76684161775E+03  0.00000000000E+00 0. -1.
         22   -1    0    0    0    0 -0.00000000000E+00 -0.00000000000E+00 -0.27553358027E+03  0.27553358027E+03  0.00000000000E+00 0. -1.
         24    2    1    2    0    0  0.43990324953E+02  0.19940334131E+02 -0.18446910716E+03  0.20743521848E+03  0.81656308728E+02 0.  0.
         25    2    1    2    0    0  0.69834449084E+01 -0.28728376271E+02 -0.22374492553E+02  0.13046831275E+03  0.12508906670E+03 0.  0.
        -24    2    1    2    0    0 -0.50973769861E+02  0.87880421397E+01  0.69815163719E+03  0.70447166679E+03  0.78670616474E+02 0.  0.
        -11    1    3    3    0    0  0.53496048976E+02 -0.94031967370E+01 -0.68429735562E+02  0.87366332612E+02  0.00000000000E+00 0.  1.
         12    1    3    3    0    0 -0.95057240234E+01  0.29343530868E+02 -0.11603937160E+03  0.12006888587E+03  0.00000000000E+00 0. -1.
         11    1    5    5    0    0 -0.53308090694E+02  0.36021049578E-01  0.69066780199E+03  0.69272199802E+03  0.00000000000E+00 0. -1.
        -12    1    5    5    0    0  0.23343208324E+01  0.87520210901E+01  0.74838352001E+01  0.11749668770E+02  0.00000000000E+00 0.  1.
          5    1    4    4  501    0 -0.12795245163E+02 -0.49220659381E+02 -0.62751947918E+02  0.80880597032E+02  0.41800000000E+01 0. -1.
         -5    1    4    4    0  501  0.19778690071E+02  0.20492283111E+02  0.40377455365E+02  0.49587715714E+02  0.41800000000E+01 0. -1.
</event>
<event>
11    1  0.8039394E-009  0.1529114E+03  0.7561462E-02  0.1093940E+00
         22   -1    0    0    0    0  0.00000000000E+00  0.00000000000E+00  0.10677063569E+03  0.10677063569E+03  0.00000000000E+00 0.  1.
         22   -1    0    0    0    0 -0.00000000000E+00 -0.00000000000E+00 -0.19886938127E+04  0.19886938127E+04  0.00000000000E+00 0.  1.
        -24    2    1    2    0    0  0.25865592716E+02 -0.34458708246E+01 -0.13643849585E+04  0.13670214179E+04  0.80748617289E+02 0.  0.
         25    2    1    2    0    0  0.58458131343E+02 -0.26366271214E+02 -0.57815119458E+03  0.59499467758E+03  0.12508928483E+03 0.  0.
         24    2    1    2    0    0 -0.84323724059E+02  0.29812142039E+02  0.60612976078E+02  0.13344835286E+03  0.78328001127E+02 0.  0.
        -11    1    5    5    0    0 -0.53941936090E+02  0.52184643281E+02  0.59372181231E+02  0.95697572422E+02  0.00000000000E+00 0.  1.
         12    1    5    5    0    0 -0.30381787969E+02 -0.22372501242E+02  0.12407948477E+01  0.37750780440E+02  0.00000000000E+00 0. -1.
         11    1    3    3    0    0  0.25393855923E+02 -0.30941276190E+02 -0.35291609628E+03  0.35517880216E+03  0.00000000000E+00 0. -1.
        -12    1    3    3    0    0  0.47173679291E+00  0.27495405366E+02 -0.10114688622E+04  0.10118426158E+04  0.00000000000E+00 0.  1.
          5    1    4    4  501    0 -0.48405822145E+00  0.28921106594E+02 -0.33892756328E+02  0.44753279774E+02  0.41800000000E+01 0.  1.
         -5    1    4    4    0  501  0.58942189564E+02 -0.55287377808E+02 -0.54425843825E+03  0.55024139781E+03  0.41800000000E+01 0.  1.
</event>
<event>
11    1  0.8039394E-009  0.2136909E+03  0.7561462E-02  0.1045243E+00
         22   -1    0    0    0    0  0.00000000000E+00  0.00000000000E+00  0.97442494632E+03  0.97442494632E+03  0.00000000000E+00 0.  1.
         22   -1    0    0    0    0 -0.00000000000E+00 -0.00000000000E+00 -0.59889992554E+03  0.59889992554E+03  0.00000000000E+00 0.  1.
         24    2    1    2    0    0  0.35516565548E+02  0.16557574749E+03 -0.44487781665E+03  0.48265410499E+03  0.79761887684E+02 0.  0.
         25    2    1    2    0    0 -0.91662908969E+02 -0.17871871492E+03 -0.26384800854E+02  0.23808930653E+03  0.12509153538E+03 0.  0.
        -24    2    1    2    0    0  0.56146343421E+02  0.13142967429E+02  0.84678763829E+03  0.85258146035E+03  0.80750806191E+02 0.  0.
        -13    1    3    3    0    0 -0.44643293661E+01  0.13110673702E+03 -0.27355309358E+03  0.30338128112E+03  0.00000000000E+00 0.  1.
         14    1    3    3    0    0  0.39980894914E+02  0.34469010475E+02 -0.17132472307E+03  0.17927282386E+03  0.00000000000E+00 0. -1.
         11    1    5    5    0    0 -0.45456764195E+01 -0.14514326937E+02  0.36346171827E+02  0.39400165825E+02  0.00000000000E+00 0. -1.
        -12    1    5    5    0    0  0.60692019841E+02  0.27657294366E+02  0.81044146646E+03  0.81318129452E+03  0.00000000000E+00 0.  1.
          5    1    4    4  501    0 -0.70951017526E+02 -0.33435623769E+02 -0.44318588177E+02  0.90186459531E+02  0.41800000000E+01 0. -1.
         -5    1    4    4    0  501 -0.20711891443E+02 -0.14528309115E+03  0.17933787323E+02  0.14790284700E+03  0.41800000000E+01 0. -1.
</event>
<event>
11    1  0.8039394E-009  0.2385055E+03  0.7561462E-02  0.1030207E+00
         22   -1    0    0    0    0  0.00000000000E+00  0.00000000000E+00  0.19269413460E+04  0.19269413460E+04  0.00000000000E+00 0.  1.
         22   -1    0    0    0    0 -0.00000000000E+00 -0.00000000000E+00 -0.11262761475E+04  0.11262761475E+04  0.00000000000E+00 0.  1.
         24    2    1    2    0    0 -0.72640598801E+02  0.17593149506E+02 -0.10505321922E+04  0.10561350358E+04  0.78848915836E+02 0.  0.
         25    2    1    2    0    0  0.11607850965E+03 -0.21258610156E+03  0.21612391338E+03  0.34788639341E+03  0.12509326842E+03 0.  0.
        -24    2    1    2    0    0 -0.43437910849E+02  0.19499295206E+03  0.16350734773E+04  0.16491960644E+04  0.80456691627E+02 0.  0.
        -13    1    3    3    0    0 -0.24297693993E+02  0.46079176540E+02 -0.55329786011E+03  0.55574471697E+03  0.00000000000E+00 0.  1.
         14    1    3    3    0    0 -0.48342904808E+02 -0.28486027034E+02 -0.49723433206E+03  0.50039031882E+03  0.00000000000E+00 0. -1.
         13    1    5    5    0    0  0.16666130698E+02  0.13624529087E+02  0.10092023550E+03  0.10319051138E+03  0.00000000000E+00 0. -1.
        -14    1    5    5    0    0 -0.60104041547E+02  0.18136842297E+03  0.15341532418E+04  0.15460055530E+04  0.00000000000E+00 0.  1.
          5    1    4    4  501    0  0.38918108053E+02 -0.18533223110E+03  0.13518704454E+03  0.23271369627E+03  0.41800000000E+01 0.  1.
         -5    1    4    4    0  501  0.77160401597E+02 -0.27253870465E+02  0.80936868834E+02  0.11517269714E+03  0.41800000000E+01 0.  1.
</event>
<event>
11    1  0.8039394E-009  0.2975656E+03  0.7561462E-02  0.1001227E+00
         22   -1    0    0    0    0  0.00000000000E+00  0.00000000000E+00  0.25795598773E+04  0.25795598773E+04  0.00000000000E+00 0.  1.
         22   -1    0    0    0    0 -0.00000000000E+00 -0.00000000000E+00 -0.60449726400E+03  0.60449726400E+03  0.00000000000E+00 0. -1.
         24    2    1    2    0    0  0.25794979002E+02  0.26422654879E+03 -0.49745204841E+03  0.56886496157E+03  0.75284487138E+02 0.  0.
         25    2    1    2    0    0  0.16579613469E+03 -0.37586772648E+03  0.66008481058E+03  0.78747914868E+03  0.12508615574E+03 0.  0.
        -24    2    1    2    0    0 -0.19159111369E+03  0.11164117769E+03  0.18124298511E+04  0.18277130310E+04  0.80386884567E+02 0.  0.
        -13    1    3    3    0    0  0.26354748484E+02  0.36764326972E+02 -0.53712594768E+02  0.70222726677E+02  0.00000000000E+00 0.  1.
         14    1    3    3    0    0 -0.55976948156E+00  0.22746222182E+03 -0.44373945365E+03  0.49864223489E+03  0.00000000000E+00 0. -1.
         11    1    5    5    0    0 -0.15140430314E+02  0.44588286278E+02  0.35339938985E+03  0.35652275755E+03  0.00000000000E+00 0. -1.
        -12    1    5    5    0    0 -0.17645068338E+03  0.67052891408E+02  0.14590304612E+04  0.14711902735E+04  0.00000000000E+00 0.  1.
          5    1    4    4  501    0  0.12643839143E+03 -0.21235807853E+03  0.48681277370E+03  0.54597323138E+03  0.41800000000E+01 0. -1.
         -5    1    4    4    0  501  0.39357743262E+02 -0.16350964794E+03  0.17327203688E+03  0.24150591730E+03  0.41800000000E+01 0. -1.
</event>
<event>
11    1  0.8039394E-009  0.6046240E+03  0.7561462E-02  0.9186016E-01
         22   -1    0    0    0    0  0.00000000000E+00  0.00000000000E+00  0.19445800313E+04  0.19445800313E+04  0.00000000000E+00 0. -1.
         22   -1    0    0    0    0 -0.00000000000E+00 -0.00000000000E+00 -0.54103064345E+03  0.54103064345E+03  0.00000000000E+00 0.  1.
        -24    2    1    2    0    0  0.16218489315E+03  0.19554197524E+03 -0.27885837330E+03  0.38829242570E+03  0.92023974330E+02 0.  0.
         25    2    1    2    0    0 -0.65370942318E+03 -0.31999818980E+03  0.96519747923E+03  0.12153137741E+04  0.12508614665E+03 0.  0.
         24    2    1    2    0    0  0.49152453003E+03  0.12445621456E+03  0.71721028187E+03  0.88200447494E+03  0.80346701448E+02 0.  0.
        -11    1    5    5    0    0  0.16275595898E+03  0.14535897578E+02  0.27806439231E+03  0.32252224850E+03  0.00000000000E+00 0.  1.
         12    1    5    5    0    0  0.32876857104E+03  0.10992031698E+03  0.43914588956E+03  0.55948222644E+03  0.00000000000E+00 0. -1.
         13    1    3    3    0    0  0.12015249963E+03  0.73916687253E+02 -0.13462196131E+03  0.19499582634E+03  0.00000000000E+00 0. -1.
        -14    1    3    3    0    0  0.42032393522E+02  0.12162528799E+03 -0.14423641199E+03  0.19329659937E+03  0.00000000000E+00 0.  1.
          5    1    4    4  501    0 -0.40762851052E+03 -0.26489336398E+03  0.64643966649E+03  0.80884560435E+03  0.41800000000E+01 0. -1.
         -5    1    4    4    0  501 -0.24608091266E+03 -0.55104825822E+02  0.31875781274E+03  0.40646816971E+03  0.41800000000E+01 0. -1.
</event>
<event>
11    1  0.8039394E-009  0.1292988E+03  0.7561462E-02  0.1120134E+00
         22   -1    0    0    0    0  0.00000000000E+00  0.00000000000E+00  0.32130217735E+03  0.32130217735E+03  0.00000000000E+00 0.  1.
         22   -1    0    0    0    0 -0.00000000000E+00 -0.00000000000E+00 -0.25009391840E+03  0.25009391840E+03  0.00000000000E+00 0.  1.
         24    2    1    2    0    0  0.24285207365E+02 -0.30769424521E+02 -0.19280038753E+03  0.21246386952E+03  0.80202104952E+02 0.  0.
         25    2    1    2    0    0 -0.18417820613E+02 -0.85088781320E+01  0.70177488183E+02  0.14485798174E+03  0.12508931970E+03 0.  0.
        -24    2    1    2    0    0 -0.58673867514E+01  0.39278302653E+02  0.19383115829E+03  0.21407424449E+03  0.81731590844E+02 0.  0.
        -13    1    3    3    0    0  0.11367247685E+01 -0.73402683770E+01 -0.17474653836E+03  0.17490432914E+03  0.00000000000E+00 0.  1.
         14    1    3    3    0    0  0.23148482596E+02 -0.23429156144E+02 -0.18053849176E+02  0.37559540388E+02  0.00000000000E+00 0. -1.
         11    1    5    5    0    0 -0.12425932474E+02  0.55257824861E+02  0.74942029497E+02  0.93936887277E+02  0.00000000000E+00 0. -1.
        -12    1    5    5    0    0  0.65585457228E+01 -0.15979522208E+02  0.11888912879E+03  0.12013735721E+03  0.00000000000E+00 0.  1.
          5    1    4    4  501    0  0.52316776826E+02 -0.17406237499E+02  0.29524188079E+02  0.62683110349E+02  0.41800000000E+01 0.  1.
         -5    1    4    4    0  501 -0.70734597439E+02  0.88973593668E+01  0.40653300104E+02  0.82174871390E+02  0.41800000000E+01 0.  1.
</event>
<event>
11    1  0.8039394E-009  0.1699146E+03  0.7561462E-02  0.1078106E+00
         22   -1    0    0    0    0  0.00000000000E+00  0.00000000000E+00  0.23619559225E+04  0.23619559225E+04  0.00000000000E+00 0. -1.
         22   -1    0    0    0    0 -0.00000000000E+00 -0.00000000000E+00 -0.97751868839E+03  0.97751868839E+03  0.00000000000E+00 0.  1.
         24    2    1    2    0    0  0.10939844093E+03 -0.41573942529E+02 -0.86066021210E+03  0.87235480059E+03  0.81058533478E+02 0.  0.
         25    2    1    2    0    0 -0.10781887192E+03 -0.26669854206E+02 -0.46097934505E+02  0.17351912642E+03  0.12509067672E+03 0.  0.
        -24    2    1    2    0    0 -0.15795690123E+01  0.68243796736E+02  0.22911953807E+04  0.22936006839E+04  0.79800461657E+02 0.  0.
        -11    1    3    3    0    0  0.45110877771E+02 -0.32681087853E+02 -0.63805075082E+03  0.64047779463E+03  0.00000000000E+00 0.  1.
         12    1    3    3    0    0  0.64287563159E+02 -0.88928546767E+01 -0.22260946128E+03  0.23187700596E+03  0.00000000000E+00 0. -1.
         13    1    5    5    0    0 -0.92726770474E+01  0.50302286180E+02  0.21866613695E+04  0.21872595290E+04  0.00000000000E+00 0. -1.
        -14    1    5    5    0    0  0.76931080350E+01  0.17941510556E+02  0.10453401124E+03  0.10634115486E+03  0.00000000000E+00 0.  1.
          5    1    4    4  501    0 -0.38324988443E+02  0.47443163993E+02  0.17125928985E+01  0.61156062032E+02  0.41800000000E+01 0.  1.
         -5    1    4    4    0  501 -0.69493883474E+02 -0.74113018199E+02 -0.47810527404E+02  0.11236306438E+03  0.41800000000E+01 0.  1.
</event>
<event>
11    1  0.8039394E-009  0.1951274E+03  0.7561462E-02  0.1058024E+00
         22   -1    0    0    0    0  0.00000000000E+00  0.00000000000E+00  0.21543352779E+03  0.21543352779E+03  0.00000000000E+00 0. -1.
         22   -1    0    0    0    0 -0.00000000000E+00 -0.00000000000E+00 -0.11206902287E+04  0.11206902287E+04  0.00000000000E+00 0.  1.
        -24    2    1    2    0    0  0.29374237876E+02  0.10594217901E+03 -0.89538453807E+03  0.90570984188E+03  0.80686154444E+02 0.  0.
         25    2    1    2    0    0 -0.33629178667E+02 -0.23024024129E+03 -0.64367316720E+02  0.27191236554E+03  0.12510672527E+03 0.  0.
         24    2    1    2    0    0  0.42549407907E+01  0.12429806228E+03  0.54495153916E+02  0.15850154903E+03  0.81761277130E+02 0.  0.
        -11    1    5    5    0    0  0.17360869472E+02  0.23149610964E+02  0.48318941808E+02  0.56320728103E+02  0.00000000000E+00 0.  1.
         12    1    5    5    0    0 -0.13105928681E+02  0.10114845131E+03  0.61762121087E+01  0.10218082093E+03  0.00000000000E+00 0. -1.
         13    1    3    3    0    0  0.29482690724E+02 -0.75916844199E+00 -0.21352926734E+03  0.21555638102E+03  0.00000000000E+00 0. -1.
        -14    1    3    3    0    0 -0.10845284796E+00  0.10670134745E+03 -0.68185527073E+03  0.69015346086E+03  0.00000000000E+00 0.  1.
          5    1    4    4  501    0 -0.56796765392E+02 -0.23354607907E+03 -0.59571391538E+02  0.24766078959E+03  0.41800000000E+01 0.  1.
         -5    1    4    4    0  501  0.23167586726E+02  0.33058377799E+01 -0.47959251817E+01  0.24251575958E+02  0.41800000000E+01 0.  1.
</event>
<event>
11    1  0.8039394E-009  0.1662069E+03  0.7561462E-02  0.1081381E+00
         22   -1    0    0    0    0  0.00000000000E+00  0.00000000000E+00  0.12756268289E+04  0.12756268289E+04  0.00000000000E+00 0. -1.
         22   -1    0    0    0    0 -0.00000000000E+00 -0.00000000000E+00 -0.69013401857E+03  0.69013401857E+03  0.00000000000E+00 0. -1.
        -24    2    1    2    0    0  0.23141180321E+02  0.10397926120E+03 -0.61125528355E+03  0.62563045735E+03  0.80207521523E+02 0.  0.
         25    2    1    2    0    0  0.85296357449E+01 -0.19762530384E+03  0.13461480112E+03  0.26999597810E+03  0.12509263809E+03 0.  0.
         24    2    1    2    0    0 -0.31670816066E+02  0.93646042644E+02  0.10621332928E+04  0.10701344120E+04  0.85369235033E+02 0.  0.
        -13    1    5    5    0    0 -0.47212699470E+02  0.63367762167E+02  0.43782615453E+03  0.44490027407E+03  0.00000000000E+00 0.  1.
         14    1    5    5    0    0  0.15541883404E+02  0.30278280477E+02  0.62430713825E+03  0.62523413796E+03  0.00000000000E+00 0. -1.
         11    1    3    3    0    0  0.24944466674E+02  0.33780716377E+02 -0.41632743049E+03  0.41843983151E+03  0.00000000000E+00 0. -1.
        -12    1    3    3    0    0 -0.18032863532E+01  0.70198544820E+02 -0.19492785306E+03  0.20719062584E+03  0.00000000000E+00 0.  1.
          5    1    4    4  501    0 -0.46918625978E+01 -0.18908738430E+03  0.67403542850E+02  0.20084014157E+03  0.41800000000E+01 0.  1.
         -5    1    4    4    0  501  0.13221498343E+02 -0.85379195435E+01  0.67211258268E+02  0.69155836532E+02  0.41800000000E+01 0.  1.
</event>
<event>
11    1  0.8039394E-009  0.1399708E+03  0.7561462E-02  0.1107591E+00
         22   -1    0    0    0    0  0.00000000000E+00  0.00000000000E+00  0.19033872600E+04  0.19033872600E+04  0.00000000000E+00 0. -1.
         22   -1    0    0    0    0 -0.00000000000E+00 -0.00000000000E+00 -0.90502306510E+03  0.90502306510E+03  0.00000000000E+00 0. -1.
         24    2    1    2    0    0  0.40791989029E+01  0.59983532706E+02 -0.78526593937E+03  0.79206046194E+03  0.84276424778E+02 0.  0.
         25    2    1    2    0    0 -0.30384446745E+02 -0.10999790384E+03 -0.52747113868E+02  0.17734785938E+03  0.12508897534E+03 0.  0.
        -24    2    1    2    0    0  0.26305247842E+02  0.50014371134E+02  0.18363772481E+04  0.18390020037E+04  0.80334108892E+02 0.  0.
        -13    1    3    3    0    0 -0.29426149101E+02  0.43392304241E+02 -0.24728224136E+03  0.25277914710E+03  0.00000000000E+00 0.  1.
         14    1    3    3    0    0  0.33505348004E+02  0.16591228465E+02 -0.53798369801E+03  0.53928131484E+03  0.00000000000E+00 0. -1.
         11    1    5    5    0    0  0.12653644029E+02  0.71256751714E+02  0.14448039775E+04  0.14466154198E+04  0.00000000000E+00 0. -1.
        -12    1    5    5    0    0  0.13651603813E+02 -0.21242380580E+02  0.39157327059E+03  0.39238658394E+03  0.00000000000E+00 0.  1.
          5    1    4    4  501    0 -0.71591711802E+02 -0.31854832132E+02 -0.39726729586E+02  0.87953334061E+02  0.41800000000E+01 0.  1.
         -5    1    4    4    0  501  0.41207265057E+02 -0.78143071708E+02 -0.13020384281E+02  0.89394525315E+02  0.41800000000E+01 0.  1.
</event>
<event>
11    1  0.8039394E-009  0.1406558E+03  0.7561462E-02  0.1106828E+00
         22   -1    0    0    0    0  0.00000000000E+00  0.00000000000E+00  0.27091816686E+04  0.27091816686E+04  0.00000000000E+00 0.  1.
         22   -1    0    0    0    0 -0.00000000000E+00 -0.00000000000E+00 -0.39989980419E+02  0.39989980419E+02  0.00000000000E+00 0. -1.
         24    2    1    2    0    0  0.21068113620E+02  0.31448159739E+02  0.42883155607E+02  0.97650567560E+02  0.79144274256E+02 0.  0.
         25    2    1    2    0    0  0.35689446482E+02  0.56479064470E+01  0.36238092785E+03  0.38506123934E+03  0.12508631314E+03 0.  0.
        -24    2    1    2    0    0 -0.56757560102E+02 -0.37096066186E+02  0.22639276047E+04  0.22664598421E+04  0.82912470425E+02 0.  0.
        -11    1    3    3    0    0 -0.13478108349E+02 -0.96074134258E+01  0.40714604340E+02  0.43950435765E+02  0.00000000000E+00 0.  1.
         12    1    3    3    0    0  0.34546221968E+02  0.41055573165E+02  0.21685512667E+01  0.53700131795E+02  0.00000000000E+00 0. -1.
         13    1    5    5    0    0 -0.69072206296E+02 -0.85278348736E+01  0.18745307892E+04  0.18758223193E+04  0.00000000000E+00 0. -1.
        -14    1    5    5    0    0  0.12314646194E+02 -0.28568231312E+02  0.38939681548E+03  0.39063752284E+03  0.00000000000E+00 0.  1.
          5    1    4    4  501    0 -0.41151291780E+02  0.24049578185E+02  0.97371218601E+02  0.10849164778E+03  0.41800000000E+01 0. -1.
         -5    1    4    4    0  501  0.76840738262E+02 -0.18401671738E+02  0.26500970925E+03  0.27656959156E+03  0.41800000000E+01 0. -1.
</event>
<event>
11    1  0.8039394E-009  0.1630567E+03  0.7561462E-02  0.1084237E+00
         22   -1    0    0    0    0  0.00000000000E+00  0.00000000000E+00  0.21306426281E+03  0.21306426281E+03  0.00000000000E+00 0.  1.
         22   -1    0    0    0    0 -0.00000000000E+00 -0.00000000000E+00 -0.14735039328E+04  0.14735039328E+04  0.00000000000E+00 0.  1.
         24    2    1    2    0    0  0.78689590052E+02 -0.56529488456E+02 -0.10929609697E+04  0.11001419909E+04  0.79756405353E+02 0.  0.
         25    2    1    2    0    0 -0.14695191638E+03  0.89777792136E+02 -0.32863605089E+03  0.39154845550E+03  0.12511443311E+03 0.  0.
        -24    2    1    2    0    0  0.68262326323E+02 -0.33248303680E+02  0.16115735057E+03  0.19487774925E+03  0.78996522820E+02 0.  0.
        -11    1    3    3    0    0  0.94323510300E+02 -0.55010545476E+02 -0.98729728222E+03  0.99331717401E+03  0.00000000000E+00 0.  1.
         12    1    3    3    0    0 -0.15633920248E+02 -0.15189429795E+01 -0.10566368746E+03  0.10682481687E+03  0.00000000000E+00 0. -1.
         13    1    5    5    0    0 -0.34134824348E+01 -0.28134556801E+02  0.15127411908E+02  0.32125437581E+02  0.00000000000E+00 0. -1.
        -14    1    5    5    0    0  0.71675808757E+02 -0.51137468791E+01  0.14602993866E+03  0.16275231167E+03  0.00000000000E+00 0.  1.
          5    1    4    4  501    0 -0.13846701619E+03  0.42224927222E+02 -0.15877094448E+03  0.21489938172E+03  0.41800000000E+01 0.  1.
         -5    1    4    4    0  501 -0.84849001834E+01  0.47552864914E+02 -0.16986510641E+03  0.17664907378E+03  0.41800000000E+01 0.  1.
</event>
<event>
11    1  0.8039394E-009  0.1421329E+03  0.7561462E-02  0.1105200E+00
         22   -1    0    0    0    0  0.00000000000E+00  0.00000000000E+00  0.11550552222E+04  0.11550552222E+04  0.00000000000E+00 0.  1.
         22   -1    0    0    0    0 -0.00000000000E+00 -0.00000000000E+00 -0.13458360405E+03  0.13458360405E+03  0.00000000000E+00 0.  1.
         24    2    1    2    0    0  0.51733379608E+02  0.41537383492E+02 -0.55594922718E+02  0.11975809227E+03  0.82761757101E+02 0.  0.
         25    2    1    2    0    0 -0.25950146643E+02 -0.77739455760E+02  0.80005890142E+02  0.16960474113E+03  0.12509193685E+03 0.  0.
        -24    2    1    2    0    0 -0.25783232965E+02  0.36202072268E+02  0.99606065069E+03  0.10002759928E+04  0.80248842919E+02 0.  0.
        -11    1    3    3    0    0  0.64225389370E+02  0.50050728736E+02 -0.24251343713E+02  0.84959424190E+02  0.00000000000E+00 0.  1.
         12    1    3    3    0    0 -0.12492009763E+02 -0.85133452436E+01 -0.31343579005E+02  0.34798668078E+02  0.00000000000E+00 0. -1.
         11    1    5    5    0    0 -0.17089737929E+02  0.56846495569E+01  0.42136408473E+02  0.45824134493E+02  0.00000000000E+00 0. -1.
        -12    1    5    5    0    0 -0.86934950359E+01  0.30517422711E+02  0.95392424221E+03  0.95445185831E+03  0.00000000000E+00 0.  1.
          5    1    4    4  501    0 -0.20704399160E+02 -0.27375017568E+02 -0.31685986498E+02  0.46899231036E+02  0.41800000000E+01 0. -1.
         -5    1    4    4    0  501 -0.52457474833E+01 -0.50364438192E+02  0.11169187664E+03  0.12270551010E+03  0.41800000000E+01 0. -1.
</event>
<event>
11    1  0.8039394E-009  0.1335933E+03  0.7561462E-02  0.1114931E+00
         22   -1    0    0    0    0  0.00000000000E+00  0.00000000000E+00  0.52979143014E+03  0.52979143014E+03  0.00000000000E+00 0.  1.
         22   -1    0    0    0    0 -0.00000000000E+00 -0.00000000000E+00 -0.37190007034E+03  0.37190007034E+03  0.00000000000E+00 0. -1.
         24    2    1    2    0    0 -0.46693058470E+02 -0.63997012332E+01 -0.33931867980E+03  0.35212379037E+03  0.81442000232E+02 0.  0.
         25    2    1    2    0    0  0.36610401570E+02  0.23764909306E+02  0.19045202510E+03  0.23199966416E+03  0.12508708122E+03 0.  0.
        -24    2    1    2    0    0  0.10082656900E+02 -0.17365208073E+02  0.30675801450E+03  0.31756804594E+03  0.79660366081E+02 0.  0.
        -11    1    3    3    0    0  0.16580027172E+01 -0.25534942810E+02 -0.34788439374E+02  0.43185851750E+02  0.00000000000E+00 0.  1.
         12    1    3    3    0    0 -0.48351061187E+02  0.19135241576E+02 -0.30453024042E+03  0.30893793862E+03  0.00000000000E+00 0. -1.
         13    1    5    5    0    0 -0.18883742436E+02 -0.39635282571E+02  0.13474163840E+03  0.14171400944E+03  0.00000000000E+00 0. -1.
        -14    1    5    5    0    0  0.28966399335E+02  0.22270074499E+02  0.17201637610E+03  0.17585403651E+03  0.00000000000E+00 0.  1.
          5    1    4    4  501    0  0.44640615956E+02 -0.12325756572E+02  0.97550695685E+01  0.47511500190E+02  0.41800000000E+01 0. -1.
         -5    1    4    4    0  501 -0.80302143862E+01  0.36090665878E+02  0.18069695553E+03  0.18448816397E+03  0.41800000000E+01 0. -1.
</event>
<event>
11    1  0.8039394E-009  0.3855862E+03  0.7561462E-02  0.9693271E-01
         22   -1    0    0    0    0  0.00000000000E+00  0.00000000000E+00  0.20069677419E+03  0.20069677419E+03  0.00000000000E+00 0.  1.
         22   -1    0    0    0    0 -0.00000000000E+00 -0.00000000000E+00 -0.19479481292E+04  0.19479481292E+04  0.00000000000E+00 0.  1.
         24    2    1    2    0    0  0.31222955357E+03 -0.92534082244E+02 -0.75465062909E+03  0.82589775879E+03  0.80991885301E+02 0.  0.
         25    2    1    2    0    0 -0.31316743900E+03  0.34476240352E+03 -0.93433087032E+03  0.10514551045E+04  0.12509477091E+03 0.  0.
        -24    2    1    2    0    0  0.93788542989E+00 -0.25222832128E+03 -0.58269855595E+02  0.27129204014E+03  0.81141785102E+02 0.  0.
        -13    1    3    3    0    0  0.28016636807E+03 -0.71448422217E+02 -0.59270437374E+03  0.65946686459E+03  0.00000000000E+00 0.  1.
         14    1    3    3    0    0  0.32063185500E+02 -0.21085660028E+02 -0.16194625535E+03  0.16643089420E+03  0.00000000000E+00 0. -1.
         11    1    5    5    0    0 -0.11082711323E+01  0.36499272928E+01 -0.10252806672E+02  0.10939391153E+02  0.00000000000E+00 0. -1.
        -12    1    5    5    0    0  0.20461565622E+01 -0.25587824857E+03 -0.48017048923E+02  0.26035264899E+03  0.00000000000E+00 0.  1.
          5    1    4    4  501    0 -0.12027809745E+03  0.20790277062E+03 -0.54984283965E+03  0.60002916885E+03  0.41800000000E+01 0.  1.
         -5    1    4    4    0  501 -0.19288934156E+03  0.13685963290E+03 -0.38448803067E+03  0.45142593560E+03  0.41800000000E+01 0.  1.
</event>
<event>
11    1  0.8039394E-009  0.1486519E+03  0.7561462E-02  0.1098264E+00
         22   -1    0    0    0    0  0.00000000000E+00  0.00000000000E+00  0.51149574167E+03  0.51149574167E+03  0.00000000000E+00 0. -1.
         22   -1    0    0    0    0 -0.00000000000E+00 -0.00000000000E+00 -0.73748743476E+03  0.73748743476E+03  0.00000000000E+00 0.  1.
        -24    2    1    2    0    0  0.31755065599E+02 -0.38046260668E+02 -0.68918343938E+03  0.69549692927E+03  0.79285959475E+02 0.  0.
         25    2    1    2    0    0 -0.10538556437E+03  0.30306694501E+02  0.15840375626E+03  0.22970396381E+03  0.12509015982E+03 0.  0.
         24    2    1    2    0    0  0.73630498771E+02  0.77395661662E+01  0.30478799003E+03  0.32378228335E+03  0.80361041021E+02 0.  0.
        -11    1    5    5    0    0  0.29480297095E+02 -0.36283871622E+02  0.13955917732E+03  0.14718142285E+03  0.00000000000E+00 0.  1.
         12    1    5    5    0    0  0.44150201676E+02  0.44023437789E+02  0.16522881270E+03  0.17660086050E+03  0.00000000000E+00 0. -1.
         11    1    3    3    0    0  0.37360369836E+02  0.13420651456E+02 -0.22958529104E+03  0.23299209639E+03  0.00000000000E+00 0. -1.
        -12    1    3    3    0    0 -0.56053042373E+01 -0.51466912123E+02 -0.45959814834E+03  0.46250483288E+03  0.00000000000E+00 0.  1.
          5    1    4    4  501    0 -0.22147776565E+02  0.23327335398E+01 -0.20379411571E+02  0.30475538855E+02  0.41800000000E+01 0. -1.
         -5    1    4    4    0  501 -0.83237787805E+02  0.27973960962E+02  0.17878316783E+03  0.19922842495E+03  0.41800000000E+01 0. -1.
</event>
<event>
11    1  0.8039394E-009  0.1492401E+03  0.7561462E-02  0.1097658E+00
         22   -1    0    0    0    0  0.00000000000E+00  0.00000000000E+00  0.12517554040E+03  0.12517554040E+03  0.00000000000E+00 0. -1.
         22   -1    0    0    0    0 -0.00000000000E+00 -0.00000000000E+00 -0.11796014135E+04  0.11796014135E+04  0.00000000000E+00 0.  1.
        -24    2    1    2    0    0 -0.74166500721E+02  0.41628077241E+02 -0.88724190406E+03  0.89493782565E+03  0.80510550989E+02 0.  0.
         25    2    1    2    0    0  0.59752912662E+02 -0.24368218390E+02 -0.25274232115E+03  0.28928965705E+03  0.12508238940E+03 0.  0.
         24    2    1    2    0    0  0.14413588060E+02 -0.17259858851E+02  0.85558352075E+02  0.12054947123E+03  0.81891935842E+02 0.  0.
        -11    1    5    5    0    0 -0.10126831463E+02 -0.35675304542E+02  0.91292795634E+01  0.38191933900E+02  0.00000000000E+00 0.  1.
         12    1    5    5    0    0  0.24540419522E+02  0.18415445691E+02  0.76429072511E+02  0.82357537331E+02  0.00000000000E+00 0. -1.
         13    1    3    3    0    0 -0.81800126681E+01  0.41701427400E+02 -0.19602953463E+03  0.20058290083E+03  0.00000000000E+00 0. -1.
        -14    1    3    3    0    0 -0.65986488053E+02 -0.73350158510E-01 -0.69121236943E+03  0.69435492483E+03  0.00000000000E+00 0.  1.
          5    1    4    4  501    0  0.30446724289E+01 -0.32302244618E+02 -0.22154669647E+03  0.22394891416E+03  0.41800000000E+01 0.  1.
         -5    1    4    4    0  501  0.56708240233E+02  0.79340262274E+01 -0.31195624683E+02  0.65340742893E+02  0.41800000000E+01 0.  1.
</event>
<event>
11    1  0.8172723E-009  0.1610640E+03  0.7561462E-02  0.1086081E+00
         22   -1    0    0    0    0  0.00000000000E+00  0.00000000000E+00  0.49730342700E+03  0.49730342700E+03  0.00000000000E+00 0.  1.
         22   -1    0    0    0    0 -0.00000000000E+00 -0.00000000000E+00 -0.17740065125E+04  0.17740065125E+04  0.00000000000E+00 0. -1.
        -24    2    1    2    0    0 -0.27229200480E+02 -0.24820266659E+02 -0.11838271851E+04  0.11870479001E+04  0.79236594563E+02 0.  0.
         25    2    1    2    0    0  0.77518912340E+02  0.11233100555E+03 -0.56496626268E+03  0.59452691661E+03  0.12509172643E+03 0.  0.
         24    2    1    2    0    0 -0.50289711860E+02 -0.87510738891E+02  0.47209036233E+03  0.48973512276E+03  0.82365015173E+02 0.  0.
        -11    1    5    5    0    0 -0.62242980866E+02 -0.91865470299E+02  0.45553894212E+03  0.46885944705E+03  0.00000000000E+00 0.  1.
         12    1    5    5    0    0  0.11953269006E+02  0.43547314085E+01  0.16551420208E+02  0.20875675713E+02  0.00000000000E+00 0. -1.
         11    1    3    3    0    0 -0.49645521194E+02 -0.36621429940E+02 -0.88608918112E+03  0.88823411542E+03  0.00000000000E+00 0. -1.
        -12    1    3    3    0    0  0.22416320715E+02  0.11801163280E+02 -0.29773800399E+03  0.29881378467E+03  0.00000000000E+00 0.  1.
          5    1    4    4  501    0  0.91261306251E+02  0.11578354993E+03 -0.36014998782E+03  0.38917854846E+03  0.41800000000E+01 0.  1.
         -5    1    4    4    0  501 -0.13742393911E+02 -0.34525443765E+01 -0.20481627486E+03  0.20534836815E+03  0.41800000000E+01 0.  1.
</event>
<event>
11    1  0.8039394E-009  0.1520687E+03  0.7561462E-02  0.1094784E+00
         22   -1    0    0    0    0  0.00000000000E+00  0.00000000000E+00  0.11862331700E+03  0.11862331700E+03  0.00000000000E+00 0. -1.
         22   -1    0    0    0    0 -0.00000000000E+00 -0.00000000000E+00 -0.23931011555E+04  0.23931011555E+04  0.00000000000E+00 0. -1.
        -24    2    1    2    0    0 -0.49281202880E+02 -0.20451580518E+02 -0.18994010200E+04  0.19017563596E+04  0.78141617407E+02 0.  0.
         25    2    1    2    0    0  0.74761002502E+02 -0.62468790488E+02 -0.44438513238E+03  0.47182327328E+03  0.12508995980E+03 0.  0.
         24    2    1    2    0    0 -0.25479799622E+02  0.82920371006E+02  0.69308313934E+02  0.13814483957E+03  0.82190913143E+02 0.  0.
        -11    1    5    5    0    0  0.20260535308E+02  0.18229245823E+02 -0.70059783881E+01  0.28140334529E+02  0.00000000000E+00 0.  1.
         12    1    5    5    0    0 -0.45740334930E+02  0.64691125183E+02  0.76314292322E+02  0.11000450504E+03  0.00000000000E+00 0. -1.
         13    1    3    3    0    0 -0.34050749202E+02 -0.26742426463E+02 -0.18266248976E+04  0.18271379607E+04  0.00000000000E+00 0. -1.
        -14    1    3    3    0    0 -0.15230453678E+02  0.62908459456E+01 -0.72776122415E+02  0.74618398909E+02  0.00000000000E+00 0.  1.
          5    1    4    4  501    0 -0.18355408224E+02  0.92834450051E+01 -0.19458104142E+03  0.19570988080E+03  0.41800000000E+01 0. -1.
         -5    1    4    4    0  501  0.93116410725E+02 -0.71752235493E+02 -0.24980409096E+03  0.27611339248E+03  0.41800000000E+01 0. -1.
</event>
<event>
11    1  0.8039394E-009  0.1666184E+03  0.7561462E-02  0.1081013E+00
         22   -1    0    0    0    0  0.00000000000E+00  0.00000000000E+00  0.11553134107E+03  0.11553134107E+03  0.00000000000E+00 0. -1.
         22   -1    0    0    0    0 -0.00000000000E+00 -0.00000000000E+00 -0.64479476046E+03  0.64479476046E+03  0.00000000000E+00 0.  1.
        -24    2    1    2    0    0  0.14370812040E+02 -0.40911307627E+02 -0.31060138060E+03  0.32318858907E+03  0.78085793481E+02 0.  0.
         25    2    1    2    0    0 -0.36360306328E+02  0.14088937579E+03 -0.23511635688E+03  0.30347833076E+03  0.12508999912E+03 0.  0.
         24    2    1    2    0    0  0.21989494287E+02 -0.99978068160E+02  0.16454318088E+02  0.13365918171E+03  0.84349749844E+02 0.  0.
        -13    1    5    5    0    0 -0.22030702125E+02  0.82865159617E-01  0.98826435104E+01  0.24145917781E+02  0.00000000000E+00 0.  1.
         14    1    5    5    0    0  0.44020196412E+02 -0.10006093332E+03  0.65716745781E+01  0.10951326393E+03  0.00000000000E+00 0. -1.
         11    1    3    3    0    0  0.94641172747E+01 -0.44121817588E+02 -0.75102511826E+02  0.87616731197E+02  0.00000000000E+00 0. -1.
        -12    1    3    3    0    0  0.49066947657E+01  0.32105099607E+01 -0.23549886877E+03  0.23557185787E+03  0.00000000000E+00 0.  1.
          5    1    4    4  501    0 -0.45369495444E+02  0.11810998072E+02 -0.12483736436E+03  0.13341563151E+03  0.41800000000E+01 0. -1.
         -5    1    4    4    0  501  0.90091891168E+01  0.12907837771E+03 -0.11027899252E+03  0.17006269924E+03  0.41800000000E+01 0. -1.
</event>
<event>
11    1  0.8039394E-009  0.1712838E+03  0.7561462E-02  0.1076920E+00
         22   -1    0    0    0    0  0.00000000000E+00  0.00000000000E+00  0.44156568148E+03  0.44156568148E+03  0.00000000000E+00 0.  1.
         22   -1    0    0    0    0 -0.00000000000E+00 -0.00000000000E+00 -0.34184563383E+03  0.34184563383E+03  0.00000000000E+00 0.  1.
        -24    2    1    2    0    0  0.14150979448E+02  0.82750611191E+02 -0.25574043092E+03  0.28100774082E+03  0.80711018568E+02 0.  0.
         25    2    1    2    0    0 -0.38445919902E+02 -0.17527854507E+03  0.16379470379E+03  0.27327279389E+03  0.12509459529E+03 0.  0.
         24    2    1    2    0    0  0.24294940453E+02  0.92527933883E+02  0.19166577478E+03  0.22913078061E+03  0.81323322102E+02 0.  0.
        -11    1    5    5    0    0 -0.20246923765E+01  0.84825527324E+02  0.18063719371E+03  0.19957270659E+03  0.00000000000E+00 0.  1.
         12    1    5    5    0    0  0.26319632830E+02  0.77024065594E+01  0.11028581078E+02  0.29558074019E+02  0.00000000000E+00 0. -1.
         13    1    3    3    0    0  0.45568492914E+02  0.39381365379E+02 -0.10513370973E+03  0.12116301584E+03  0.00000000000E+00 0. -1.
        -14    1    3    3    0    0 -0.31417513465E+02  0.43369245811E+02 -0.15060672119E+03  0.15984472498E+03  0.00000000000E+00 0.  1.
          5    1    4    4  501    0  0.43377994859E+02 -0.37825191575E+02  0.32115590686E+02  0.66039981229E+02  0.41800000000E+01 0.  1.
         -5    1    4    4    0  501 -0.81823914760E+02 -0.13745335350E+03  0.13167911311E+03  0.20723281266E+03  0.41800000000E+01 0.  1.
</event>
<event>
11    1  0.8039394E-009  0.1297811E+03  0.7561462E-02  0.1119538E+00
         22   -1    0    0    0    0  0.00000000000E+00  0.00000000000E+00  0.14674721372E+04  0.14674721372E+04  0.00000000000E+00 0.  1.
         22   -1    0    0    0    0 -0.00000000000E+00 -0.00000000000E+00 -0.45258367216E+03  0.45258367216E+03  0.00000000000E+00 0.  1.
         24    2    1    2    0    0  0.35115370764E+02 -0.41135290632E+01 -0.42607093459E+03  0.43484782931E+03  0.79411478820E+02 0.  0.
         25    2    1    2    0    0 -0.17962074293E+01 -0.82176474150E+01  0.16947305214E+03  0.21080659688E+03  0.12509016666E+03 0.  0.
        -24    2    1    2    0    0 -0.33319163335E+02  0.12331176478E+02  0.12714863475E+04  0.12744013832E+04  0.78480118460E+02 0.  0.
        -13    1    3    3    0    0 -0.57204102247E+01 -0.24985262587E+02 -0.29254629908E+03  0.29366702836E+03  0.00000000000E+00 0.  1.
         14    1    3    3    0    0  0.40835780989E+02  0.20871733524E+02 -0.13352463551E+03  0.14118080095E+03  0.00000000000E+00 0. -1.
         13    1    5    5    0    0  0.92795540573E+01  0.25271827849E+02  0.17948089223E+03  0.18148874919E+03  0.00000000000E+00 0. -1.
        -14    1    5    5    0    0 -0.42598717392E+02 -0.12940651371E+02  0.10920054553E+04  0.10929126340E+04  0.00000000000E+00 0.  1.
          5    1    4    4  501    0  0.30422725668E+02  0.43874746614E+02  0.37879081238E+02  0.65595981759E+02  0.41800000000E+01 0.  1.
         -5    1    4    4    0  501 -0.32218933097E+02 -0.52092394029E+02  0.13159397090E+03  0.14521061512E+03  0.41800000000E+01 0.  1.
</event>
<event>
11    1  0.8039394E-009  0.5144162E+03  0.7561462E-02  0.9361872E-01
         22   -1    0    0    0    0  0.00000000000E+00  0.00000000000E+00  0.10652723587E+04  0.10652723587E+04  0.00000000000E+00 0.  1.
         22   -1    0    0    0    0 -0.00000000000E+00 -0.00000000000E+00 -0.91584832051E+03  0.91584832051E+03  0.00000000000E+00 0.  1.
         24    2    1    2    0    0 -0.10049583325E+03 -0.90554386498E+02 -0.16258241224E+03  0.22629214309E+03  0.80471012421E+02 0.  0.
         25    2    1    2    0    0  0.25051081467E+03 -0.39085903168E+03 -0.56383711049E+03  0.74100379574E+03  0.12509151540E+03 0.  0.
        -24    2    1    2    0    0 -0.15001498142E+03  0.48141341818E+03  0.87584356095E+03  0.10138247404E+04  0.80469168882E+02 0.  0.
        -11    1    3    3    0    0 -0.74212228364E+02 -0.13071982072E+02 -0.84031352530E+02  0.11286983548E+03  0.00000000000E+00 0.  1.
         12    1    3    3    0    0 -0.26283604887E+02 -0.77482404426E+02 -0.78551059712E+02  0.11342230761E+03  0.00000000000E+00 0. -1.
         13    1    5    5    0    0 -0.21330512986E+02  0.70931781369E+02  0.79096465888E+02  0.10836309016E+03  0.00000000000E+00 0. -1.
        -14    1    5    5    0    0 -0.12868446843E+03  0.41048163681E+03  0.79674709506E+03  0.90546165024E+03  0.00000000000E+00 0.  1.
          5    1    4    4  501    0  0.81320540177E+02 -0.23827533526E+03 -0.27054836741E+03  0.36959715524E+03  0.41800000000E+01 0. -1.
         -5    1    4    4    0  501  0.16919027449E+03 -0.15258369641E+03 -0.29328874308E+03  0.37140664051E+03  0.41800000000E+01 0. -1.
</event>
<event>
11    1  0.8039394E-009  0.1603865E+03  0.7561462E-02  0.1086714E+00
         22   -1    0    0    0    0  0.00000000000E+00  0.00000000000E+00  0.15900579969E+04  0.15900579969E+04  0.00000000000E+00 0. -1.
         22   -1    0    0    0    0 -0.00000000000E+00 -0.00000000000E+00 -0.44940642604E+03  0.44940642604E+03  0.00000000000E+00 0.  1.
        -24    2    1    2    0    0 -0.15914516124E+01 -0.11013644230E+03 -0.34781708442E+03  0.37321406598E+03  0.78609453542E+02 0.  0.
         25    2    1    2    0    0 -0.48246592348E+01  0.58320545086E+02 -0.32782513669E+02  0.14195537769E+03  0.12510824408E+03 0.  0.
         24    2    1    2    0    0  0.64161108471E+01  0.51815897213E+02  0.15212511689E+04  0.15242949793E+04  0.80895062240E+02 0.  0.
        -11    1    5    5    0    0  0.42089384841E+01  0.22350485443E+02  0.93084122050E+02  0.95822299808E+02  0.00000000000E+00 0.  1.
         12    1    5    5    0    0  0.22071723631E+01  0.29465411770E+02  0.14281670469E+04  0.14284726794E+04  0.00000000000E+00 0. -1.
         11    1    3    3    0    0  0.24042705725E+02 -0.10304091304E+03 -0.24227802709E+03  0.26437496832E+03  0.00000000000E+00 0. -1.
        -12    1    3    3    0    0 -0.25634157337E+02 -0.70955292545E+01 -0.10553905733E+03  0.10883909766E+03  0.00000000000E+00 0.  1.
          5    1    4    4  501    0 -0.27187710612E+01  0.93644663512E+02 -0.35785888519E+00  0.93778010127E+02  0.41800000000E+01 0.  1.
         -5    1    4    4    0  501 -0.21058881735E+01 -0.35324118427E+02 -0.32424654783E+02  0.48177367565E+02  0.41800000000E+01 0.  1.
</event>
<event>
11    1  0.8039394E-009  0.1330113E+03  0.7561462E-02  0.1115623E+00
         22   -1    0    0    0    0  0.00000000000E+00  0.00000000000E+00  0.22035891205E+03  0.22035891205E+03  0.00000000000E+00 0. -1.
         22   -1    0    0    0    0 -0.00000000000E+00 -0.00000000000E+00 -0.35706279093E+03  0.35706279093E+03  0.00000000000E+00 0.  1.
        -24    2    1    2    0    0  0.19781421109E+01  0.11524244856E+02 -0.27596115328E+03  0.28817069874E+03  0.82164908714E+02 0.  0.
         25    2    1    2    0    0  0.43285209439E+02 -0.35531815662E+01  0.12888641122E+02  0.13303691849E+03  0.12508585114E+03 0.  0.
         24    2    1    2    0    0 -0.45263351550E+02 -0.79710632901E+01  0.12636863328E+03  0.15621408574E+03  0.79507862908E+02 0.  0.
        -13    1    5    5    0    0 -0.86104805328E+01 -0.35855110962E+00  0.11740496145E+03  0.11772083038E+03  0.00000000000E+00 0.  1.
         14    1    5    5    0    0 -0.36652871017E+02 -0.76125121805E+01  0.89636718338E+01  0.38493255360E+02  0.00000000000E+00 0. -1.
         11    1    3    3    0    0  0.19388387693E+02 -0.63265108495E+01 -0.13343181095E+02  0.24371598196E+02  0.00000000000E+00 0. -1.
        -12    1    3    3    0    0 -0.17410245583E+02  0.17850755706E+02 -0.26261797219E+03  0.26379910054E+03  0.00000000000E+00 0.  1.
          5    1    4    4  501    0 -0.21426700105E+02 -0.22049397738E+02 -0.37634867837E+02  0.48776378454E+02  0.41800000000E+01 0. -1.
         -5    1    4    4    0  501  0.64711909544E+02  0.18496216171E+02  0.50523508959E+02  0.84260540035E+02  0.41800000000E+01 0. -1.
</event>
<event>
11    1  0.8039394E-009  0.5754501E+03  0.7561462E-02  0.9239123E-01
         22   -1    0    0    0    0  0.00000000000E+00  0.00000000000E+00  0.37615307130E+04  0.37615307130E+04  0.00000000000E+00 0. -1.
         22   -1    0    0    0    0 -0.00000000000E+00 -0.00000000000E+00 -0.30957512120E+03  0.30957512120E+03  0.00000000000E+00 0.  1.
         24    2    1    2    0    0  0.75023275922E+02 -0.29017742882E+03 -0.10649495773E+02  0.31123136510E+03  0.83187251034E+02 0.  0.
         25    2    1    2    0    0  0.33238364911E+03  0.63500782267E+03  0.98715974878E+03  0.12263142535E+04  0.12509377965E+03 0.  0.
        -24    2    1    2    0    0 -0.40740692503E+03 -0.34483039385E+03  0.24754453388E+04  0.25335602156E+04  0.78799350096E+02 0.  0.
        -13    1    3    3    0    0  0.49080349064E+02 -0.25652435453E+03 -0.32942211234E+02  0.26324667977E+03  0.00000000000E+00 0.  1.
         14    1    3    3    0    0  0.25942926858E+02 -0.33653074292E+02  0.22292715461E+02  0.47984685326E+02  0.00000000000E+00 0. -1.
         13    1    5    5    0    0 -0.24393255478E+03 -0.25547433359E+03  0.16256395214E+04  0.16635726855E+04  0.00000000000E+00 0. -1.
        -14    1    5    5    0    0 -0.16347437025E+03 -0.89356060255E+02  0.84980581738E+03  0.86998753008E+03  0.00000000000E+00 0.  1.
          5    1    4    4  501    0  0.12689797544E+03  0.37609279585E+03  0.54597996000E+03  0.67502627829E+03  0.41800000000E+01 0. -1.
         -5    1    4    4    0  501  0.20548567366E+03  0.25891502682E+03  0.44117978879E+03  0.55128797523E+03  0.41800000000E+01 0. -1.
</event>
<event>
11    1  0.8039394E-009  0.1585316E+03  0.7561462E-02  0.1088467E+00
         22   -1    0    0    0    0  0.00000000000E+00  0.00000000000E+00  0.60534775954E+03  0.60534775954E+03  0.00000000000E+00 0.  1.
         22   -1    0    0    0    0 -0.00000000000E+00 -0.00000000000E+00 -0.42761407437E+03  0.42761407437E+03  0.00000000000E+00 0. -1.
         24    2    1    2    0    0 -0.38027536519E+02  0.10473013727E+03 -0.29612494320E+03  0.32532677935E+03  0.75716815773E+02 0.  0.
         25    2    1    2    0    0  0.15163447138E+02 -0.55126115140E+02 -0.70578089271E+02  0.15458939680E+03  0.12509115164E+03 0.  0.
        -24    2    1    2    0    0  0.22864089381E+02 -0.49604022135E+02  0.54443671765E+03  0.55304565775E+03  0.80404194161E+02 0.  0.
        -11    1    3    3    0    0 -0.53647183182E+02  0.64038480053E+02 -0.13810800912E+03  0.16140870290E+03  0.00000000000E+00 0.  1.
         12    1    3    3    0    0  0.15619646663E+02  0.40691657222E+02 -0.15801693408E+03  0.16391807645E+03  0.00000000000E+00 0. -1.
         13    1    5    5    0    0  0.22072426172E+02  0.72593598848E+01  0.47637135915E+02  0.53001764322E+02  0.00000000000E+00 0. -1.
        -14    1    5    5    0    0  0.79166320835E+00 -0.56863382019E+02  0.49679958173E+03  0.50004389343E+03  0.00000000000E+00 0.  1.
          5    1    4    4  501    0 -0.36324698061E+02  0.19541485188E+02 -0.42923261647E+02  0.59676059882E+02  0.41800000000E+01 0. -1.
         -5    1    4    4    0  501  0.51488145200E+02 -0.74667600328E+02 -0.27654827624E+02  0.94913336922E+02  0.41800000000E+01 0. -1.
</event>
<event>
11    1  0.8039394E-009  0.1314929E+03  0.7561462E-02  0.1117448E+00
         22   -1    0    0    0    0  0.00000000000E+00  0.00000000000E+00  0.30005735610E+04  0.30005735610E+04  0.00000000000E+00 0. -1.
         22   -1    0    0    0    0 -0.00000000000E+00 -0.00000000000E+00 -0.81420345152E+03  0.81420345152E+03  0.00000000000E+00 0.  1.
        -24    2    1    2    0    0 -0.13472368260E+02  0.38256336536E+02 -0.79140645159E+03  0.79655699190E+03  0.80832034141E+02 0.  0.
         25    2    1    2    0    0 -0.67616318545E+01 -0.43161990390E+02  0.20344872330E+03  0.24279057683E+03  0.12508878488E+03 0.  0.
         24    2    1    2    0    0  0.20234000114E+02  0.49056538543E+01  0.27743278378E+04  0.27754294438E+04  0.75366874662E+02 0.  0.
        -13    1    5    5    0    0 -0.81002600844E+01 -0.28119247921E+02  0.65297958407E+03  0.65363494669E+03  0.00000000000E+00 0.  1.
         14    1    5    5    0    0  0.28334260199E+02  0.33024901775E+02  0.21213482537E+04  0.21217944971E+04  0.00000000000E+00 0. -1.
         11    1    3    3    0    0 -0.25428439477E+02 -0.15193338436E+02 -0.15550094229E+03  0.15829714502E+03  0.00000000000E+00 0. -1.
        -12    1    3    3    0    0  0.11956071217E+02  0.53449674972E+02 -0.63590550930E+03  0.63825984689E+03  0.00000000000E+00 0.  1.
          5    1    4    4  501    0 -0.16575496591E+02 -0.62823890826E+01 -0.13373908391E+02  0.22595338579E+02  0.41800000000E+01 0.  1.
         -5    1    4    4    0  501  0.98138647366E+01 -0.36879601307E+02  0.21682263169E+03  0.22019523825E+03  0.41800000000E+01 0.  1.
</event>
<event>
11    1  0.8039394E-009  0.1478304E+03  0.7561462E-02  0.1099116E+00
         22   -1    0    0    0    0  0.00000000000E+00  0.00000000000E+00  0.23013270073E+04  0.23013270073E+04  0.00000000000E+00 0.  1.
         22   -1    0    0    0    0 -0.00000000000E+00 -0.00000000000E+00 -0.10604865022E+04  0.10604865022E+04  0.00000000000E+00 0.  1.
         24    2    1    2    0    0 -0.25439985287E+02  0.31813113883E+02 -0.10271977563E+04  0.10312059240E+04  0.81185960013E+02 0.  0.
         25    2    1    2    0    0 -0.16836154791E+02  0.36939574356E+02  0.11537100545E+03  0.17494705497E+03  0.12509202566E+03 0.  0.
        -24    2    1    2    0    0  0.42276140078E+02 -0.68752688239E+02  0.21526672560E+04  0.21556605305E+04  0.79886190276E+02 0.  0.
        -11    1    3    3    0    0 -0.21608063425E+02  0.59108034829E+02 -0.67208742285E+03  0.67502753436E+03  0.00000000000E+00 0.  1.
         12    1    3    3    0    0 -0.38319218624E+01 -0.27294920945E+02 -0.35511033346E+03  0.35617838966E+03  0.00000000000E+00 0. -1.
         13    1    5    5    0    0  0.31883466572E+01 -0.71980486782E+02  0.11751220239E+04  0.11773288101E+04  0.00000000000E+00 0. -1.
        -14    1    5    5    0    0  0.39087793421E+02  0.32277985423E+01  0.97754523215E+03  0.97833172041E+03  0.00000000000E+00 0.  1.
          5    1    4    4  501    0 -0.30135351148E+02  0.53717556886E+01  0.13275803613E+03  0.13630540600E+03  0.41800000000E+01 0. -1.
         -5    1    4    4    0  501  0.13299196357E+02  0.31567818667E+02 -0.17387030684E+02  0.38641648971E+02  0.41800000000E+01 0. -1.
</event>
<event>
11    1  0.8039394E-009  0.1646451E+03  0.7561462E-02  0.1082788E+00
         22   -1    0    0    0    0  0.00000000000E+00  0.00000000000E+00  0.14784427296E+04  0.14784427296E+04  0.00000000000E+00 0.  1.
         22   -1    0    0    0    0 -0.00000000000E+00 -0.00000000000E+00 -0.36093194171E+03  0.36093194171E+03  0.00000000000E+00 0. -1.
        -24    2    1    2    0    0  0.50032345113E+01  0.46071314380E+00 -0.30460050595E+03  0.31498182534E+03  0.80042722695E+02 0.  0.
         25    2    1    2    0    0 -0.74197181477E+02 -0.81810386336E+02  0.97968490923E+02  0.19351428174E+03  0.12510711799E+03 0.  0.
         24    2    1    2    0    0  0.69193946966E+02  0.81349673192E+02  0.13241428029E+04  0.13308785642E+04  0.80486138998E+02 0.  0.
        -13    1    5    5    0    0  0.76267477313E+02  0.92259338097E+02  0.11366849748E+04  0.11429703608E+04  0.00000000000E+00 0.  1.
         14    1    5    5    0    0 -0.70735303469E+01 -0.10909664904E+02  0.18745782808E+03  0.18790820346E+03  0.00000000000E+00 0. -1.
         13    1    3    3    0    0  0.27136786680E+02  0.10454779257E+02 -0.27571290389E+03  0.27724233618E+03  0.00000000000E+00 0. -1.
        -14    1    3    3    0    0 -0.22133552168E+02 -0.99940661129E+01 -0.28887602065E+02  0.37739489161E+02  0.00000000000E+00 0.  1.
          5    1    4    4  501    0 -0.81781756299E+02 -0.16183618631E+01  0.71213442843E+02  0.10853433374E+03  0.41800000000E+01 0. -1.
         -5    1    4    4    0  501  0.75845748220E+01 -0.80192024473E+02  0.26755048080E+02  0.84979948000E+02  0.41800000000E+01 0. -1.
</event>
<event>
11    1  0.8039394E-009  0.1386333E+03  0.7561462E-02  0.1109094E+00
         22   -1    0    0    0    0  0.00000000000E+00  0.00000000000E+00  0.64279429818E+03  0.64279429818E+03  0.00000000000E+00 0. -1.
         22   -1    0    0    0    0 -0.00000000000E+00 -0.00000000000E+00 -0.73653283764E+03  0.73653283764E+03  0.00000000000E+00 0.  1.
        -24    2    1    2    0    0 -0.45388038726E+02  0.40971274390E+02 -0.67156604012E+03  0.67907271921E+03  0.80000577185E+02 0.  0.
         25    2    1    2    0    0  0.36761388573E+02 -0.77337980319E+01  0.15850202544E+02  0.13156773161E+03  0.12509047829E+03 0.  0.
         24    2    1    2    0    0  0.86266501527E+01 -0.33237476358E+02  0.56197729811E+03  0.56868668499E+03  0.80043195619E+02 0.  0.
        -11    1    5    5    0    0  0.34592926637E+02 -0.44184356201E+02  0.43599028082E+03  0.43958668414E+03  0.00000000000E+00 0.  1.
         12    1    5    5    0    0 -0.25966276485E+02  0.10946879843E+02  0.12598701729E+03  0.12910000085E+03  0.00000000000E+00 0. -1.
         11    1    3    3    0    0 -0.39462117327E+02  0.17053908045E+01 -0.12560060033E+03  0.13166502142E+03  0.00000000000E+00 0. -1.
        -12    1    3    3    0    0 -0.59259213988E+01  0.39265883585E+02 -0.54596543979E+03  0.54740769780E+03  0.00000000000E+00 0.  1.
          5    1    4    4  501    0  0.55929788062E+02 -0.45401342019E+02  0.40211188414E+02  0.82606507755E+02  0.41800000000E+01 0.  1.
         -5    1    4    4    0  501 -0.19168399489E+02  0.37667543987E+02 -0.24360985871E+02  0.48961223857E+02  0.41800000000E+01 0.  1.
</event>
<event>
11    1  0.8039394E-009  0.2591830E+03  0.7561462E-02  0.1019118E+00
         22   -1    0    0    0    0  0.00000000000E+00  0.00000000000E+00  0.32284410379E+04  0.32284410379E+04  0.00000000000E+00 0.  1.
         22   -1    0    0    0    0 -0.00000000000E+00 -0.00000000000E+00 -0.46588984845E+02  0.46588984845E+02  0.00000000000E+00 0.  1.
        -24    2    1    2    0    0 -0.21454875679E+02 -0.49185218756E+02  0.88371527831E+02  0.13142770175E+03  0.81143184682E+02 0.  0.
         25    2    1    2    0    0  0.20895530228E+03  0.15519578796E+03  0.11162357291E+04  0.11529866762E+04  0.12509205271E+03 0.  0.
         24    2    1    2    0    0 -0.18750042660E+03 -0.10601056920E+03  0.19772447962E+04  0.19906156448E+04  0.81602761683E+02 0.  0.
        -13    1    5    5    0    0 -0.14863953971E+03 -0.52999087790E+02  0.15921805592E+04  0.15999817340E+04  0.00000000000E+00 0.  1.
         14    1    5    5    0    0 -0.38860886894E+02 -0.53011481411E+02  0.38506423697E+03  0.39063391082E+03  0.00000000000E+00 0. -1.
         11    1    3    3    0    0 -0.80713181582E+01 -0.86898241651E+01  0.87980433357E+02  0.88776212324E+02  0.00000000000E+00 0. -1.
        -12    1    3    3    0    0 -0.13383557520E+02 -0.40495394591E+02  0.39109447351E+00  0.42651489421E+02  0.00000000000E+00 0.  1.
          5    1    4    4  501    0  0.15885621711E+03  0.16755920634E+03  0.98938444760E+03  0.10159775799E+04  0.41800000000E+01 0.  1.
         -5    1    4    4    0  501  0.50099085171E+02 -0.12363418381E+02  0.12685128149E+03  0.13700909629E+03  0.41800000000E+01 0.  1.
</event>
<event>
11    1  0.8039394E-009  0.1407623E+03  0.7561462E-02  0.1106710E+00
         22   -1    0    0    0    0  0.00000000000E+00  0.00000000000E+00  0.41081409138E+02  0.41081409138E+02  0.00000000000E+00 0.  1.
         22   -1    0    0    0    0 -0.00000000000E+00 -0.00000000000E+00 -0.33117003967E+04  0.33117003967E+04  0.00000000000E+00 0.  1.
         24    2    1    2    0    0 -0.70326626967E+02  0.58727959097E+01 -0.23673880997E+04  0.23697568369E+04  0.78998274397E+02 0.  0.
         25    2    1    2    0    0  0.39747181734E+02 -0.42043929075E+01 -0.88717797070E+03  0.89684447304E+03  0.12509093391E+03 0.  0.
        -24    2    1    2    0    0  0.30579445234E+02 -0.16684030023E+01 -0.16052917219E+02  0.86180495932E+02  0.78939823210E+02 0.  0.
        -11    1    3    3    0    0 -0.85707237508E+02 -0.10198808871E-01 -0.16933443242E+04  0.16955119378E+04  0.00000000000E+00 0.  1.
         12    1    3    3    0    0  0.15380610541E+02  0.58829947186E+01 -0.67404377545E+03  0.67424489915E+03  0.00000000000E+00 0. -1.
         11    1    5    5    0    0  0.15227979513E+02 -0.20645225637E+02 -0.42844227104E+02  0.49937405798E+02  0.00000000000E+00 0. -1.
        -12    1    5    5    0    0  0.15351465721E+02  0.18976822635E+02  0.26791309885E+02  0.36243090134E+02  0.00000000000E+00 0.  1.
          5    1    4    4  501    0 -0.90949898587E+01 -0.57798902095E+02 -0.40593414300E+03  0.41015050015E+03  0.41800000000E+01 0. -1.
         -5    1    4    4    0  501  0.48842171592E+02  0.53594509187E+02 -0.48124382770E+03  0.48669397289E+03  0.41800000000E+01 0. -1.
</event>
<event>
11    1  0.8039394E-009  0.1463162E+03  0.7561462E-02  0.1100703E+00
         22   -1    0    0    0    0  0.00000000000E+00  0.00000000000E+00  0.13763204442E+04  0.13763204442E+04  0.00000000000E+00 0.  1.
         22   -1    0    0    0    0 -0.00000000000E+00 -0.00000000000E+00 -0.24408467694E+03  0.24408467694E+03  0.00000000000E+00 0. -1.
        -24    2    1    2    0    0 -0.31863176695E+02  0.34822338494E+02 -0.21379274183E+03  0.22924460091E+03  0.67955082969E+02 0.  0.
         25    2    1    2    0    0  0.17406705663E+02  0.44739280971E+02  0.20781120055E+03  0.24726063311E+03  0.12509088275E+03 0.  0.
         24    2    1    2    0    0  0.14456471032E+02 -0.79561619465E+02  0.11382173086E+04  0.11438998871E+04  0.80182725451E+02 0.  0.
        -11    1    5    5    0    0 -0.19859186498E+02 -0.67208323808E+02  0.53342705549E+03  0.53801093818E+03  0.00000000000E+00 0.  1.
         12    1    5    5    0    0  0.34315657530E+02 -0.12353295657E+02  0.60479025307E+03  0.60588894896E+03  0.00000000000E+00 0. -1.
         13    1    3    3    0    0  0.21448801437E+02  0.12857277907E+02 -0.60347617954E+02  0.65323775695E+02  0.00000000000E+00 0. -1.
        -14    1    3    3    0    0 -0.53311978133E+02  0.21965060587E+02 -0.15344512388E+03  0.16392082522E+03  0.00000000000E+00 0.  1.
          5    1    4    4  501    0  0.31376836039E+02  0.46808491000E+00 -0.25853318444E+01  0.31762891620E+02  0.41800000000E+01 0.  1.
         -5    1    4    4    0  501 -0.13970130376E+02  0.44271196061E+02  0.21039653239E+03  0.21549774149E+03  0.41800000000E+01 0.  1.
</event>
<event>
11    1  0.8039394E-009  0.2391079E+03  0.7561462E-02  0.1029867E+00
         22   -1    0    0    0    0  0.00000000000E+00  0.00000000000E+00  0.17655263703E+04  0.17655263703E+04  0.00000000000E+00 0.  1.
         22   -1    0    0    0    0 -0.00000000000E+00 -0.00000000000E+00 -0.14344303289E+04  0.14344303289E+04  0.00000000000E+00 0.  1.
        -24    2    1    2    0    0  0.23232132497E+02  0.87733197008E+02 -0.13679358014E+04  0.13733123053E+04  0.80631788834E+02 0.  0.
         25    2    1    2    0    0 -0.14346794906E+03  0.85702754515E+02  0.13974817092E+03  0.25120933211E+03  0.12509421540E+03 0.  0.
         24    2    1    2    0    0  0.12023581656E+03 -0.17343595152E+03  0.15592836718E+04  0.15754350619E+04  0.78060131181E+02 0.  0.
        -11    1    5    5    0    0  0.10876342277E+03 -0.18093182812E+03  0.14789834557E+04  0.14939738521E+04  0.00000000000E+00 0.  1.
         12    1    5    5    0    0  0.11472393791E+02  0.74958765984E+01  0.80300216095E+02  0.81461209727E+02  0.00000000000E+00 0. -1.
         13    1    3    3    0    0 -0.23658538814E+02  0.28740185655E+02 -0.24082226622E+03  0.24368235192E+03  0.00000000000E+00 0. -1.
        -14    1    3    3    0    0  0.46890671311E+02  0.58993011352E+02 -0.11271135351E+04  0.11296299534E+04  0.00000000000E+00 0.  1.
          5    1    4    4  501    0 -0.42380281612E+02  0.18390573276E+02 -0.19982405621E+02  0.50508122014E+02  0.41800000000E+01 0. -1.
         -5    1    4    4    0  501 -0.10108766745E+03  0.67312181239E+02  0.15973057654E+03  0.20070121010E+03  0.41800000000E+01 0. -1.
</event>
<event>
11    1  0.8039394E-009  0.1336094E+03  0.7561462E-02  0.1114912E+00
         22   -1    0    0    0    0  0.00000000000E+00  0.00000000000E+00  0.20474384002E+04  0.20474384002E+04  0.00000000000E+00 0. -1.
         22   -1    0    0    0    0 -0.00000000000E+00 -0.00000000000E+00 -0.72233584807E+03  0.72233584807E+03  0.00000000000E+00 0. -1.
         24    2    1    2    0    0 -0.31852919871E+02  0.33820074448E+02 -0.68349750899E+03  0.69026280979E+03  0.84471864226E+02 0.  0.
         25    2    1    2    0    0  0.56315952893E+02 -0.41646817903E+02  0.11434660743E+03  0.18337788986E+03  0.12508541030E+03 0.  0.
        -24    2    1    2    0    0 -0.24463033022E+02  0.78267434558E+01  0.18942534537E+04  0.18961335486E+04  0.80415107187E+02 0.  0.
        -11    1    3    3    0    0 -0.48775509391E+02  0.48206568082E+02 -0.39477394657E+03  0.40068615201E+03  0.00000000000E+00 0.  1.
         12    1    3    3    0    0  0.16922589520E+02 -0.14386493634E+02 -0.28872356241E+03  0.28957665778E+03  0.00000000000E+00 0. -1.
         13    1    5    5    0    0 -0.44538733939E+02  0.77880626522E+01  0.17389732813E+04  0.17395609866E+04  0.00000000000E+00 0. -1.
        -14    1    5    5    0    0  0.20075700917E+02  0.38680803630E-01  0.15528017233E+03  0.15657256203E+03  0.00000000000E+00 0.  1.
          5    1    4    4  501    0 -0.39491468218E+02 -0.22100547303E+02  0.34185685381E+02  0.56869532599E+02  0.41800000000E+01 0.  1.
         -5    1    4    4    0  501  0.95807421111E+02 -0.19546270600E+02  0.80160922047E+02  0.12650835726E+03  0.41800000000E+01 0.  1.
</event>
<event>
11    1  0.8039394E-009  0.1337368E+03  0.7561462E-02  0.1114761E+00
         22   -1    0    0    0    0  0.00000000000E+00  0.00000000000E+00  0.15224078394E+03  0.15224078394E+03  0.00000000000E+00 0.  1.
         22   -1    0    0    0    0 -0.00000000000E+00 -0.00000000000E+00 -0.10091165955E+04  0.10091165955E+04  0.00000000000E+00 0.  1.
        -24    2    1    2    0    0  0.69004712634E+01 -0.37609309820E+02 -0.91135642476E+03  0.91573877987E+03  0.80900576777E+02 0.  0.
         25    2    1    2    0    0  0.14016417098E+02 -0.16137595349E+02 -0.10811235745E+02  0.12736184049E+03  0.12508906292E+03 0.  0.
         24    2    1    2    0    0 -0.20916888361E+02  0.53746905169E+02  0.65291848937E+02  0.11825675909E+03  0.79971179175E+02 0.  0.
        -13    1    5    5    0    0 -0.18878723211E+02  0.40459775971E+01  0.65735296188E+02  0.68512081342E+02  0.00000000000E+00 0.  1.
         14    1    5    5    0    0 -0.20381651504E+01  0.49700927572E+02 -0.44344725124E+00  0.49744677747E+02  0.00000000000E+00 0. -1.
         11    1    3    3    0    0  0.18065790189E+02  0.57249205009E+01 -0.54248073971E+02  0.57463040465E+02  0.00000000000E+00 0. -1.
        -12    1    3    3    0    0 -0.11165318926E+02 -0.43334230321E+02 -0.85710835079E+03  0.85827573941E+03  0.00000000000E+00 0.  1.
          5    1    4    4  501    0 -0.54856432232E+02 -0.90713096667E+01 -0.15411549770E+02  0.57848985147E+02  0.41800000000E+01 0. -1.
         -5    1    4    4    0  501  0.68872849329E+02 -0.70662856827E+01  0.46003140250E+01  0.69512855338E+02  0.41800000000E+01 0. -1.
</event>
<event>
11    1  0.8039394E-009  0.1603099E+03  0.7561462E-02  0.1086786E+00
         22   -1    0    0    0    0  0.00000000000E+00  0.00000000000E+00  0.44792022487E+04  0.44792022487E+04  0.00000000000E+00 0. -1.
         22   -1    0    0    0    0 -0.00000000000E+00 -0.00000000000E+00 -0.14948140061E+02  0.14948140061E+02  0.00000000000E+00 0. -1.
        -24    2    1    2    0    0 -0.54055258578E+02 -0.74763965568E+02  0.40660945123E+03  0.42458028957E+03  0.80159559238E+02 0.  0.
         25    2    1    2    0    0  0.86139748781E+02  0.99499804859E+02  0.16017168198E+04  0.16119747296E+04  0.12508193487E+03 0.  0.
         24    2    1    2    0    0 -0.32084490203E+02 -0.24735839291E+02  0.24559278376E+04  0.24575953696E+04  0.80945543422E+02 0.  0.
        -11    1    5    5    0    0 -0.35447014172E+02  0.15823667728E+02  0.61857056215E+03  0.61978739873E+03  0.00000000000E+00 0.  1.
         12    1    5    5    0    0  0.33625239687E+01 -0.40559507020E+02  0.18373572754E+04  0.18378079709E+04  0.00000000000E+00 0. -1.
         13    1    3    3    0    0  0.20405981603E+02 -0.25700922802E+02  0.98212130616E+02  0.10354981467E+03  0.00000000000E+00 0. -1.
        -14    1    3    3    0    0 -0.74461240181E+02 -0.49063042766E+02  0.30839732061E+03  0.32103047490E+03  0.00000000000E+00 0.  1.
          5    1    4    4  501    0  0.84814560829E+02  0.56134260832E+01  0.89461706046E+03  0.89865576143E+03  0.41800000000E+01 0.  1.
         -5    1    4    4    0  501  0.13251879521E+01  0.93886378776E+02  0.70709975933E+03  0.71331896813E+03  0.41800000000E+01 0.  1.
</event>
<event>
11    1  0.8039394E-009  0.2227614E+03  0.7561462E-02  0.1039501E+00
         22   -1    0    0    0    0  0.00000000000E+00  0.00000000000E+00  0.19163990482E+03  0.19163990482E+03  0.00000000000E+00 0. -1.
         22   -1    0    0    0    0 -0.00000000000E+00 -0.00000000000E+00 -0.95134363526E+03  0.95134363526E+03  0.00000000000E+00 0.  1.
         24    2    1    2    0    0  0.15478256803E+03  0.88355414103E+02 -0.62185789834E+03  0.65236925291E+03  0.84344969317E+02 0.  0.
         25    2    1    2    0    0 -0.13793887649E+03 -0.16696980016E+03 -0.23318901266E+03  0.34195049732E+03  0.12508788583E+03 0.  0.
        -24    2    1    2    0    0 -0.16843691535E+02  0.78614386052E+02  0.95343180543E+02  0.14866378985E+03  0.80911486813E+02 0.  0.
        -13    1    3    3    0    0  0.12325444061E+03  0.99556928906E+02 -0.56071572386E+03  0.58267088670E+03  0.00000000000E+00 0.  1.
         14    1    3    3    0    0  0.31528127419E+02 -0.11201514802E+02 -0.61142174478E+02  0.69698366210E+02  0.00000000000E+00 0. -1.
         11    1    5    5    0    0 -0.38370620693E+02  0.82458891772E+02  0.84950686145E+02  0.12445237017E+03  0.00000000000E+00 0. -1.
        -12    1    5    5    0    0  0.21526929158E+02 -0.38445057196E+01  0.10392494398E+02  0.24211419682E+02  0.00000000000E+00 0.  1.
          5    1    4    4  501    0 -0.13934979850E+03 -0.18382933254E+03 -0.22641374655E+03  0.32325260536E+03  0.41800000000E+01 0. -1.
         -5    1    4    4    0  501  0.14109220082E+01  0.16859532380E+02 -0.67752661027E+01  0.18697891960E+02  0.41800000000E+01 0. -1.
</event>
<event>
11    1  0.8039394E-009  0.1340812E+03  0.7561462E-02  0.1114354E+00
         22   -1    0    0    0    0  0.00000000000E+00  0.00000000000E+00  0.34852965183E+03  0.34852965183E+03  0.00000000000E+00 0. -1.
         22   -1    0    0    0    0 -0.00000000000E+00 -0.00000000000E+00 -0.10348378774E+04  0.10348378774E+04  0.00000000000E+00 0.  1.
         24    2    1    2    0    0 -0.49065553869E+02  0.32947669845E+01 -0.92179000365E+03  0.92654353820E+03  0.79798704800E+02 0.  0.
         25    2    1    2    0    0  0.33730288326E+02  0.28893402551E+02 -0.62949902871E+02  0.14691181636E+03  0.12509128848E+03 0.  0.
        -24    2    1    2    0    0  0.15335265542E+02 -0.32188169536E+02  0.29843168092E+03  0.30991217470E+03  0.75583326350E+02 0.  0.
        -13    1    3    3    0    0 -0.35058434768E+02  0.31073536768E+02 -0.77882738998E+03  0.78023506837E+03  0.00000000000E+00 0.  1.
         14    1    3    3    0    0 -0.14007119101E+02 -0.27778769784E+02 -0.14296261366E+03  0.14630846982E+03  0.00000000000E+00 0. -1.
         11    1    5    5    0    0 -0.16619857280E+02 -0.45786889965E+02  0.18274323740E+03  0.18912363618E+03  0.00000000000E+00 0. -1.
        -12    1    5    5    0    0  0.31955122822E+02  0.13598720430E+02  0.11568844352E+03  0.12078853851E+03  0.00000000000E+00 0.  1.
          5    1    4    4  501    0 -0.81029417553E+01 -0.42812155316E+02 -0.43149524717E+02  0.61464560449E+02  0.41800000000E+01 0. -1.
         -5    1    4    4    0  501  0.41833230082E+02  0.71705557867E+02 -0.19800378154E+02  0.85447255913E+02  0.41800000000E+01 0. -1.
</event>
<event>
11    1  0.8039394E-009  0.1291571E+03  0.7561462E-02  0.1120309E+00
         22   -1    0    0    0    0  0.00000000000E+00  0.00000000000E+00  0.11163381254E+03  0.11163381254E+03  0.00000000000E+00 0.  1.
         22   -1    0    0    0    0 -0.00000000000E+00 -0.00000000000E+00 -0.97922429382E+03  0.97922429382E+03  0.00000000000E+00 0. -1.
        -24    2    1    2    0    0  0.27476317863E+02  0.24230480671E+02 -0.54378698809E+03  0.55073164816E+03  0.79113814389E+02 0.  0.
         25    2    1    2    0    0 -0.14606013133E+02 -0.13355452785E+02 -0.40496205582E+03  0.42430147848E+03  0.12508306941E+03 0.  0.
         24    2    1    2    0    0 -0.12870304730E+02 -0.10875027886E+02  0.81158562636E+02  0.11582497972E+03  0.80899954646E+02 0.  0.
        -11    1    5    5    0    0 -0.93357996020E+01 -0.17997071621E+02  0.96467221356E+02  0.98574725652E+02  0.00000000000E+00 0.  1.
         12    1    5    5    0    0 -0.35345051282E+01  0.71220437351E+01 -0.15308658720E+02  0.17250254064E+02  0.00000000000E+00 0. -1.
         13    1    3    3    0    0  0.10213740452E+02  0.16791822934E+02 -0.52019841465E+03  0.52056956924E+03  0.00000000000E+00 0. -1.
        -14    1    3    3    0    0  0.17262577411E+02  0.74386577367E+01 -0.23588573444E+02  0.30162078923E+02  0.00000000000E+00 0.  1.
          5    1    4    4  501    0  0.57294663127E+01  0.13741098900E+02  0.22806155986E+01  0.15630681070E+02  0.41800000000E+01 0.  1.
         -5    1    4    4    0  501 -0.20335479445E+02 -0.27096551685E+02 -0.40724267142E+03  0.40867079741E+03  0.41800000000E+01 0.  1.
</event>
<event>
11    1  0.8039394E-009  0.1346468E+03  0.7561462E-02  0.1113688E+00
         22   -1    0    0    0    0  0.00000000000E+00  0.00000000000E+00  0.41558188115E+03  0.41558188115E+03  0.00000000000E+00 0.  1.
         22   -1    0    0    0    0 -0.00000000000E+00 -0.00000000000E+00 -0.51705502428E+03  0.51705502428E+03  0.00000000000E+00 0. -1.
        -24    2    1    2    0    0  0.29411635622E+02  0.36439784598E+02 -0.32899807387E+03  0.34323746659E+03  0.85902989742E+02 0.  0.
         25    2    1    2    0    0 -0.50108437837E+02 -0.37877821784E+02 -0.14836603713E+03  0.20397919056E+03  0.12509773892E+03 0.  0.
         24    2    1    2    0    0  0.20696802215E+02  0.14380371862E+01  0.37589096788E+03  0.38542024828E+03  0.82609457556E+02 0.  0.
        -11    1    5    5    0    0  0.87096928865E+01  0.12139731276E+02  0.36650769724E+03  0.36681210989E+03  0.00000000000E+00 0.  1.
         12    1    5    5    0    0  0.11987109329E+02 -0.10701694090E+02  0.93832706393E+01  0.18608138390E+02  0.00000000000E+00 0. -1.
         11    1    3    3    0    0  0.15037110024E+02  0.64475343489E+02 -0.23091557476E+03  0.24021904018E+03  0.00000000000E+00 0. -1.
        -12    1    3    3    0    0  0.14374525597E+02 -0.28035558891E+02 -0.98082499110E+02  0.10301842641E+03  0.00000000000E+00 0.  1.
          5    1    4    4  501    0 -0.82669503249E+02 -0.54650673172E+02 -0.84800823492E+02  0.13049749005E+03  0.41800000000E+01 0.  1.
         -5    1    4    4    0  501  0.32561065412E+02  0.16772851388E+02 -0.63565213641E+02  0.73481700509E+02  0.41800000000E+01 0.  1.
</event>
<event>
11    1  0.8039394E-009  0.2586948E+03  0.7561462E-02  0.1019367E+00
         22   -1    0    0    0    0  0.00000000000E+00  0.00000000000E+00  0.27422291526E+03  0.27422291526E+03  0.00000000000E+00 0.  1.
         22   -1    0    0    0    0 -0.00000000000E+00 -0.00000000000E+00 -0.23939773598E+04  0.23939773598E+04  0.00000000000E+00 0.  1.
         24    2    1    2    0    0  0.65550755702E+01  0.95466840967E+01 -0.19700723845E+04  0.19718170692E+04  0.82117269796E+02 0.  0.
         25    2    1    2    0    0 -0.23132700178E+03  0.94596169009E+01 -0.31117442252E+03  0.40752730568E+03  0.12508923829E+03 0.  0.
        -24    2    1    2    0    0  0.22477192621E+03 -0.19006300998E+02  0.16149236250E+03  0.28885590018E+03  0.80462970554E+02 0.  0.
        -13    1    3    3    0    0  0.16038717465E+02 -0.11019238391E+02 -0.18145547051E+04  0.18146590429E+04  0.00000000000E+00 0.  1.
         14    1    3    3    0    0 -0.94836418951E+01  0.20565922487E+02 -0.15551767934E+03  0.15715802627E+03  0.00000000000E+00 0. -1.
         11    1    5    5    0    0  0.64392436917E+02 -0.88011558432E+01  0.60438540453E+01  0.65271543937E+02  0.00000000000E+00 0. -1.
        -12    1    5    5    0    0  0.16037948930E+03 -0.10205145154E+02  0.15544850845E+03  0.22358435624E+03  0.00000000000E+00 0.  1.
          5    1    4    4  501    0 -0.89335234578E+02 -0.31702244203E+02 -0.49675712438E+02  0.10710259208E+03  0.41800000000E+01 0.  1.
         -5    1    4    4    0  501 -0.14199176721E+03  0.41161861104E+02 -0.26149871009E+03  0.30042471360E+03  0.41800000000E+01 0.  1.
</event>
<event>
11    1  0.8039394E-009  0.1386030E+03  0.7561462E-02  0.1109128E+00
         22   -1    0    0    0    0  0.00000000000E+00  0.00000000000E+00  0.43755130435E+03  0.43755130435E+03  0.00000000000E+00 0.  1.
         22   -1    0    0    0    0 -0.00000000000E+00 -0.00000000000E+00 -0.15360221765E+04  0.15360221765E+04  0.00000000000E+00 0. -1.
        -24    2    1    2    0    0  0.17361976443E+02 -0.15570485776E+02 -0.14593325345E+04  0.14617220582E+04  0.80225000721E+02 0.  0.
         25    2    1    2    0    0 -0.49249500688E+01  0.72825728499E+02  0.80532254340E+01  0.14505450563E+03  0.12509241903E+03 0.  0.
         24    2    1    2    0    0 -0.12437026374E+02 -0.57255242723E+02  0.35280843690E+03  0.36679691710E+03  0.81445336307E+02 0.  0.
        -13    1    5    5    0    0 -0.35386059403E+02 -0.14644369310E+02  0.25290035467E+03  0.25578354159E+03  0.00000000000E+00 0.  1.
         14    1    5    5    0    0  0.22949033029E+02 -0.42610873413E+02  0.99908082223E+02  0.11101337552E+03  0.00000000000E+00 0. -1.
         13    1    3    3    0    0  0.30619206569E+02  0.59665857311E+01 -0.13016923248E+04  0.13020660676E+04  0.00000000000E+00 0. -1.
        -14    1    3    3    0    0 -0.13257230127E+02 -0.21537071507E+02 -0.15764020974E+03  0.15965599058E+03  0.00000000000E+00 0.  1.
          5    1    4    4  501    0 -0.60177468503E+01 -0.16704535772E+02  0.44653529101E+02  0.48235514444E+02  0.41800000000E+01 0. -1.
         -5    1    4    4    0  501  0.10927967815E+01  0.89530264270E+02 -0.36600303667E+02  0.96818991183E+02  0.41800000000E+01 0. -1.
</event>
<event>
11    1  0.8039394E-009  0.1350689E+03  0.7561462E-02  0.1113193E+00
         22   -1    0    0    0    0  0.00000000000E+00  0.00000000000E+00  0.10061346126E+04  0.10061346126E+04  0.00000000000E+00 0.  1.
         22   -1    0    0    0    0 -0.00000000000E+00 -0.00000000000E+00 -0.83181020186E+02  0.83181020186E+02  0.00000000000E+00 0. -1.
         24    2    1    2    0    0 -0.39738857126E+01  0.51016990106E+02 -0.34285564206E+02  0.98579518391E+02  0.76966853165E+02 0.  0.
         25    2    1    2    0    0  0.46321423348E+02 -0.43525326991E+02  0.35229926852E+03  0.37921297027E+03  0.12509026289E+03 0.  0.
        -24    2    1    2    0    0 -0.42347537635E+02 -0.74916631148E+01  0.60493988812E+03  0.61152314415E+03  0.78478332218E+02 0.  0.
        -13    1    3    3    0    0  0.15142543146E+02 -0.97988761934E-01  0.17641714602E+02  0.23249436742E+02  0.00000000000E+00 0.  1.
         14    1    3    3    0    0 -0.19116428858E+02  0.51114978868E+02 -0.51927278808E+02  0.75330081650E+02  0.00000000000E+00 0. -1.
         11    1    5    5    0    0 -0.12329202359E+02 -0.22747484864E+02  0.57552963139E+02  0.63101512379E+02  0.00000000000E+00 0. -1.
        -12    1    5    5    0    0 -0.30018335276E+02  0.15255821749E+02  0.54738692498E+03  0.54842163177E+03  0.00000000000E+00 0.  1.
          5    1    4    4  501    0  0.59940121511E+02 -0.80124630624E+02  0.23290573749E+03  0.25352579663E+03  0.41800000000E+01 0.  1.
         -5    1    4    4    0  501 -0.13618698163E+02  0.36599303633E+02  0.11939353103E+03  0.12568717364E+03  0.41800000000E+01 0.  1.
</event>
<event>
11    1  0.8039394E-009  0.1701386E+03  0.7561462E-02  0.1077911E+00
         22   -1    0    0    0    0  0.00000000000E+00  0.00000000000E+00  0.10183452635E+04  0.10183452635E+04  0.00000000000E+00 0.  1.
         22   -1    0    0    0    0 -0.00000000000E+00 -0.00000000000E+00 -0.31875066456E+03  0.31875066456E+03  0.00000000000E+00 0.  1.
        -24    2    1    2    0    0  0.93020658533E+02  0.63592659026E+02 -0.26689553039E+03  0.30065155745E+03  0.80381998344E+02 0.  0.
         25    2    1    2    0    0 -0.17855421238E+03 -0.69704461043E+02  0.43015418732E+03  0.48725931328E+03  0.12509474353E+03 0.  0.
         24    2    1    2    0    0  0.85533553850E+02  0.61118020169E+01  0.53633594196E+03  0.54918505729E+03  0.81207398376E+02 0.  0.
        -11    1    5    5    0    0  0.86751254162E+02 -0.18700990696E+02  0.34447908700E+03  0.35572650805E+03  0.00000000000E+00 0.  1.
         12    1    5    5    0    0 -0.12177003126E+01  0.24812792712E+02  0.19185685497E+03  0.19345854924E+03  0.00000000000E+00 0. -1.
         13    1    3    3    0    0  0.20684986903E+02  0.29220044726E+01 -0.39366725026E+01  0.21258038097E+02  0.00000000000E+00 0. -1.
        -14    1    3    3    0    0  0.72335671630E+02  0.60670654553E+02 -0.26295885789E+03  0.27939351935E+03  0.00000000000E+00 0.  1.
          5    1    4    4  501    0 -0.15535773024E+03 -0.10416280739E+03  0.35540404577E+03  0.40164091292E+03  0.41800000000E+01 0.  1.
         -5    1    4    4    0  501 -0.23196482146E+02  0.34458346347E+02  0.74750141551E+02  0.85618400352E+02  0.41800000000E+01 0.  1.
</event>
<event>
11    1  0.8039394E-009  0.1332223E+03  0.7561462E-02  0.1115372E+00
         22   -1    0    0    0    0  0.00000000000E+00  0.00000000000E+00  0.74784159904E+03  0.74784159904E+03  0.00000000000E+00 0.  1.
         22   -1    0    0    0    0 -0.00000000000E+00 -0.00000000000E+00 -0.27387733233E+03  0.27387733233E+03  0.00000000000E+00 0. -1.
        -24    2    1    2    0    0 -0.25045949090E+02 -0.77098046439E+01 -0.23886544884E+03  0.25399842286E+03  0.82290676946E+02 0.  0.
         25    2    1    2    0    0 -0.18014181668E+02  0.29901852922E+02  0.15579280268E+03  0.20282340906E+03  0.12508919356E+03 0.  0.
         24    2    1    2    0    0  0.43060130757E+02 -0.22192048278E+02  0.55703691287E+03  0.56489709945E+03  0.80448423195E+02 0.  0.
        -13    1    5    5    0    0  0.42979785001E+02 -0.57475790001E+01  0.53798460428E+03  0.53972931274E+03  0.00000000000E+00 0.  1.
         14    1    5    5    0    0  0.80345756028E-01 -0.16444469278E+02  0.19052308588E+02  0.25167786709E+02  0.00000000000E+00 0. -1.
         11    1    3    3    0    0 -0.42349779071E+02  0.31140484395E+01 -0.22581408346E+03  0.22977206395E+03  0.00000000000E+00 0. -1.
        -12    1    3    3    0    0  0.17303829981E+02 -0.10823853083E+02 -0.13051365384E+02  0.24226358909E+02  0.00000000000E+00 0.  1.
          5    1    4    4  501    0 -0.55754689178E+02 -0.25174614157E+02  0.58471761191E+02  0.84727597747E+02  0.41800000000E+01 0. -1.
         -5    1    4    4    0  501  0.37740507511E+02  0.55076467079E+02  0.97321041489E+02  0.11809581131E+03  0.41800000000E+01 0. -1.
</event>
<event>
11    1  0.8039394E-009  0.6913888E+03  0.7561462E-02  0.9045092E-01
         22   -1    0    0    0    0  0.00000000000E+00  0.00000000000E+00  0.50678522084E+03  0.50678522084E+03  0.00000000000E+00 0. -1.
         22   -1    0    0    0    0 -0.00000000000E+00 -0.00000000000E+00 -0.25000467351E+04  0.25000467351E+04  0.00000000000E+00 0. -1.
         24    2    1    2    0    0  0.21834995526E+03 -0.45536661841E+03 -0.14081546464E+04  0.14981570517E+04  0.80867690551E+02 0.  0.
         25    2    1    2    0    0  0.42011225786E+03  0.62627061181E+02 -0.61090630550E+03  0.75449981381E+03  0.12508795685E+03 0.  0.
        -24    2    1    2    0    0 -0.63846221313E+03  0.39273955723E+03  0.25799437634E+02  0.75417509039E+03  0.78968972226E+02 0.  0.
        -11    1    3    3    0    0  0.17794724038E+03 -0.40345440881E+03 -0.12847197991E+04  0.13582877613E+04  0.00000000000E+00 0.  1.
         12    1    3    3    0    0  0.40402714882E+02 -0.51912209604E+02 -0.12343484732E+03  0.13986929044E+03  0.00000000000E+00 0. -1.
         11    1    5    5    0    0 -0.49518224512E+03  0.28045098659E+03 -0.74042844905E+01  0.56913358290E+03  0.00000000000E+00 0. -1.
        -12    1    5    5    0    0 -0.14327996801E+03  0.11228857064E+03  0.33203722124E+02  0.18504150748E+03  0.00000000000E+00 0.  1.
          5    1    4    4  501    0  0.23899026285E+03  0.95232520481E+02 -0.38547058889E+03  0.46345509599E+03  0.41800000000E+01 0. -1.
         -5    1    4    4    0  501  0.18112199502E+03 -0.32605459300E+02 -0.22543571660E+03  0.29104471783E+03  0.41800000000E+01 0. -1.
</event>
<event>
11    1  0.8039394E-009  0.1574765E+03  0.7561462E-02  0.1089475E+00
         22   -1    0    0    0    0  0.00000000000E+00  0.00000000000E+00  0.90821210765E+03  0.90821210765E+03  0.00000000000E+00 0. -1.
         22   -1    0    0    0    0 -0.00000000000E+00 -0.00000000000E+00 -0.57777288696E+03  0.57777288696E+03  0.00000000000E+00 0. -1.
        -24    2    1    2    0    0  0.31428512628E+02  0.49988748824E+02 -0.54500949476E+03  0.55412393997E+03  0.80816861205E+02 0.  0.
         25    2    1    2    0    0  0.70758345983E+02 -0.50753135957E+02  0.24682000720E+03  0.29008396908E+03  0.12508384719E+03 0.  0.
         24    2    1    2    0    0 -0.10218685861E+03  0.76438713388E+00  0.62862870825E+03  0.64177708555E+03  0.79126710653E+02 0.  0.
        -13    1    5    5    0    0 -0.80978177712E+02 -0.16122847191E+02  0.58209668208E+03  0.58792342933E+03  0.00000000000E+00 0.  1.
         14    1    5    5    0    0 -0.21208680898E+02  0.16887234325E+02  0.46532026170E+02  0.53853656218E+02  0.00000000000E+00 0. -1.
         11    1    3    3    0    0  0.35750176808E+02  0.68654960460E+02 -0.36623163726E+03  0.37432230880E+03  0.00000000000E+00 0. -1.
        -12    1    3    3    0    0 -0.43216641801E+01 -0.18666211637E+02 -0.17877785750E+03  0.17980163116E+03  0.00000000000E+00 0.  1.
          5    1    4    4  501    0  0.74131169354E+01 -0.39640460241E+02  0.21391172724E+03  0.21772004924E+03  0.41800000000E+01 0. -1.
         -5    1    4    4    0  501  0.63345229047E+02 -0.11112675716E+02  0.32908279956E+02  0.72363919838E+02  0.41800000000E+01 0. -1.
</event>
<event>
11    1  0.8039394E-009  0.1935951E+03  0.7561462E-02  0.1059148E+00
         22   -1    0    0    0    0  0.00000000000E+00  0.00000000000E+00  0.29139182348E+04  0.29139182348E+04  0.00000000000E+00 0. -1.
         22   -1    0    0    0    0 -0.00000000000E+00 -0.00000000000E+00 -0.23180929968E+03  0.23180929968E+03  0.00000000000E+00 0.  1.
        -24    2    1    2    0    0 -0.24231713945E+02  0.72260879658E+02 -0.18415801829E+03  0.21293592294E+03  0.74958127567E+02 0.  0.
         25    2    1    2    0    0  0.95241647764E+02 -0.19456577362E+03  0.48340552044E+03  0.54429281951E+03  0.12508782694E+03 0.  0.
         24    2    1    2    0    0 -0.71009933819E+02  0.12230489396E+03  0.23828614330E+04  0.23884987920E+04  0.83048016066E+02 0.  0.
        -11    1    5    5    0    0 -0.47012947369E+02  0.10385260244E+02  0.85597649572E+03  0.85732947697E+03  0.00000000000E+00 0.  1.
         12    1    5    5    0    0 -0.23996986451E+02  0.11191963372E+03  0.15268849373E+04  0.15311693151E+04  0.00000000000E+00 0. -1.
         11    1    3    3    0    0  0.12060397630E+02  0.49124746701E+02 -0.46509476429E+02  0.68715539196E+02  0.00000000000E+00 0. -1.
        -12    1    3    3    0    0 -0.36292111574E+02  0.23136132958E+02 -0.13764854186E+03  0.14422038374E+03  0.00000000000E+00 0.  1.
          5    1    4    4  501    0  0.30567629166E+02 -0.27416840200E+02  0.23124802714E+03  0.23490250219E+03  0.41800000000E+01 0.  1.
         -5    1    4    4    0  501  0.64674018598E+02 -0.16714893342E+03  0.25215749330E+03  0.30939031732E+03  0.41800000000E+01 0.  1.
</event>
<event>
11    1  0.8039394E-009  0.1481629E+03  0.7561462E-02  0.1098771E+00
         22   -1    0    0    0    0  0.00000000000E+00  0.00000000000E+00  0.23300934722E+03  0.23300934722E+03  0.00000000000E+00 0. -1.
         22   -1    0    0    0    0 -0.00000000000E+00 -0.00000000000E+00 -0.11299627340E+04  0.11299627340E+04  0.00000000000E+00 0. -1.
        -24    2    1    2    0    0 -0.42701483427E+02  0.96356460875E+00 -0.89812884046E+03  0.90274601580E+03  0.80564321065E+02 0.  0.
         25    2    1    2    0    0 -0.97540959046E+01 -0.62906490633E+02 -0.19116312805E+03  0.23715643809E+03  0.12508983033E+03 0.  0.
         24    2    1    2    0    0  0.52455579332E+02  0.61942926024E+02  0.19233858173E+03  0.22306962733E+03  0.78596531262E+02 0.  0.
        -11    1    5    5    0    0 -0.21530512759E+00  0.55868855772E+02  0.12826041222E+03  0.13990035291E+03  0.00000000000E+00 0.  1.
         12    1    5    5    0    0  0.52670884459E+02  0.60740702522E+01  0.64078169507E+02  0.83169274414E+02  0.00000000000E+00 0. -1.
         13    1    3    3    0    0  0.32710244542E+01  0.65381660283E+01 -0.66614605286E+03  0.66618616839E+03  0.00000000000E+00 0. -1.
        -14    1    3    3    0    0 -0.45972507881E+02 -0.55746014196E+01 -0.23198278761E+03  0.23655984741E+03  0.00000000000E+00 0.  1.
          5    1    4    4  501    0  0.14924079695E+02  0.25957764452E+02 -0.11049634069E+03  0.11455761605E+03  0.41800000000E+01 0.  1.
         -5    1    4    4    0  501 -0.24678175599E+02 -0.88864255085E+02 -0.80666787359E+02  0.12259882204E+03  0.41800000000E+01 0.  1.
</event>
<event>
11    1  0.8039394E-009  0.1977025E+03  0.7561462E-02  0.1056160E+00
         22   -1    0    0    0    0  0.00000000000E+00  0.00000000000E+00  0.13997624124E+04  0.13997624124E+04  0.00000000000E+00 0. -1.
         22   -1    0    0    0    0 -0.00000000000E+00 -0.00000000000E+00 -0.44061501380E+03  0.44061501380E+03  0.00000000000E+00 0. -1.
         24    2    1    2    0    0  0.78194045730E+02  0.14119825852E+03 -0.34536827788E+03  0.38965443937E+03  0.80623059709E+02 0.  0.
         25    2    1    2    0    0 -0.32637126880E+02 -0.11248090446E+03  0.31381639939E+02  0.17420088909E+03  0.12507600296E+03 0.  0.
        -24    2    1    2    0    0 -0.45556918850E+02 -0.28717354064E+02  0.12731340365E+04  0.12765220977E+04  0.75751381093E+02 0.  0.
        -13    1    3    3    0    0  0.47220881624E+02  0.17066018772E+02 -0.71413140740E+02  0.87297750993E+02  0.00000000000E+00 0.  1.
         14    1    3    3    0    0  0.30973164105E+02  0.12413223975E+03 -0.27395513714E+03  0.30235668838E+03  0.00000000000E+00 0. -1.
         13    1    5    5    0    0 -0.39205591126E+02  0.40079268880E+00  0.11097345862E+04  0.11104269858E+04  0.00000000000E+00 0. -1.
        -14    1    5    5    0    0 -0.63513277237E+01 -0.29118146753E+02  0.16339945029E+03  0.16609511187E+03  0.00000000000E+00 0.  1.
          5    1    4    4  501    0  0.31571737377E+02  0.53694815433E+01 -0.98081011530E+01  0.33753180313E+02  0.41800000000E+01 0. -1.
         -5    1    4    4    0  501 -0.64208864257E+02 -0.11785038600E+03  0.41189741092E+02  0.14044770878E+03  0.41800000000E+01 0. -1.
</event>
<event>
11    1  0.8039394E-009  0.1534288E+03  0.7561462E-02  0.1093426E+00
         22   -1    0    0    0    0  0.00000000000E+00  0.00000000000E+00  0.21225369529E+04  0.21225369529E+04  0.00000000000E+00 0. -1.
         22   -1    0    0    0    0 -0.00000000000E+00 -0.00000000000E+00 -0.38881438880E+03  0.38881438880E+03  0.00000000000E+00 0. -1.
        -24    2    1    2    0    0  0.11701382616E+02 -0.22821769744E+02 -0.34131827015E+03  0.35162572830E+03  0.80527856864E+02 0.  0.
         25    2    1    2    0    0 -0.69655454245E+02 -0.45062123276E+02  0.98475597679E+02  0.17951908975E+03  0.12508870048E+03 0.  0.
         24    2    1    2    0    0  0.57954071629E+02  0.67883893021E+02  0.19765652366E+04  0.19802065237E+04  0.80254872129E+02 0.  0.
        -11    1    5    5    0    0 -0.89926678038E+01  0.33653632478E+02  0.31096599624E+03  0.31291098714E+03  0.00000000000E+00 0.  1.
         12    1    5    5    0    0  0.66946739433E+02  0.34230260542E+02  0.16655992403E+04  0.16672955365E+04  0.00000000000E+00 0. -1.
         13    1    3    3    0    0 -0.19024344536E+02 -0.40546965829E+02 -0.24326095805E+03  0.24734970353E+03  0.00000000000E+00 0. -1.
        -14    1    3    3    0    0  0.30725727151E+02  0.17725196085E+02 -0.98057312098E+02  0.10427602477E+03  0.00000000000E+00 0.  1.
          5    1    4    4  501    0 -0.47067206265E+02  0.28360575394E+02  0.71120866053E+00  0.55114629274E+02  0.41800000000E+01 0.  1.
         -5    1    4    4    0  501 -0.22588247980E+02 -0.73422698670E+02  0.97764389018E+02  0.12440446048E+03  0.41800000000E+01 0.  1.
</event>
<event>
11    1  0.8039394E-009  0.3622424E+03  0.7561462E-02  0.9768241E-01
         22   -1    0    0    0    0  0.00000000000E+00  0.00000000000E+00  0.15405560010E+04  0.15405560010E+04  0.00000000000E+00 0. -1.
         22   -1    0    0    0    0 -0.00000000000E+00 -0.00000000000E+00 -0.50787980412E+03  0.50787980412E+03  0.00000000000E+00 0.  1.
        -24    2    1    2    0    0  0.42992565452E+01  0.16354974598E+02 -0.10488103547E+03  0.13288178930E+03  0.79822111754E+02 0.  0.
         25    2    1    2    0    0  0.29652864611E+03  0.14333201536E+03 -0.28337102999E+03  0.45212877425E+03  0.12509189935E+03 0.  0.
         24    2    1    2    0    0 -0.30082790265E+03 -0.15968698996E+03  0.14209282624E+04  0.14634252416E+04  0.81110721617E+02 0.  0.
        -11    1    5    5    0    0 -0.17044475646E+03 -0.49393385791E+02  0.64832500317E+03  0.67217291771E+03  0.00000000000E+00 0.  1.
         12    1    5    5    0    0 -0.13038314619E+03 -0.11029360417E+03  0.77260325920E+03  0.79125232388E+03  0.00000000000E+00 0. -1.
         13    1    3    3    0    0 -0.19170253278E+02  0.41373808254E+02 -0.72874867338E+02  0.85965323880E+02  0.00000000000E+00 0. -1.
        -14    1    3    3    0    0  0.23469509824E+02 -0.25018833657E+02 -0.32006168137E+02  0.46916465422E+02  0.00000000000E+00 0.  1.
          5    1    4    4  501    0  0.28048399980E+03  0.14180368345E+03 -0.29559086632E+03  0.43147536597E+03  0.41800000000E+01 0. -1.
         -5    1    4    4    0  501  0.16044646303E+02  0.15283319118E+01  0.12219836339E+02  0.20653408280E+02  0.41800000000E+01 0. -1.
</event>
<event>
11    1  0.8039394E-009  0.1725582E+03  0.7561462E-02  0.1075827E+00
         22   -1    0    0    0    0  0.00000000000E+00  0.00000000000E+00  0.17920383567E+04  0.17920383567E+04  0.00000000000E+00 0.  1.
         22   -1    0    0    0    0 -0.00000000000E+00 -0.00000000000E+00 -0.72801145327E+03  0.72801145327E+03  0.00000000000E+00 0.  1.
        -24    2    1    2    0    0  0.42848531279E+02 -0.11214593911E+03 -0.67950661005E+03  0.69469444496E+03  0.80364360671E+02 0.  0.
         25    2    1    2    0    0 -0.31121021164E+02  0.89521980120E+02  0.11484187286E+03  0.19446875116E+03  0.12508691591E+03 0.  0.
         24    2    1    2    0    0 -0.11727510116E+02  0.22623958994E+02  0.16286916406E+04  0.16308866139E+04  0.80655495688E+02 0.  0.
        -11    1    5    5    0    0  0.63463075567E+01 -0.12479505021E+01  0.14241824523E+04  0.14241971389E+04  0.00000000000E+00 0.  1.
         12    1    5    5    0    0 -0.18073817672E+02  0.23871909496E+02  0.20450918835E+03  0.20668947498E+03  0.00000000000E+00 0. -1.
         11    1    3    3    0    0 -0.13317525967E+01  0.12320698557E+02 -0.57616519152E+02  0.58934170539E+02  0.00000000000E+00 0. -1.
        -12    1    3    3    0    0  0.44180283876E+02 -0.12446663767E+03 -0.62189009090E+03  0.63576027442E+03  0.00000000000E+00 0.  1.
          5    1    4    4  501    0 -0.68829722725E+02  0.38948576806E+02  0.10335936793E+03  0.13021195684E+03  0.41800000000E+01 0. -1.
         -5    1    4    4    0  501  0.37708701561E+02  0.50573403315E+02  0.11482504928E+02  0.64256794315E+02  0.41800000000E+01 0. -1.
</event>
<event>
11    1  0.8039394E-009  0.1370479E+03  0.7561462E-02  0.1110900E+00
         22   -1    0    0    0    0  0.00000000000E+00  0.00000000000E+00  0.38407657063E+03  0.38407657063E+03  0.00000000000E+00 0.  1.
         22   -1    0    0    0    0 -0.00000000000E+00 -0.00000000000E+00 -0.87107601333E+03  0.87107601333E+03  0.00000000000E+00 0. -1.
        -24    2    1    2    0    0 -0.57217598329E+02  0.20835923133E+01 -0.74385360000E+03  0.75018683398E+03  0.78637858124E+02 0.  0.
         25    2    1    2    0    0  0.41484195191E+02  0.17118497163E+02 -0.81858418662E+02  0.15608570201E+03  0.12509182336E+03 0.  0.
         24    2    1    2    0    0  0.15733403139E+02 -0.19202089477E+02  0.33871257597E+03  0.34888004797E+03  0.79842460728E+02 0.  0.
        -11    1    5    5    0    0  0.97801492203E+01 -0.19381550164E+02  0.34158042283E+03  0.34226960290E+03  0.00000000000E+00 0.  1.
         12    1    5    5    0    0  0.59532539184E+01  0.17946068714E+00 -0.28678468646E+01  0.66104450678E+01  0.00000000000E+00 0. -1.
         13    1    3    3    0    0 -0.55940326664E+02 -0.24826064998E+02 -0.63913090741E+03  0.64205449181E+03  0.00000000000E+00 0. -1.
        -14    1    3    3    0    0 -0.12772716657E+01  0.26909657311E+02 -0.10472269259E+03  0.10813234217E+03  0.00000000000E+00 0.  1.
          5    1    4    4  501    0  0.54620687434E+01  0.59943209659E+02 -0.79654035388E+02  0.99926274487E+02  0.41800000000E+01 0. -1.
         -5    1    4    4    0  501  0.36022126447E+02 -0.42824712495E+02 -0.22043832736E+01  0.56159427523E+02  0.41800000000E+01 0. -1.
</event>
<event>
11    1  0.8565673E-009  0.1603884E+03  0.7561462E-02  0.1086713E+00
         22   -1    0    0    0    0  0.00000000000E+00  0.00000000000E+00  0.10449633969E+04  0.10449633969E+04  0.00000000000E+00 0.  1.
         22   -1    0    0    0    0 -0.00000000000E+00 -0.00000000000E+00 -0.51851356647E+03  0.51851356647E+03  0.00000000000E+00 0. -1.
        -24    2    1    2    0    0  0.23737328548E+02 -0.21438494154E+02 -0.34443558699E+03  0.35503929013E+03  0.79962204520E+02 0.  0.
         25    2    1    2    0    0  0.75284321730E+02  0.40613327842E+02 -0.12976626640E+03  0.19950558289E+03  0.12508406058E+03 0.  0.
         24    2    1    2    0    0 -0.99021650277E+02 -0.19174833687E+02  0.10006516838E+04  0.10089320904E+04  0.80418960236E+02 0.  0.
        -11    1    5    5    0    0 -0.98170700838E+02 -0.12402242525E+02  0.99543510839E+03  0.10003411204E+04  0.00000000000E+00 0.  1.
         12    1    5    5    0    0 -0.85094943931E+00 -0.67725911629E+01  0.52165754412E+01  0.85909699884E+01  0.00000000000E+00 0. -1.
         13    1    3    3    0    0  0.93120361559E+01 -0.46555009227E+02 -0.28493554684E+03  0.28886389313E+03  0.00000000000E+00 0. -1.
        -14    1    3    3    0    0  0.14425292392E+02  0.25116515073E+02 -0.59500040147E+02  0.66175396995E+02  0.00000000000E+00 0.  1.
          5    1    4    4  501    0  0.48145785439E+02 -0.20474149982E+02  0.11000659157E+01  0.52496571488E+02  0.41800000000E+01 0.  1.
         -5    1    4    4    0  501  0.27138536291E+02  0.61087477823E+02 -0.13086633232E+03  0.14700901140E+03  0.41800000000E+01 0. -1.
</event>
<event>
11    1  0.8039394E-009  0.5795646E+03  0.7561462E-02  0.9231434E-01
         22   -1    0    0    0    0  0.00000000000E+00  0.00000000000E+00  0.71727763772E+03  0.71727763772E+03  0.00000000000E+00 0. -1.
         22   -1    0    0    0    0 -0.00000000000E+00 -0.00000000000E+00 -0.25096999395E+04  0.25096999395E+04  0.00000000000E+00 0. -1.
        -24    2    1    2    0    0 -0.55113425931E+02  0.12692312043E+03 -0.20319167068E+04  0.20381748946E+04  0.79526280008E+02 0.  0.
         25    2    1    2    0    0 -0.51030759522E+03  0.97066304782E+02  0.11086591164E+02  0.53442148934E+03  0.12509079302E+03 0.  0.
         24    2    1    2    0    0  0.56542102115E+03 -0.22398942522E+03  0.22840781390E+03  0.65438119329E+03  0.78564768974E+02 0.  0.
        -11    1    5    5    0    0  0.58506016492E+02  0.12508991860E+01  0.21327189178E+02  0.62284570423E+02  0.00000000000E+00 0.  1.
         12    1    5    5    0    0  0.50691500466E+03 -0.22524032440E+03  0.20708062472E+03  0.59209662287E+03  0.00000000000E+00 0. -1.
         13    1    3    3    0    0 -0.57996071268E+02  0.11046286471E+03 -0.19728170420E+04  0.19767581213E+04  0.00000000000E+00 0. -1.
        -14    1    3    3    0    0  0.28826453363E+01  0.16460255720E+02 -0.59099664748E+02  0.61416773245E+02  0.00000000000E+00 0.  1.
          5    1    4    4  501    0 -0.19310180632E+03 -0.23568639131E+02  0.13088306620E+02  0.19501939526E+03  0.41800000000E+01 0.  1.
         -5    1    4    4    0  501 -0.31720578889E+03  0.12063494391E+03 -0.20017154554E+01  0.33940209408E+03  0.41800000000E+01 0.  1.
</event>
<event>
11    1  0.8039394E-009  0.1602119E+03  0.7561462E-02  0.1086878E+00
         22   -1    0    0    0    0  0.00000000000E+00  0.00000000000E+00  0.16960823416E+03  0.16960823416E+03  0.00000000000E+00 0. -1.
         22   -1    0    0    0    0 -0.00000000000E+00 -0.00000000000E+00 -0.32015501437E+04  0.32015501437E+04  0.00000000000E+00 0.  1.
         24    2    1    2    0    0  0.16403701179E+02 -0.24287634488E+02 -0.21381905076E+04  0.21400195992E+04  0.83464169455E+02 0.  0.
         25    2    1    2    0    0  0.81152606257E+02 -0.36296425562E+00 -0.10316899384E+04  0.10424095181E+04  0.12509035542E+03 0.  0.
        -24    2    1    2    0    0 -0.97556307437E+02  0.24650598744E+02  0.13793853650E+03  0.18872926061E+03  0.80416471072E+02 0.  0.
        -11    1    3    3    0    0  0.29241611081E+02 -0.50701699388E+02 -0.15329769531E+04  0.15340938931E+04  0.00000000000E+00 0.  1.
         12    1    3    3    0    0 -0.12837909902E+02  0.26414064900E+02 -0.60521355451E+03  0.60592570610E+03  0.00000000000E+00 0. -1.
         13    1    5    5    0    0 -0.95516457107E+02  0.41751681002E+02  0.89751439690E+02  0.13755696046E+03  0.00000000000E+00 0. -1.
        -14    1    5    5    0    0 -0.20398503298E+01 -0.17101082258E+02  0.48187096805E+02  0.51172300146E+02  0.00000000000E+00 0.  1.
          5    1    4    4  501    0  0.10177291945E+03 -0.24398645488E+02 -0.92848700651E+03  0.93437605636E+03  0.41800000000E+01 0.  1.
         -5    1    4    4    0  501 -0.20620313197E+02  0.24035681232E+02 -0.10320293193E+03  0.10803346171E+03  0.41800000000E+01 0.  1.
</event>
<event>
11    1  0.8039394E-009  0.2882914E+03  0.7561462E-02  0.1005272E+00
         22   -1    0    0    0    0  0.00000000000E+00  0.00000000000E+00  0.30094868125E+03  0.30094868125E+03  0.00000000000E+00 0. -1.
         22   -1    0    0    0    0 -0.00000000000E+00 -0.00000000000E+00 -0.90670329333E+03  0.90670329333E+03  0.00000000000E+00 0.  1.
        -24    2    1    2    0    0  0.28502017524E+02  0.25801970641E+03 -0.67276760543E+03  0.72556513296E+03  0.80261929646E+02 0.  0.
         25    2    1    2    0    0 -0.13219146330E+03 -0.24395743422E+03 -0.41811139858E+02  0.30722186408E+03  0.12508912691E+03 0.  0.
         24    2    1    2    0    0  0.10368944578E+03 -0.14062272189E+02  0.10882413321E+03  0.17486497754E+03  0.88237292213E+02 0.  0.
        -13    1    5    5    0    0  0.29299762325E+02 -0.12483992218E+02 -0.11105132224E+02  0.33729069001E+02  0.00000000000E+00 0.  1.
         14    1    5    5    0    0  0.74389683452E+02 -0.15782799713E+01  0.11992926544E+03  0.14113590854E+03  0.00000000000E+00 0. -1.
         13    1    3    3    0    0  0.29586851584E+00  0.90638572692E+01 -0.99810890432E+02  0.10022202800E+03  0.00000000000E+00 0. -1.
        -14    1    3    3    0    0  0.28206149008E+02  0.24895584914E+03 -0.57295671500E+03  0.62534310497E+03  0.00000000000E+00 0.  1.
          5    1    4    4  501    0 -0.10393609386E+03 -0.80736536545E+02  0.13895835290E+02  0.13240719988E+03  0.41800000000E+01 0. -1.
         -5    1    4    4    0  501 -0.28255369438E+02 -0.16322089768E+03 -0.55706975148E+02  0.17481466420E+03  0.41800000000E+01 0. -1.
</event>
<event>
11    1  0.8039394E-009  0.2959007E+03  0.7561462E-02  0.1001941E+00
         22   -1    0    0    0    0  0.00000000000E+00  0.00000000000E+00  0.78638564243E+03  0.78638564243E+03  0.00000000000E+00 0.  1.
         22   -1    0    0    0    0 -0.00000000000E+00 -0.00000000000E+00 -0.40715303054E+04  0.40715303054E+04  0.00000000000E+00 0. -1.
        -24    2    1    2    0    0  0.23200200207E+03 -0.18559055615E+03 -0.22376511434E+04  0.22578709216E+04  0.51280362706E+02 0.  0.
         25    2    1    2    0    0 -0.24111470654E+03  0.63940031235E+02 -0.18061468779E+04  0.18275777392E+04  0.12509683914E+03 0.  0.
         24    2    1    2    0    0  0.91127044703E+01  0.12165052491E+03  0.75865335826E+03  0.77246728703E+03  0.79176384994E+02 0.  0.
        -13    1    5    5    0    0  0.19648730861E+02  0.12269851257E+03  0.74446201419E+03  0.75476134519E+03  0.00000000000E+00 0.  1.
         14    1    5    5    0    0 -0.10536026390E+02 -0.10479876526E+01  0.14191344065E+02  0.17705941845E+02  0.00000000000E+00 0. -1.
         13    1    3    3    0    0  0.11631386821E+03 -0.11898411275E+03 -0.11244423487E+04  0.11366867338E+04  0.00000000000E+00 0. -1.
        -14    1    3    3    0    0  0.11568813386E+03 -0.66606443394E+02 -0.11132087946E+04  0.11211841878E+04  0.00000000000E+00 0.  1.
          5    1    4    4  501    0 -0.12150407885E+03 -0.27089005269E+02 -0.97681420227E+03  0.98472357215E+03  0.41800000000E+01 0. -1.
         -5    1    4    4    0  501 -0.11961062769E+03  0.91029036504E+02 -0.82933267561E+03  0.84285416709E+03  0.41800000000E+01 0. -1.
</event>
<event>
11    1  0.8039394E-009  0.1412517E+03  0.7561462E-02  0.1106169E+00
         22   -1    0    0    0    0  0.00000000000E+00  0.00000000000E+00  0.93830381852E+03  0.93830381852E+03  0.00000000000E+00 0.  1.
         22   -1    0    0    0    0 -0.00000000000E+00 -0.00000000000E+00 -0.23075890753E+03  0.23075890753E+03  0.00000000000E+00 0. -1.
         24    2    1    2    0    0  0.91428943433E+00 -0.61895681668E+02 -0.16798131421E+03  0.19683356761E+03  0.81815769148E+02 0.  0.
         25    2    1    2    0    0  0.25571987956E+02  0.10389661849E+03  0.10382383937E+03  0.19461428718E+03  0.12508755833E+03 0.  0.
        -24    2    1    2    0    0 -0.26486277391E+02 -0.42000936826E+02  0.77170238583E+03  0.77761487125E+03  0.81821232630E+02 0.  0.
        -11    1    3    3    0    0  0.35586228564E+02 -0.28077009432E+02 -0.12159788429E+03  0.12977189058E+03  0.00000000000E+00 0.  1.
         12    1    3    3    0    0 -0.34671939129E+02 -0.33818672236E+02 -0.46383429921E+02  0.67061677030E+02  0.00000000000E+00 0. -1.
         11    1    5    5    0    0  0.19518802357E+02 -0.16010411717E+02  0.79804560422E+02  0.83702358348E+02  0.00000000000E+00 0. -1.
        -12    1    5    5    0    0 -0.46005079748E+02 -0.25990525109E+02  0.69189782541E+03  0.69391251291E+03  0.00000000000E+00 0.  1.
          5    1    4    4  501    0  0.64065086409E+02  0.88476108830E+02  0.36152078592E+02  0.11513818792E+03  0.41800000000E+01 0. -1.
         -5    1    4    4    0  501 -0.38493098452E+02  0.15420509665E+02  0.67671760779E+02  0.79476099261E+02  0.41800000000E+01 0. -1.
</event>
<event>
11    1  0.9926497E-009  0.1733148E+03  0.7561462E-02  0.1075183E+00
         22   -1    0    0    0    0  0.00000000000E+00  0.00000000000E+00  0.11244337829E+04  0.11244337829E+04  0.00000000000E+00 0. -1.
         22   -1    0    0    0    0 -0.00000000000E+00 -0.00000000000E+00 -0.66817001726E+03  0.66817001726E+03  0.00000000000E+00 0. -1.
         24    2    1    2    0    0  0.55065013512E+01 -0.57655145446E+01 -0.59189825834E+03  0.59741519931E+03  0.80608990971E+02 0.  0.
         25    2    1    2    0    0  0.11427633272E+03  0.17181157197E+02  0.37514312633E+02  0.17436525015E+03  0.12506655998E+03 0.  0.
        -24    2    1    2    0    0 -0.11978283407E+03 -0.11415642653E+02  0.10106477113E+04  0.10208233507E+04  0.78697348366E+02 0.  0.
        -13    1    3    3    0    0  0.39918032293E+02 -0.49685961462E+01 -0.19980990297E+03  0.20381887443E+03  0.00000000000E+00 0.  1.
         14    1    3    3    0    0 -0.34411530942E+02 -0.79691839840E+00 -0.39208835537E+03  0.39359632487E+03  0.00000000000E+00 0. -1.
         13    1    5    5    0    0 -0.11665085705E+03 -0.32862448458E+02  0.89426464599E+03  0.90243926114E+03  0.00000000000E+00 0. -1.
        -14    1    5    5    0    0 -0.31319770186E+01  0.21446805805E+02  0.11638306533E+03  0.11838408953E+03  0.00000000000E+00 0.  1.
          5    1    4    4  501    0  0.72170219686E+02  0.66464405337E+02 -0.22085109602E+01  0.98226308630E+02  0.41800000000E+01 0.  1.
         -5    1    4    4    0  501  0.42106113029E+02 -0.49283248140E+02  0.39722823593E+02  0.76138941520E+02  0.41800000000E+01 0.  1.
</event>
<event>
11    1  0.8039394E-009  0.1437841E+03  0.7561462E-02  0.1103405E+00
         22   -1    0    0    0    0  0.00000000000E+00  0.00000000000E+00  0.11008318783E+03  0.11008318783E+03  0.00000000000E+00 0. -1.
         22   -1    0    0    0    0 -0.00000000000E+00 -0.00000000000E+00 -0.12674404052E+04  0.12674404052E+04  0.00000000000E+00 0. -1.
        -24    2    1    2    0    0  0.26809478804E+01 -0.72444372374E+02 -0.10958374829E+04  0.11013066935E+04  0.82226939233E+02 0.  0.
         25    2    1    2    0    0 -0.64652357323E+01  0.52347212812E+02 -0.11473524592E+03  0.17774410282E+03  0.12508700759E+03 0.  0.
         24    2    1    2    0    0  0.37842878519E+01  0.20097159562E+02  0.53215511481E+02  0.98472796726E+02  0.80291869923E+02 0.  0.
        -11    1    5    5    0    0 -0.17652646341E+02 -0.12980627302E+02 -0.99126303952E+01  0.24049383554E+02  0.00000000000E+00 0.  1.
         12    1    5    5    0    0  0.21436934193E+02  0.33077786864E+02  0.63128141876E+02  0.74423413171E+02  0.00000000000E+00 0. -1.
         11    1    3    3    0    0  0.27146890030E+02  0.37004399462E+01 -0.38773783564E+03  0.38870461289E+03  0.00000000000E+00 0. -1.
        -12    1    3    3    0    0 -0.24465942150E+02 -0.76144812320E+02 -0.70809964729E+03  0.71260208059E+03  0.00000000000E+00 0.  1.
          5    1    4    4  501    0  0.33036423357E+02  0.44414344048E+02 -0.12429236933E+03  0.13612532718E+03  0.41800000000E+01 0.  1.
         -5    1    4    4    0  501 -0.39501659090E+02  0.79328687640E+01  0.95571234114E+01  0.41618775637E+02  0.41800000000E+01 0.  1.
</event>
<event>
11    1  0.8039394E-009  0.1289974E+03  0.7561462E-02  0.1120507E+00
         22   -1    0    0    0    0  0.00000000000E+00  0.00000000000E+00  0.40089195800E+03  0.40089195800E+03  0.00000000000E+00 0. -1.
         22   -1    0    0    0    0 -0.00000000000E+00 -0.00000000000E+00 -0.14997515307E+03  0.14997515307E+03  0.00000000000E+00 0.  1.
         24    2    1    2    0    0 -0.61723117302E+01 -0.22678791938E+02 -0.99339170068E+02  0.13018519195E+03  0.80792873805E+02 0.  0.
         25    2    1    2    0    0 -0.17657382738E+02 -0.51350421512E+01  0.12404155072E+03  0.17712410880E+03  0.12509393186E+03 0.  0.
        -24    2    1    2    0    0  0.23829694468E+02  0.27813834089E+02  0.22621442427E+03  0.24355781032E+03  0.82498348561E+02 0.  0.
        -11    1    3    3    0    0  0.11133917472E+01 -0.51180209899E+02 -0.80009325535E+02  0.94984976175E+02  0.00000000000E+00 0.  1.
         12    1    3    3    0    0 -0.72857034774E+01  0.28501417961E+02 -0.19329844533E+02  0.35200215775E+02  0.00000000000E+00 0. -1.
         11    1    5    5    0    0  0.29608608282E+02 -0.22926738019E+02  0.72797356081E+02  0.81864278247E+02  0.00000000000E+00 0. -1.
        -12    1    5    5    0    0 -0.57789138137E+01  0.50740572108E+02  0.15341706819E+03  0.16169353208E+03  0.00000000000E+00 0.  1.
          5    1    4    4  501    0 -0.58724442281E+02  0.13854307608E+02  0.20181023140E+02  0.63759297796E+02  0.41800000000E+01 0.  1.
         -5    1    4    4    0  501  0.41067059542E+02 -0.18989349759E+02  0.10386052758E+03  0.11336481100E+03  0.41800000000E+01 0.  1.
</event>
<event>
11    1  0.8039394E-009  0.1803326E+03  0.7561462E-02  0.1069374E+00
         22   -1    0    0    0    0  0.00000000000E+00  0.00000000000E+00  0.20735404670E+04  0.20735404670E+04  0.00000000000E+00 0.  1.
         22   -1    0    0    0    0 -0.00000000000E+00 -0.00000000000E+00 -0.11969122081E+03  0.11969122081E+03  0.00000000000E+00 0.  1.
         24    2    1    2    0    0 -0.12684889665E+03 -0.24351702126E+02 -0.43382620261E+02  0.15896857396E+03  0.81885943769E+02 0.  0.
         25    2    1    2    0    0  0.13741000124E+03  0.53514110223E+01  0.47999461852E+03  0.51473630291E+03  0.12509389149E+03 0.  0.
        -24    2    1    2    0    0 -0.10561104593E+02  0.19000291104E+02  0.15172372479E+04  0.15195268109E+04  0.80500401828E+02 0.  0.
        -11    1    3    3    0    0 -0.10023369768E+03 -0.21919246247E+02 -0.67626633448E+02  0.12288453548E+03  0.00000000000E+00 0.  1.
         12    1    3    3    0    0 -0.26615198966E+02 -0.24324558791E+01  0.24244013187E+02  0.36084038480E+02  0.00000000000E+00 0. -1.
         13    1    5    5    0    0 -0.30216374533E+02 -0.12094013881E+01  0.22983321099E+03  0.23181414282E+03  0.00000000000E+00 0. -1.
        -14    1    5    5    0    0  0.19655269940E+02  0.20209692492E+02  0.12874040369E+04  0.12877126681E+04  0.00000000000E+00 0.  1.
          5    1    4    4  501    0  0.10341837581E+03  0.60535487516E+02  0.33659737959E+03  0.35731662997E+03  0.41800000000E+01 0. -1.
         -5    1    4    4    0  501  0.33991625435E+02 -0.55184076494E+02  0.14339723893E+03  0.15741967294E+03  0.41800000000E+01 0. -1.
</event>
<event>
11    1  0.8039394E-009  0.2257872E+03  0.7561462E-02  0.1037652E+00
         22   -1    0    0    0    0  0.00000000000E+00  0.00000000000E+00  0.34757790175E+03  0.34757790175E+03  0.00000000000E+00 0. -1.
         22   -1    0    0    0    0 -0.00000000000E+00 -0.00000000000E+00 -0.29614949919E+04  0.29614949919E+04  0.00000000000E+00 0.  1.
        -24    2    1    2    0    0 -0.18250646941E+03  0.42234548325E+02 -0.28471938535E+04  0.28546064101E+04  0.84690901312E+02 0.  0.
         25    2    1    2    0    0  0.21759497886E+03 -0.14488866286E+02  0.59295590831E+02  0.25830456480E+03  0.12509108295E+03 0.  0.
         24    2    1    2    0    0 -0.35088509447E+02 -0.27745682039E+02  0.17398117255E+03  0.19616191873E+03  0.78797357768E+02 0.  0.
        -13    1    5    5    0    0 -0.14988505054E+02 -0.53942404639E+02  0.12642241560E+03  0.13826447652E+03  0.00000000000E+00 0.  1.
         14    1    5    5    0    0 -0.20100004393E+02  0.26196722600E+02  0.47558756947E+02  0.57897442205E+02  0.00000000000E+00 0. -1.
         11    1    3    3    0    0 -0.47281040554E+02 -0.26793802153E+01 -0.32974201104E+03  0.33312530633E+03  0.00000000000E+00 0. -1.
        -12    1    3    3    0    0 -0.13522542886E+03  0.44913928541E+02 -0.25174518425E+04  0.25214811038E+04  0.00000000000E+00 0.  1.
          5    1    4    4  501    0  0.14358090300E+03 -0.67424587886E+02  0.23399388557E+02  0.16039499538E+03  0.41800000000E+01 0.  1.
         -5    1    4    4    0  501  0.74014075860E+02  0.52935721599E+02  0.35896202274E+02  0.97909569422E+02  0.41800000000E+01 0.  1.
</event>
<event>
11    1  0.8039394E-009  0.2188068E+03  0.7561462E-02  0.1041967E+00
         22   -1    0    0    0    0  0.00000000000E+00  0.00000000000E+00  0.76249291524E+03  0.76249291524E+03  0.00000000000E+00 0. -1.
         22   -1    0    0    0    0 -0.00000000000E+00 -0.00000000000E+00 -0.15265638049E+04  0.15265638049E+04  0.00000000000E+00 0. -1.
         24    2    1    2    0    0  0.38177328894E+01 -0.14850693548E+03 -0.14299542070E+04  0.14398676210E+04  0.79880203812E+02 0.  0.
         25    2    1    2    0    0  0.50376768253E+02  0.29073700171E+03  0.27497941632E+03  0.42228217417E+03  0.12507090899E+03 0.  0.
        -24    2    1    2    0    0 -0.54194501142E+02 -0.14223006624E+03  0.39090390106E+03  0.42690692491E+03  0.79228952903E+02 0.  0.
        -11    1    3    3    0    0 -0.18910447454E+01 -0.41375053421E+02 -0.15602171599E+03  0.16142567006E+03  0.00000000000E+00 0.  1.
         12    1    3    3    0    0  0.57087776348E+01 -0.10713188206E+03 -0.12739324910E+04  0.12784419509E+04  0.00000000000E+00 0. -1.
         11    1    5    5    0    0 -0.46147408213E+02 -0.24241183994E+02  0.97378245541E+02  0.11045243769E+03  0.00000000000E+00 0. -1.
        -12    1    5    5    0    0 -0.80470929294E+01 -0.11798888224E+03  0.29352565552E+03  0.31645448723E+03  0.00000000000E+00 0.  1.
          5    1    4    4  501    0 -0.20413381300E+02  0.18048169567E+03  0.11321377363E+03  0.21406816566E+03  0.41800000000E+01 0. -1.
         -5    1    4    4    0  501  0.70790149553E+02  0.11025530604E+03  0.16176564269E+03  0.20821400851E+03  0.41800000000E+01 0. -1.
</event>
<event>
11    1  0.8039394E-009  0.1303044E+03  0.7561462E-02  0.1118895E+00
         22   -1    0    0    0    0  0.00000000000E+00  0.00000000000E+00  0.18044058072E+04  0.18044058072E+04  0.00000000000E+00 0. -1.
         22   -1    0    0    0    0 -0.00000000000E+00 -0.00000000000E+00 -0.23932922304E+03  0.23932922304E+03  0.00000000000E+00 0. -1.
         24    2    1    2    0    0 -0.52691705538E+00 -0.38139921727E+02 -0.21289993991E+03  0.23804312590E+03  0.99414355619E+02 0.  0.
         25    2    1    2    0    0 -0.23237078553E+02 -0.67027498233E+01  0.32178207747E+03  0.34608457169E+03  0.12508371876E+03 0.  0.
        -24    2    1    2    0    0  0.23763995608E+02  0.44842671551E+02  0.14561944466E+04  0.14596073327E+04  0.85881934102E+02 0.  0.
        -11    1    3    3    0    0  0.23775001898E+02  0.25715548825E+02 -0.46907127311E+02  0.58539036200E+02  0.00000000000E+00 0.  1.
         12    1    3    3    0    0 -0.24301918954E+02 -0.63855470552E+02 -0.16599281260E+03  0.17950408970E+03  0.00000000000E+00 0. -1.
         11    1    5    5    0    0 -0.17432782168E+01 -0.28165820104E+01  0.10291413644E+04  0.10291466951E+04  0.00000000000E+00 0. -1.
        -12    1    5    5    0    0  0.25507273825E+02  0.47659253561E+02  0.42705308223E+03  0.43046063758E+03  0.00000000000E+00 0.  1.
          5    1    4    4  501    0 -0.43503723794E+02 -0.55437382063E+02  0.14062834178E+03  0.15735208999E+03  0.41800000000E+01 0. -1.
         -5    1    4    4    0  501  0.20266645241E+02  0.48734632240E+02  0.18115373570E+03  0.18873248169E+03  0.41800000000E+01 0. -1.
</event>
<event>
11    1  0.8039394E-009  0.2070683E+03  0.7561462E-02  0.1049635E+00
         22   -1    0    0    0    0  0.00000000000E+00  0.00000000000E+00  0.28814065961E+03  0.28814065961E+03  0.00000000000E+00 0. -1.
         22   -1    0    0    0    0 -0.00000000000E+00 -0.00000000000E+00 -0.10143687860E+04  0.10143687860E+04  0.00000000000E+00 0. -1.
        -24    2    1    2    0    0 -0.27486020065E+02 -0.70756515007E+02 -0.75018617479E+03  0.75846970234E+03  0.82067209115E+02 0.  0.
         25    2    1    2    0    0  0.10394734956E+03 -0.83294766361E+02 -0.18635195774E+03  0.26099352055E+03  0.12508995177E+03 0.  0.
         24    2    1    2    0    0 -0.76461329493E+02  0.15405128137E+03  0.21031000614E+03  0.28304622272E+03  0.79414943914E+02 0.  0.
        -11    1    5    5    0    0 -0.28759269542E+02  0.34737298660E+02  0.11359630858E+03  0.12222068903E+03  0.00000000000E+00 0.  1.
         12    1    5    5    0    0 -0.47702059951E+02  0.11931398271E+03  0.96713697552E+02  0.16082553369E+03  0.00000000000E+00 0. -1.
         11    1    3    3    0    0 -0.13793358303E+02 -0.37648949793E+02 -0.66297177693E+03  0.66418316537E+03  0.00000000000E+00 0. -1.
        -12    1    3    3    0    0 -0.13692661762E+02 -0.33107565214E+02 -0.87214397858E+02  0.94286536973E+02  0.00000000000E+00 0.  1.
          5    1    4    4  501    0  0.76759956222E+02 -0.48588278724E+02 -0.19564100438E+03  0.21574472578E+03  0.41800000000E+01 0.  1.
         -5    1    4    4    0  501  0.27187393337E+02 -0.34706487637E+02  0.92890466407E+01  0.45248794769E+02  0.41800000000E+01 0.  1.
</event>
<event>
11    1  0.8039394E-009  0.1471553E+03  0.7561462E-02  0.1099821E+00
         22   -1    0    0    0    0  0.00000000000E+00  0.00000000000E+00  0.74483709526E+03  0.74483709526E+03  0.00000000000E+00 0. -1.
         22   -1    0    0    0    0 -0.00000000000E+00 -0.00000000000E+00 -0.12751664226E+03  0.12751664226E+03  0.00000000000E+00 0.  1.
        -24    2    1    2    0    0  0.22079135257E+02  0.12197101508E+02 -0.73899176686E+02  0.11038113397E+03  0.78016978423E+02 0.  0.
         25    2    1    2    0    0 -0.69822596292E+01  0.67085411222E+02  0.15100688776E+03  0.20735576954E+03  0.12507649924E+03 0.  0.
         24    2    1    2    0    0 -0.15096875627E+02 -0.79282512730E+02  0.54021274192E+03  0.55461683401E+03  0.96210153067E+02 0.  0.
        -11    1    5    5    0    0 -0.10981945560E+02  0.47876494340E+01  0.52622110382E+01  0.13084937157E+02  0.00000000000E+00 0.  1.
         12    1    5    5    0    0 -0.41149300673E+01 -0.84070162164E+02  0.53495053088E+03  0.54153189685E+03  0.00000000000E+00 0. -1.
         13    1    3    3    0    0 -0.60368756996E+01  0.40163780933E+02 -0.26122181409E+02  0.48290180458E+02  0.00000000000E+00 0. -1.
        -14    1    3    3    0    0  0.28116010956E+02 -0.27966679425E+02 -0.47776995277E+02  0.62090953510E+02  0.00000000000E+00 0.  1.
          5    1    4    4  501    0  0.51370761562E+02  0.65221088515E+02  0.80471571122E+02  0.11569741436E+03  0.41800000000E+01 0. -1.
         -5    1    4    4    0  501 -0.58353021192E+02  0.18643227072E+01  0.70535316639E+02  0.91658355182E+02  0.41800000000E+01 0. -1.
</event>
<event>
11    1  0.8039394E-009  0.1368946E+03  0.7561462E-02  0.1111076E+00
         22   -1    0    0    0    0  0.00000000000E+00  0.00000000000E+00  0.10587155594E+04  0.10587155594E+04  0.00000000000E+00 0. -1.
         22   -1    0    0    0    0 -0.00000000000E+00 -0.00000000000E+00 -0.11160632498E+03  0.11160632498E+03  0.00000000000E+00 0.  1.
        -24    2    1    2    0    0  0.16110421253E+02 -0.50605731652E+00 -0.50235486324E+02  0.96945681423E+02  0.81333014781E+02 0.  0.
         25    2    1    2    0    0 -0.24266938158E+02  0.55296397989E+02  0.10119176326E+03  0.17185519589E+03  0.12509140452E+03 0.  0.
         24    2    1    2    0    0  0.81565169056E+01 -0.54790340673E+02  0.89615295750E+03  0.90152100709E+03  0.81126400074E+02 0.  0.
        -11    1    5    5    0    0  0.41354821927E+02 -0.49200569057E+02  0.55400094132E+03  0.55771673839E+03  0.00000000000E+00 0.  1.
         12    1    5    5    0    0 -0.33198305022E+02 -0.55897716152E+01  0.34215201617E+03  0.34380426870E+03  0.00000000000E+00 0. -1.
         11    1    3    3    0    0  0.45022233339E+02  0.93496046722E+01 -0.11104963740E+02  0.47304723042E+02  0.00000000000E+00 0. -1.
        -12    1    3    3    0    0 -0.28911812086E+02 -0.98556619887E+01 -0.39130522584E+02  0.49640958382E+02  0.00000000000E+00 0.  1.
          5    1    4    4  501    0  0.83522839904E+01  0.88473247836E+02  0.48090440421E+02  0.10113080189E+03  0.41800000000E+01 0.  1.
         -5    1    4    4    0  501 -0.32619222149E+02 -0.33176849847E+02  0.53101322839E+02  0.70724393999E+02  0.41800000000E+01 0.  1.
</event>
<event>
11    1  0.8039394E-009  0.2683014E+03  0.7561462E-02  0.1014578E+00
         22   -1    0    0    0    0  0.00000000000E+00  0.00000000000E+00  0.48312413387E+03  0.48312413387E+03  0.00000000000E+00 0. -1.
         22   -1    0    0    0    0 -0.00000000000E+00 -0.00000000000E+00 -0.21087994149E+03  0.21087994149E+03  0.00000000000E+00 0. -1.
        -24    2    1    2    0    0  0.11864938477E+03  0.19974880183E+03  0.66561540678E+01  0.24754268172E+03  0.85181069196E+02 0.  0.
         25    2    1    2    0    0 -0.12925091314E+03 -0.21006551166E+03  0.15276792618E+03  0.31594112795E+03  0.12508972511E+03 0.  0.
         24    2    1    2    0    0  0.10601528368E+02  0.10316709833E+02  0.11282011214E+03  0.13052026568E+03  0.63940090293E+02 0.  0.
        -13    1    5    5    0    0  0.31773324300E+02 -0.12711456398E+02  0.54900490537E+02  0.64693037663E+02  0.00000000000E+00 0.  1.
         14    1    5    5    0    0 -0.21171795933E+02  0.23028166230E+02  0.57919621599E+02  0.65827228022E+02  0.00000000000E+00 0. -1.
         11    1    3    3    0    0  0.87690172848E+02  0.18727879235E+03  0.26857874349E+02  0.20852879392E+03  0.00000000000E+00 0. -1.
        -12    1    3    3    0    0  0.30959211926E+02  0.12470009477E+02 -0.20201720281E+02  0.39013887806E+02  0.00000000000E+00 0.  1.
          5    1    4    4  501    0 -0.12961371595E+03 -0.22080723252E+03  0.16035508505E+03  0.30213701361E+03  0.41800000000E+01 0.  1.
         -5    1    4    4    0  501  0.36280280413E+00  0.10741720865E+02 -0.75871588680E+01  0.13804114340E+02  0.41800000000E+01 0.  1.
</event>
<event>
11    1  0.8039394E-009  0.1396852E+03  0.7561462E-02  0.1107910E+00
         22   -1    0    0    0    0  0.00000000000E+00  0.00000000000E+00  0.87774304724E+03  0.87774304724E+03  0.00000000000E+00 0.  1.
         22   -1    0    0    0    0 -0.00000000000E+00 -0.00000000000E+00 -0.16196254773E+04  0.16196254773E+04  0.00000000000E+00 0.  1.
         24    2    1    2    0    0 -0.42777307066E+02 -0.28055516159E+02 -0.14436890556E+04  0.14468760547E+04  0.81210951706E+02 0.  0.
         25    2    1    2    0    0  0.71700092114E+02 -0.27063151679E+02 -0.13991061872E+03  0.20272054426E+03  0.12508924992E+03 0.  0.
        -24    2    1    2    0    0 -0.28922785048E+02  0.55118667838E+02  0.84171724420E+03  0.84777192554E+03  0.79716519668E+02 0.  0.
        -11    1    3    3    0    0 -0.44926156334E+02 -0.13454664738E+02 -0.13995420056E+04  0.14003275377E+04  0.00000000000E+00 0.  1.
         12    1    3    3    0    0  0.21488492675E+01 -0.14600851421E+02 -0.44147049996E+02  0.46548517041E+02  0.00000000000E+00 0. -1.
         11    1    5    5    0    0  0.24050990125E+01  0.32173808824E+02  0.10079399881E+03  0.10583179424E+03  0.00000000000E+00 0. -1.
        -12    1    5    5    0    0 -0.31327884060E+02  0.22944859014E+02  0.74092324539E+03  0.74194013130E+03  0.00000000000E+00 0.  1.
          5    1    4    4  501    0  0.88619297080E+02 -0.60740688006E+02 -0.91187059490E+02  0.14098000998E+03  0.41800000000E+01 0.  1.
         -5    1    4    4    0  501 -0.16919204966E+02  0.33677536326E+02 -0.48723559232E+02  0.61740534286E+02  0.41800000000E+01 0.  1.
</event>
<event>
11    1  0.8039394E-009  0.1644304E+03  0.7561462E-02  0.1082983E+00
         22   -1    0    0    0    0  0.00000000000E+00  0.00000000000E+00  0.71462600898E+03  0.71462600898E+03  0.00000000000E+00 0. -1.
         22   -1    0    0    0    0 -0.00000000000E+00 -0.00000000000E+00 -0.11583729114E+04  0.11583729114E+04  0.00000000000E+00 0. -1.
        -24    2    1    2    0    0  0.13125793312E+02  0.14280531913E+02 -0.67813592059E+03  0.68318040394E+03  0.80566230429E+02 0.  0.
         25    2    1    2    0    0 -0.11649032236E+03  0.11783807288E+02 -0.45521716439E+03  0.48639155265E+03  0.12508086350E+03 0.  0.
         24    2    1    2    0    0  0.10336452904E+03 -0.26064339201E+02  0.68960618258E+03  0.70342696379E+03  0.88821341416E+02 0.  0.
        -13    1    5    5    0    0  0.32918946244E+02 -0.53753450269E+02  0.30605569305E+03  0.31247908359E+03  0.00000000000E+00 0.  1.
         14    1    5    5    0    0  0.70445582800E+02  0.27689111068E+02  0.38355048953E+03  0.39094788020E+03  0.00000000000E+00 0. -1.
         11    1    3    3    0    0 -0.24417868205E+02  0.27321751175E+02 -0.45970843577E+03  0.46116651688E+03  0.00000000000E+00 0. -1.
        -12    1    3    3    0    0  0.37543661517E+02 -0.13041219262E+02 -0.21842748482E+03  0.22201388706E+03  0.00000000000E+00 0.  1.
          5    1    4    4  501    0  0.35098642131E+01 -0.12501563201E+02 -0.22669193911E+03  0.22710199446E+03  0.41800000000E+01 0. -1.
         -5    1    4    4    0  501 -0.12000018657E+03  0.24285370489E+02 -0.22852522528E+03  0.25928955819E+03  0.41800000000E+01 0. -1.
</event>
<event>
11    1  0.8039394E-009  0.2140359E+03  0.7561462E-02  0.1045019E+00
         22   -1    0    0    0    0  0.00000000000E+00  0.00000000000E+00  0.78276805618E+03  0.78276805618E+03  0.00000000000E+00 0.  1.
         22   -1    0    0    0    0 -0.00000000000E+00 -0.00000000000E+00 -0.97153101467E+03  0.97153101467E+03  0.00000000000E+00 0. -1.
        -24    2    1    2    0    0 -0.13062469715E+03  0.12731727651E+02 -0.88084115213E+03  0.89418411713E+03  0.80369096351E+02 0.  0.
         25    2    1    2    0    0  0.24835174284E+03  0.87546011808E+02  0.24783280120E+03  0.38263277475E+03  0.12507537971E+03 0.  0.
         24    2    1    2    0    0 -0.11772704569E+03 -0.10027773946E+03  0.44424539244E+03  0.47748217896E+03  0.81975485403E+02 0.  0.
        -13    1    5    5    0    0 -0.70950352943E+02 -0.67503941621E+02  0.37572818672E+03  0.38828134776E+03  0.00000000000E+00 0.  1.
         14    1    5    5    0    0 -0.46776692744E+02 -0.32773797838E+02  0.68517205712E+02  0.89200831204E+02  0.00000000000E+00 0. -1.
         13    1    3    3    0    0 -0.94018039588E+02  0.18940439592E+01 -0.79096856307E+03  0.79653891741E+03  0.00000000000E+00 0. -1.
        -14    1    3    3    0    0 -0.36606657562E+02  0.10837683692E+02 -0.89872589056E+02  0.97645199724E+02  0.00000000000E+00 0.  1.
          5    1    4    4  501    0  0.23874016235E+03  0.50768294037E+02  0.24237709801E+03  0.34400350993E+03  0.41800000000E+01 0. -1.
         -5    1    4    4    0  501  0.96115804849E+01  0.36777717771E+02  0.54557031913E+01  0.38629264828E+02  0.41800000000E+01 0. -1.
</event>
<event>
11    1  0.8039394E-009  0.1326615E+03  0.7561462E-02  0.1116041E+00
         22   -1    0    0    0    0  0.00000000000E+00  0.00000000000E+00  0.75975541732E+03  0.75975541732E+03  0.00000000000E+00 0. -1.
         22   -1    0    0    0    0 -0.00000000000E+00 -0.00000000000E+00 -0.15564157612E+04  0.15564157612E+04  0.00000000000E+00 0.  1.
         24    2    1    2    0    0 -0.14023289187E+02  0.41859957800E+02 -0.15238931913E+04  0.15266947890E+04  0.81225682120E+02 0.  0.
         25    2    1    2    0    0  0.32234177455E+01 -0.50122772507E+02  0.13232658079E+03  0.18889099326E+03  0.12508717203E+03 0.  0.
        -24    2    1    2    0    0  0.10799871441E+02  0.82628147067E+01  0.59490626658E+03  0.60058539634E+03  0.81267711661E+02 0.  0.
        -13    1    3    3    0    0 -0.22228436592E+02  0.20310396492E+02 -0.17272185025E+03  0.17532670405E+03  0.00000000000E+00 0.  1.
         14    1    3    3    0    0  0.82051474048E+01  0.21549561308E+02 -0.13511713410E+04  0.13513680849E+04  0.00000000000E+00 0. -1.
         11    1    5    5    0    0  0.57399463067E+01  0.38834924740E+02  0.47907397704E+03  0.48067969984E+03  0.00000000000E+00 0. -1.
        -12    1    5    5    0    0  0.50599251348E+01 -0.30572110033E+02  0.11583228954E+03  0.11990569651E+03  0.00000000000E+00 0.  1.
          5    1    4    4  501    0 -0.10680844203E+00  0.20542429165E+01  0.13621723563E+03  0.13629687819E+03  0.41800000000E+01 0. -1.
         -5    1    4    4    0  501  0.33302261876E+01 -0.52177015424E+02 -0.38906548421E+01  0.52594115071E+02  0.41800000000E+01 0. -1.
</event>
<event>
11    1  0.8039394E-009  0.1537478E+03  0.7561462E-02  0.1093110E+00
         22   -1    0    0    0    0  0.00000000000E+00  0.00000000000E+00  0.28811114763E+03  0.28811114763E+03  0.00000000000E+00 0.  1.
         22   -1    0    0    0    0 -0.00000000000E+00 -0.00000000000E+00 -0.11842816409E+04  0.11842816409E+04  0.00000000000E+00 0. -1.
         24    2    1    2    0    0 -0.93047193498E+02  0.31935080381E+02 -0.89511033043E+03  0.90426573301E+03  0.82440176353E+02 0.  0.
         25    2    1    2    0    0  0.20068270778E+02 -0.78464713885E+02 -0.24994331096E+03  0.29099380474E+03  0.12508512656E+03 0.  0.
        -24    2    1    2    0    0  0.72978922719E+02  0.46529633504E+02  0.24888314809E+03  0.27713325080E+03  0.85843388458E+02 0.  0.
        -13    1    3    3    0    0 -0.45118730553E+02 -0.12985955937E+02 -0.17577516233E+03  0.18193746890E+03  0.00000000000E+00 0.  1.
         14    1    3    3    0    0 -0.47928462945E+02  0.44921036318E+02 -0.71933516810E+03  0.72232826411E+03  0.00000000000E+00 0. -1.
         11    1    5    5    0    0 -0.15399747044E+02 -0.35818580565E+01  0.66580177162E+02  0.68431731726E+02  0.00000000000E+00 0. -1.
        -12    1    5    5    0    0  0.88378669764E+02  0.50111491560E+02  0.18230297093E+03  0.20870151908E+03  0.00000000000E+00 0.  1.
          5    1    4    4  501    0 -0.15946278169E+02 -0.65374288926E+02 -0.24254751072E+03  0.25174361719E+03  0.41800000000E+01 0.  1.
         -5    1    4    4    0  501  0.36014548948E+02 -0.13090424958E+02 -0.73958002414E+01  0.39250187550E+02  0.41800000000E+01 0.  1.
</event>
<event>
11    1  0.8039394E-009  0.4475933E+03  0.7561462E-02  0.9518910E-01
         22   -1    0    0    0    0  0.00000000000E+00  0.00000000000E+00  0.20796324405E+03  0.20796324405E+03  0.00000000000E+00 0. -1.
         22   -1    0    0    0    0 -0.00000000000E+00 -0.00000000000E+00 -0.12587821274E+04  0.12587821274E+04  0.00000000000E+00 0. -1.
         24    2    1    2    0    0 -0.18993248243E+02  0.50029226886E+02 -0.26477002471E+03  0.28140515352E+03  0.78879828979E+02 0.  0.
         25    2    1    2    0    0  0.82902444264E+01  0.40368754926E+03 -0.42663522927E+03  0.60058056146E+03  0.12508807445E+03 0.  0.
        -24    2    1    2    0    0  0.10703003816E+02 -0.45371677615E+03 -0.35941362936E+03  0.58475965645E+03  0.82414996193E+02 0.  0.
        -11    1    3    3    0    0 -0.42034218508E+02  0.30172762923E+01 -0.99992780036E+02  0.10851053194E+03  0.00000000000E+00 0.  1.
         12    1    3    3    0    0  0.23040970265E+02  0.47011950594E+02 -0.16477724468E+03  0.17289462159E+03  0.00000000000E+00 0. -1.
         13    1    5    5    0    0  0.25129547547E+01 -0.43633601521E+03 -0.32063320342E+03  0.54148045601E+03  0.00000000000E+00 0. -1.
        -14    1    5    5    0    0  0.81900490616E+01 -0.17380760935E+02 -0.38780425940E+02  0.43279200436E+02  0.00000000000E+00 0.  1.
          5    1    4    4  501    0  0.65238502132E+02  0.25980519490E+03 -0.27137943462E+03  0.38133852597E+03  0.41800000000E+01 0. -1.
         -5    1    4    4    0  501 -0.56948257706E+02  0.14388235436E+03 -0.15525579465E+03  0.21924203549E+03  0.41800000000E+01 0. -1.
</event>
<event>
11    1  0.8039394E-009  0.1991802E+03  0.7561462E-02  0.1055105E+00
         22   -1    0    0    0    0  0.00000000000E+00  0.00000000000E+00  0.61609584822E+03  0.61609584822E+03  0.00000000000E+00 0. -1.
         22   -1    0    0    0    0 -0.00000000000E+00 -0.00000000000E+00 -0.32879912411E+03  0.32879912411E+03  0.00000000000E+00 0.  1.
        -24    2    1    2    0    0  0.27410481229E+02  0.32932597654E+02 -0.24556126116E+03  0.26429155591E+03  0.87828258989E+02 0.  0.
         25    2    1    2    0    0 -0.17187328946E+03  0.93050470297E+01  0.14731271687E+03  0.25879678276E+03  0.12509087372E+03 0.  0.
         24    2    1    2    0    0  0.14446280823E+03 -0.42237644684E+02  0.38554526840E+03  0.42180663365E+03  0.81376658945E+02 0.  0.
        -11    1    5    5    0    0  0.18321634128E+02  0.54279120995E+01  0.76678672289E+01  0.20589820172E+02  0.00000000000E+00 0.  1.
         12    1    5    5    0    0  0.12614117411E+03 -0.47665556783E+02  0.37787740117E+03  0.40121681348E+03  0.00000000000E+00 0. -1.
         11    1    3    3    0    0 -0.99979523879E+01  0.39283258715E+02 -0.46682165678E+02  0.61825221873E+02  0.00000000000E+00 0. -1.
        -12    1    3    3    0    0  0.37408433617E+02 -0.63506610612E+01 -0.19887909548E+03  0.20246633404E+03  0.00000000000E+00 0.  1.
          5    1    4    4  501    0 -0.19301058813E+02 -0.18975881385E+02  0.88766491999E+02  0.92895518985E+02  0.41800000000E+01 0.  1.
         -5    1    4    4    0  501 -0.15257223065E+03  0.28280928414E+02  0.58546224869E+02  0.16590126378E+03  0.41800000000E+01 0.  1.
</event>
<event>
11    1  0.8039394E-009  0.1433796E+03  0.7561462E-02  0.1103842E+00
         22   -1    0    0    0    0  0.00000000000E+00  0.00000000000E+00  0.15194585498E+03  0.15194585498E+03  0.00000000000E+00 0.  1.
         22   -1    0    0    0    0 -0.00000000000E+00 -0.00000000000E+00 -0.25754262273E+04  0.25754262273E+04  0.00000000000E+00 0. -1.
        -24    2    1    2    0    0 -0.27095530718E+02  0.19427313007E+02 -0.19350728455E+04  0.19370044324E+04  0.79797653660E+02 0.  0.
         25    2    1    2    0    0 -0.76513773095E+01 -0.80141990075E+02 -0.61034268144E+03  0.62820974447E+03  0.12509201460E+03 0.  0.
         24    2    1    2    0    0  0.34746908028E+02  0.60714677069E+02  0.12193515461E+03  0.16215790539E+03  0.80829355564E+02 0.  0.
        -13    1    5    5    0    0  0.49384710508E+01  0.63280024817E+02  0.11514184361E+03  0.13147773266E+03  0.00000000000E+00 0.  1.
         14    1    5    5    0    0  0.29808436977E+02 -0.25653477481E+01  0.67933110064E+01  0.30680172726E+02  0.00000000000E+00 0. -1.
         13    1    3    3    0    0 -0.38878897960E+02  0.17637673066E+02 -0.18867681822E+04  0.18872511305E+04  0.00000000000E+00 0. -1.
        -14    1    3    3    0    0  0.11783367242E+02  0.17896399408E+01 -0.48304663265E+02  0.49753301879E+02  0.00000000000E+00 0.  1.
          5    1    4    4  501    0  0.38142936194E+02 -0.24932281119E+02 -0.73505128401E+02  0.86585094125E+02  0.41800000000E+01 0.  1.
         -5    1    4    4    0  501 -0.45794313504E+02 -0.55209708957E+02 -0.53683755304E+03  0.54162465035E+03  0.41800000000E+01 0.  1.
</event>
<event>
11    1  0.8039394E-009  0.1474320E+03  0.7561462E-02  0.1099532E+00
         22   -1    0    0    0    0  0.00000000000E+00  0.00000000000E+00  0.12846398476E+04  0.12846398476E+04  0.00000000000E+00 0. -1.
         22   -1    0    0    0    0 -0.00000000000E+00 -0.00000000000E+00 -0.18402827258E+03  0.18402827258E+03  0.00000000000E+00 0.  1.
        -24    2    1    2    0    0 -0.46609694437E+02  0.63273163917E+02 -0.13886905219E+03  0.17866971125E+03  0.80388401989E+02 0.  0.
         25    2    1    2    0    0  0.14106274052E+02 -0.77946753475E+02  0.21092699716E+03  0.25769973374E+03  0.12507706142E+03 0.  0.
         24    2    1    2    0    0  0.32503420385E+02  0.14673589558E+02  0.10285536300E+04  0.10322986751E+04  0.80288220450E+02 0.  0.
        -13    1    5    5    0    0 -0.22992282832E+02  0.95755152750E+01  0.15682493858E+03  0.15879041824E+03  0.00000000000E+00 0.  1.
         14    1    5    5    0    0  0.55495703217E+02  0.50980742830E+01  0.87172869143E+03  0.87350825691E+03  0.00000000000E+00 0. -1.
         11    1    3    3    0    0  0.14875176768E+02  0.76464019528E+01  0.23771674931E+00  0.16727069557E+02  0.00000000000E+00 0. -1.
        -12    1    3    3    0    0 -0.61484871205E+02  0.55626761964E+02 -0.13910676894E+03  0.16194264169E+03  0.00000000000E+00 0.  1.
          5    1    4    4  501    0  0.50899910394E+02 -0.51921707103E+02  0.19748303081E+03  0.21048440418E+03  0.41800000000E+01 0. -1.
         -5    1    4    4    0  501 -0.36793636342E+02 -0.26025046371E+02  0.13443966354E+02  0.47215329558E+02  0.41800000000E+01 0. -1.
</event>
<event>
11    1  0.8039394E-009  0.2335577E+03  0.7561462E-02  0.1033042E+00
         22   -1    0    0    0    0  0.00000000000E+00  0.00000000000E+00  0.21939172686E+03  0.21939172686E+03  0.00000000000E+00 0. -1.
         22   -1    0    0    0    0 -0.00000000000E+00 -0.00000000000E+00 -0.23026809972E+04  0.23026809972E+04  0.00000000000E+00 0. -1.
         24    2    1    2    0    0 -0.55009194826E+02 -0.19047804858E+03 -0.19848220431E+04  0.19962903505E+04  0.79678871286E+02 0.  0.
         25    2    1    2    0    0 -0.85494150040E+01  0.19796528639E+03 -0.25012142045E+03  0.34274165331E+03  0.12509104219E+03 0.  0.
        -24    2    1    2    0    0  0.63558609830E+02 -0.74872378077E+01  0.15165419317E+03  0.18304072020E+03  0.80057200389E+02 0.  0.
        -13    1    3    3    0    0 -0.18245763441E+02 -0.31914639869E+02 -0.15750804139E+03  0.16174126012E+03  0.00000000000E+00 0.  1.
         14    1    3    3    0    0 -0.36763431386E+02 -0.15856340871E+03 -0.18273140017E+04  0.18345490904E+04  0.00000000000E+00 0. -1.
         13    1    5    5    0    0  0.10002416330E+01  0.11028557112E+02  0.97852463427E+02  0.98477074256E+02  0.00000000000E+00 0. -1.
        -14    1    5    5    0    0  0.62558368197E+02 -0.18515794919E+02  0.53801729739E+02  0.84563645948E+02  0.00000000000E+00 0.  1.
          5    1    4    4  501    0 -0.38824605110E+02  0.14312879290E+03 -0.23541473183E+03  0.27826384904E+03  0.41800000000E+01 0. -1.
         -5    1    4    4    0  501  0.30275190106E+02  0.54836493482E+02 -0.14706688617E+02  0.64477804270E+02  0.41800000000E+01 0. -1.
</event>
<event>
11    1  0.8039394E-009  0.6772693E+03  0.7561462E-02  0.9066489E-01
         22   -1    0    0    0    0  0.00000000000E+00  0.00000000000E+00  0.79936587075E+03  0.79936587075E+03  0.00000000000E+00 0. -1.
         22   -1    0    0    0    0 -0.00000000000E+00 -0.00000000000E+00 -0.16949206637E+04  0.16949206637E+04  0.00000000000E+00 0. -1.
        -24    2    1    2    0    0  0.50255510195E+02  0.18454652033E+03 -0.94797423581E+02  0.22799262540E+03  0.80069040511E+02 0.  0.
         25    2    1    2    0    0 -0.10486306002E+03 -0.82635877596E+03 -0.12279556408E+04  0.14890913185E+04  0.12511119454E+03 0.  0.
         24    2    1    2    0    0  0.54607549827E+02  0.64181225563E+03  0.42719827143E+03  0.77720259059E+03  0.81489555966E+02 0.  0.
        -13    1    5    5    0    0  0.31009793595E+02  0.12994008689E+03  0.12118504465E+03  0.18036587406E+03  0.00000000000E+00 0.  1.
         14    1    5    5    0    0  0.23597756231E+02  0.51187216874E+03  0.30601322678E+03  0.59683671653E+03  0.00000000000E+00 0. -1.
         13    1    3    3    0    0 -0.32934585212E+01  0.16507914437E+02 -0.39861538059E+02  0.43270085793E+02  0.00000000000E+00 0. -1.
        -14    1    3    3    0    0  0.53548968716E+02  0.16803860589E+03 -0.54935885522E+02  0.18472253960E+03  0.00000000000E+00 0.  1.
          5    1    4    4  501    0 -0.11350738000E+02 -0.45974391386E+03 -0.60053829083E+03  0.75641061384E+03  0.41800000000E+01 0.  1.
         -5    1    4    4    0  501 -0.93512322022E+02 -0.36661486210E+03 -0.62741734998E+03  0.73268070463E+03  0.41800000000E+01 0.  1.
</event>
<event>
11    1  0.8039394E-009  0.2194796E+03  0.7561462E-02  0.1041544E+00
         22   -1    0    0    0    0  0.00000000000E+00  0.00000000000E+00  0.71498995323E+03  0.71498995323E+03  0.00000000000E+00 0. -1.
         22   -1    0    0    0    0 -0.00000000000E+00 -0.00000000000E+00 -0.18278825999E+03  0.18278825999E+03  0.00000000000E+00 0.  1.
        -24    2    1    2    0    0 -0.61252217698E+02  0.16453731165E+03 -0.45052684575E+02  0.20765751288E+03  0.10132885655E+03 0.  0.
         25    2    1    2    0    0  0.13673813942E+03 -0.15795027433E+03  0.26663770668E+03  0.36109359957E+03  0.12508922051E+03 0.  0.
         24    2    1    2    0    0 -0.75485921724E+02 -0.65870373152E+01  0.31061667113E+03  0.32902710078E+03  0.77682708635E+02 0.  0.
        -11    1    5    5    0    0  0.79457253297E+01 -0.17998767040E+02  0.28652843959E+02  0.34757382423E+02  0.00000000000E+00 0.  1.
         12    1    5    5    0    0 -0.83431647054E+02  0.11411729725E+02  0.28196382717E+03  0.29426971835E+03  0.00000000000E+00 0. -1.
         13    1    3    3    0    0  0.22732339988E+02  0.56875443539E+02  0.67402953678E+01  0.61619858331E+02  0.00000000000E+00 0. -1.
        -14    1    3    3    0    0 -0.83984557686E+02  0.10766186811E+03 -0.51792979943E+02  0.14603765455E+03  0.00000000000E+00 0.  1.
          5    1    4    4  501    0  0.57306891412E+02 -0.76786305159E+02  0.21668085479E+03  0.23695628646E+03  0.41800000000E+01 0. -1.
         -5    1    4    4    0  501  0.79431248011E+02 -0.81163969176E+02  0.49956851893E+02  0.12413731310E+03  0.41800000000E+01 0. -1.
</event>
<event>
11    1  0.8039394E-009  0.1384489E+03  0.7561462E-02  0.1109303E+00
         22   -1    0    0    0    0  0.00000000000E+00  0.00000000000E+00  0.49348106607E+02  0.49348106607E+02  0.00000000000E+00 0. -1.
         22   -1    0    0    0    0 -0.00000000000E+00 -0.00000000000E+00 -0.26149414271E+04  0.26149414271E+04  0.00000000000E+00 0. -1.
         24    2    1    2    0    0 -0.58544604759E+02  0.41404037705E+01 -0.23152204334E+04  0.23176205570E+04  0.87605807148E+02 0.  0.
         25    2    1    2    0    0  0.71569406776E+02  0.49375998031E+01 -0.21644394070E+03  0.26008025096E+03  0.12508875888E+03 0.  0.
        -24    2    1    2    0    0 -0.13024802017E+02 -0.90780035736E+01 -0.33928946440E+02  0.86588725761E+02  0.78066499895E+02 0.  0.
        -13    1    3    3    0    0 -0.70736335308E+02  0.10508470440E+02 -0.10999198781E+04  0.11022421673E+04  0.00000000000E+00 0.  1.
         14    1    3    3    0    0  0.12191730549E+02 -0.63680666695E+01 -0.12153005553E+04  0.12153783897E+04  0.00000000000E+00 0. -1.
         13    1    5    5    0    0  0.21142960403E+02 -0.85737507281E+01  0.14709828904E+02  0.27146142315E+02  0.00000000000E+00 0. -1.
        -14    1    5    5    0    0 -0.34167762420E+02 -0.50425284551E+00 -0.48638775345E+02  0.59442583446E+02  0.00000000000E+00 0.  1.
          5    1    4    4  501    0  0.74464490303E+02 -0.49177373764E+02 -0.12376663151E+03  0.15264018436E+03  0.41800000000E+01 0. -1.
         -5    1    4    4    0  501 -0.28950835274E+01  0.54114973567E+02 -0.92677309187E+02  0.10744006660E+03  0.41800000000E+01 0. -1.
</event>
<event>
11    1  0.8039394E-009  0.2230584E+03  0.7561462E-02  0.1039318E+00
         22   -1    0    0    0    0  0.00000000000E+00  0.00000000000E+00  0.43824355308E+03  0.43824355308E+03  0.00000000000E+00 0. -1.
         22   -1    0    0    0    0 -0.00000000000E+00 -0.00000000000E+00 -0.17729507614E+04  0.17729507614E+04  0.00000000000E+00 0. -1.
         24    2    1    2    0    0  0.11564686937E+03  0.14590172473E+03 -0.16937457528E+04  0.17057939372E+04  0.79352186694E+02 0.  0.
         25    2    1    2    0    0 -0.88981004128E+02 -0.12018085900E+03  0.75159647374E+02  0.20894389380E+03  0.12509004835E+03 0.  0.
        -24    2    1    2    0    0 -0.26665865239E+02 -0.25720865725E+02  0.28387889714E+03  0.29645648340E+03  0.76984329601E+02 0.  0.
        -11    1    3    3    0    0  0.60793414853E+01  0.59497685632E+01 -0.12154608742E+02  0.14835519961E+02  0.00000000000E+00 0.  1.
         12    1    3    3    0    0  0.10956752788E+03  0.13995195616E+03 -0.16815911441E+04  0.16909584173E+04  0.00000000000E+00 0. -1.
         13    1    5    5    0    0  0.14212416540E+02 -0.32612025227E+02  0.19709489380E+03  0.20027963984E+03  0.00000000000E+00 0. -1.
        -14    1    5    5    0    0 -0.40878281779E+02  0.68911595019E+01  0.86784003343E+02  0.96176843558E+02  0.00000000000E+00 0.  1.
          5    1    4    4  501    0 -0.42775849139E+02  0.19050196515E+02  0.85742866719E+01  0.47787802301E+02  0.41800000000E+01 0. -1.
         -5    1    4    4    0  501 -0.46205154989E+02 -0.13923105552E+03  0.66585360702E+02  0.16115609150E+03  0.41800000000E+01 0. -1.
</event>
<event>
11    1  0.8039394E-009  0.1309264E+03  0.7561462E-02  0.1118136E+00
         22   -1    0    0    0    0  0.00000000000E+00  0.00000000000E+00  0.30971504099E+03  0.30971504099E+03  0.00000000000E+00 0.  1.
         22   -1    0    0    0    0 -0.00000000000E+00 -0.00000000000E+00 -0.16403790721E+04  0.16403790721E+04  0.00000000000E+00 0. -1.
         24    2    1    2    0    0  0.27220505578E+02 -0.12853346398E+02 -0.15179633179E+04  0.15201765048E+04  0.76274548937E+02 0.  0.
         25    2    1    2    0    0 -0.30161600353E+02  0.50413779235E+02 -0.71606744463E+02  0.15564753989E+03  0.12508940622E+03 0.  0.
        -24    2    1    2    0    0  0.29410947755E+01 -0.37560432838E+02  0.25890603133E+03  0.27427006833E+03  0.82293992293E+02 0.  0.
        -13    1    3    3    0    0  0.41002818216E+02 -0.68333082099E+01 -0.40815606651E+03  0.41026735166E+03  0.00000000000E+00 0.  1.
         14    1    3    3    0    0 -0.13782312639E+02 -0.60200381879E+01 -0.11098072514E+04  0.11099091532E+04  0.00000000000E+00 0. -1.
         11    1    5    5    0    0  0.35910937882E+01 -0.57656603026E+02  0.11225649510E+03  0.12624856641E+03  0.00000000000E+00 0. -1.
        -12    1    5    5    0    0 -0.64999901271E+00  0.20096170188E+02  0.14664953623E+03  0.14802150192E+03  0.00000000000E+00 0.  1.
          5    1    4    4  501    0  0.25295654859E+02  0.73173283759E+02 -0.47317186060E+02  0.90832747990E+02  0.41800000000E+01 0.  1.
         -5    1    4    4    0  501 -0.55457255212E+02 -0.22759504523E+02 -0.24289558403E+02  0.64814791902E+02  0.41800000000E+01 0.  1.
</event>
<event>
11    1  0.8039394E-009  0.1403502E+03  0.7561462E-02  0.1107168E+00
         22   -1    0    0    0    0  0.00000000000E+00  0.00000000000E+00  0.40706413957E+03  0.40706413957E+03  0.00000000000E+00 0. -1.
         22   -1    0    0    0    0 -0.00000000000E+00 -0.00000000000E+00 -0.30687990273E+03  0.30687990273E+03  0.00000000000E+00 0.  1.
         24    2    1    2    0    0 -0.54366418552E+02 -0.26970012636E+02 -0.24411992144E+03  0.26391850096E+03  0.79845789221E+02 0.  0.
         25    2    1    2    0    0  0.11345299758E+03  0.35002823625E+02  0.13835906045E+03  0.22110496854E+03  0.12508955665E+03 0.  0.
        -24    2    1    2    0    0 -0.59086579029E+02 -0.80328109885E+01  0.20594509784E+03  0.22892057280E+03  0.80221539846E+02 0.  0.
        -13    1    3    3    0    0 -0.47106546632E+02 -0.19094104567E+02 -0.24751628558E+03  0.25268146587E+03  0.00000000000E+00 0.  1.
         14    1    3    3    0    0 -0.72598719197E+01 -0.78759080693E+01  0.33963641431E+01  0.11237035089E+02  0.00000000000E+00 0. -1.
         11    1    5    5    0    0 -0.10621202932E+02 -0.23772094452E+02  0.15388554026E+03  0.15607268156E+03  0.00000000000E+00 0. -1.
        -12    1    5    5    0    0 -0.48465376097E+02  0.15739283463E+02  0.52059557575E+02  0.72847891246E+02  0.00000000000E+00 0.  1.
          5    1    4    4  501    0  0.13102999067E+03  0.51971233078E+00  0.89972300544E+02  0.15900193653E+03  0.41800000000E+01 0. -1.
         -5    1    4    4    0  501 -0.17576993086E+02  0.34483111294E+02  0.48386759904E+02  0.62103032007E+02  0.41800000000E+01 0. -1.
</event>
<event>
11    1  0.8926879E-009  0.1617579E+03  0.7561462E-02  0.1085435E+00
         22   -1    0    0    0    0  0.00000000000E+00  0.00000000000E+00  0.85948924402E+03  0.85948924402E+03  0.00000000000E+00 0. -1.
         22   -1    0    0    0    0 -0.00000000000E+00 -0.00000000000E+00 -0.83584948825E+03  0.83584948825E+03  0.00000000000E+00 0. -1.
        -24    2    1    2    0    0 -0.15037529733E+02  0.42875081095E+02 -0.72147966899E+03  0.72740114940E+03  0.80716290210E+02 0.  0.
         25    2    1    2    0    0 -0.84159180064E+02 -0.12114870564E+02 -0.52035534082E+02  0.15995312222E+03  0.12509103414E+03 0.  0.
         24    2    1    2    0    0  0.99196709797E+02 -0.30760210531E+02  0.79715495884E+03  0.80798446067E+03  0.81219963630E+02 0.  0.
        -13    1    5    5    0    0 -0.11965281381E+02 -0.15117829993E+02  0.98618969553E+02  0.10048590895E+03  0.00000000000E+00 0.  1.
         14    1    5    5    0    0  0.11116199118E+03 -0.15642380538E+02  0.69853598929E+03  0.70749855172E+03  0.00000000000E+00 0. -1.
         11    1    3    3    0    0 -0.10783140456E+02  0.28566360119E+02 -0.70292098560E+03  0.70358384365E+03  0.00000000000E+00 0. -1.
        -12    1    3    3    0    0 -0.42543892768E+01  0.14308720976E+02 -0.18558683390E+02  0.23817305752E+02  0.00000000000E+00 0.  1.
          5    1    4    4  501    0  0.26041624657E+02  0.21065019089E+02 -0.43352629242E+00  0.33757393102E+02  0.41800000000E+01 0. -1.
         -5    1    4    4    0  501 -0.11020080472E+03 -0.33179889653E+02 -0.51602007790E+02  0.12619572911E+03  0.41800000000E+01 0. -1.
</event>
<event>
11    1  0.8039394E-009  0.1316305E+03  0.7561462E-02  0.1117282E+00
         22   -1    0    0    0    0  0.00000000000E+00  0.00000000000E+00  0.86082767823E+02  0.86082767823E+02  0.00000000000E+00 0. -1.
         22   -1    0    0    0    0 -0.00000000000E+00 -0.00000000000E+00 -0.39951460423E+03  0.39951460423E+03  0.00000000000E+00 0.  1.
         24    2    1    2    0    0 -0.13328153909E+02  0.10505253872E+02 -0.21255788300E+03  0.22753370308E+03  0.79389749770E+02 0.  0.
         25    2    1    2    0    0 -0.10444966129E+02 -0.43327844546E+02 -0.10147484620E+03  0.16713867618E+03  0.12510712702E+03 0.  0.
        -24    2    1    2    0    0  0.23773120038E+02  0.32822590674E+02  0.60089278655E+00  0.90924992798E+02  0.81391090104E+02 0.  0.
        -11    1    3    3    0    0 -0.27061892617E+02  0.19240673924E+02 -0.20799642012E+03  0.21063015062E+03  0.00000000000E+00 0.  1.
         12    1    3    3    0    0  0.13733738708E+02 -0.87354200511E+01 -0.45614628734E+01  0.16903552464E+02  0.00000000000E+00 0. -1.
         11    1    5    5    0    0  0.21133992722E+02  0.45135774628E+02  0.30535730225E+02  0.58449248241E+02  0.00000000000E+00 0. -1.
        -12    1    5    5    0    0  0.26391273165E+01 -0.12313183954E+02 -0.29934837438E+02  0.32475744557E+02  0.00000000000E+00 0.  1.
          5    1    4    4  501    0  0.43551090753E+01 -0.86536833458E+02 -0.61998555570E+02  0.10662496806E+03  0.41800000000E+01 0. -1.
         -5    1    4    4    0  501 -0.14800075204E+02  0.43208988911E+02 -0.39476290631E+02  0.60513708123E+02  0.41800000000E+01 0. -1.
</event>
<event>
11    1  0.8039394E-009  0.1800659E+03  0.7561462E-02  0.1069590E+00
         22   -1    0    0    0    0  0.00000000000E+00  0.00000000000E+00  0.14988409887E+03  0.14988409887E+03  0.00000000000E+00 0.  1.
         22   -1    0    0    0    0 -0.00000000000E+00 -0.00000000000E+00 -0.58093778845E+03  0.58093778845E+03  0.00000000000E+00 0.  1.
         24    2    1    2    0    0  0.64958236799E+02  0.11954510487E+03 -0.32323179314E+03  0.35974519510E+03  0.80169873865E+02 0.  0.
         25    2    1    2    0    0 -0.78254580147E+02 -0.90060991992E+02 -0.18618926534E+03  0.25406279537E+03  0.12508676937E+03 0.  0.
        -24    2    1    2    0    0  0.13296343348E+02 -0.29484112878E+02  0.78367368899E+02  0.11701389684E+03  0.80651732076E+02 0.  0.
        -11    1    3    3    0    0  0.73510775147E+02  0.12397334540E+03 -0.27415623065E+03  0.30973353586E+03  0.00000000000E+00 0.  1.
         12    1    3    3    0    0 -0.85525383487E+01 -0.44282405271E+01 -0.49075562495E+02  0.50011659246E+02  0.00000000000E+00 0. -1.
         13    1    5    5    0    0  0.38167386477E+02 -0.27802936860E+02  0.16013216009E+02  0.49861566116E+02  0.00000000000E+00 0. -1.
        -14    1    5    5    0    0 -0.24871043129E+02 -0.16811760181E+01  0.62354152890E+02  0.67152330725E+02  0.00000000000E+00 0.  1.
          5    1    4    4  501    0 -0.22955924441E+02 -0.63980361894E+02 -0.18001864915E+03  0.19246986158E+03  0.41800000000E+01 0. -1.
         -5    1    4    4    0  501 -0.55298655706E+02 -0.26080630099E+02 -0.61706161958E+01  0.61592933795E+02  0.41800000000E+01 0. -1.
</event>
<event>
11    1  0.8039394E-009  0.1589640E+03  0.7561462E-02  0.1088056E+00
         22   -1    0    0    0    0  0.00000000000E+00  0.00000000000E+00  0.22200044900E+04  0.22200044900E+04  0.00000000000E+00 0.  1.
         22   -1    0    0    0    0 -0.00000000000E+00 -0.00000000000E+00 -0.14640646173E+04  0.14640646173E+04  0.00000000000E+00 0. -1.
        -24    2    1    2    0    0 -0.90893985438E+02  0.37683102740E+02 -0.14341110881E+04  0.14398157339E+04  0.81932910203E+02 0.  0.
         25    2    1    2    0    0  0.36719991941E+02 -0.95540924593E+02  0.23083299808E+03  0.28179380783E+03  0.12508977196E+03 0.  0.
         24    2    1    2    0    0  0.54173993497E+02  0.57857821853E+02  0.19592179627E+04  0.19624595656E+04  0.80188354012E+02 0.  0.
        -11    1    5    5    0    0  0.37986667359E+02  0.60710536236E+02  0.18884662027E+04  0.18898236306E+04  0.00000000000E+00 0.  1.
         12    1    5    5    0    0  0.16187326137E+02 -0.28527143831E+01  0.70751759925E+02  0.72635934903E+02  0.00000000000E+00 0. -1.
         13    1    3    3    0    0 -0.69882095277E+02  0.19019046786E+02 -0.13302299264E+04  0.13322000182E+04  0.00000000000E+00 0. -1.
        -14    1    3    3    0    0 -0.21011890161E+02  0.18664055954E+02 -0.10388116171E+03  0.10761571573E+03  0.00000000000E+00 0.  1.
          5    1    4    4  501    0 -0.35107003556E+02 -0.39626386495E+02  0.29379608356E+02  0.60690905353E+02  0.41800000000E+01 0. -1.
         -5    1    4    4    0  501  0.71826995497E+02 -0.55914538098E+02  0.20145338972E+03  0.22110290248E+03  0.41800000000E+01 0. -1.
</event>
<event>
11    1  0.8039394E-009  0.2182660E+03  0.7561462E-02  0.1042309E+00
         22   -1    0    0    0    0  0.00000000000E+00  0.00000000000E+00  0.15065911360E+03  0.15065911360E+03  0.00000000000E+00 0.  1.
         22   -1    0    0    0    0 -0.00000000000E+00 -0.00000000000E+00 -0.10531052758E+04  0.10531052758E+04  0.00000000000E+00 0.  1.
        -24    2    1    2    0    0  0.25653409315E+02 -0.88756794714E+02 -0.58246980146E+03  0.59540083877E+03  0.81824343407E+02 0.  0.
         25    2    1    2    0    0 -0.14846886637E+02  0.25049738680E+03 -0.32270585604E+03  0.42749794859E+03  0.12508419438E+03 0.  0.
         24    2    1    2    0    0 -0.10806522678E+02 -0.16174059209E+03  0.27294953147E+01  0.18086560204E+03  0.80175531136E+02 0.  0.
        -11    1    5    5    0    0  0.17570085704E+02 -0.97763155496E+02  0.32921280236E+02  0.10464297959E+03  0.00000000000E+00 0.  1.
         12    1    5    5    0    0 -0.28376608382E+02 -0.63977436594E+02 -0.30191784921E+02  0.76222622450E+02  0.00000000000E+00 0. -1.
         13    1    3    3    0    0 -0.29474864234E+02 -0.31213560773E+02 -0.17285749972E+03  0.17810886898E+03  0.00000000000E+00 0. -1.
        -14    1    3    3    0    0  0.55128273549E+02 -0.57543233941E+02 -0.40961230174E+03  0.41729196979E+03  0.00000000000E+00 0.  1.
          5    1    4    4  501    0  0.21905666257E+02  0.11042805567E+02 -0.11983587684E+01  0.24914056930E+02  0.41800000000E+01 0.  1.
         -5    1    4    4    0  501 -0.36752552894E+02  0.23945458124E+03 -0.32150749727E+03  0.40258389166E+03  0.41800000000E+01 0.  1.
</event>
<event>
11    1  0.8039394E-009  0.1492877E+03  0.7561462E-02  0.1097609E+00
         22   -1    0    0    0    0  0.00000000000E+00  0.00000000000E+00  0.75779434783E+03  0.75779434783E+03  0.00000000000E+00 0. -1.
         22   -1    0    0    0    0 -0.00000000000E+00 -0.00000000000E+00 -0.50830553062E+03  0.50830553062E+03  0.00000000000E+00 0.  1.
         24    2    1    2    0    0 -0.28147355934E+01  0.47892550459E+02 -0.34888374409E+03  0.36283186896E+03  0.87323989349E+02 0.  0.
         25    2    1    2    0    0 -0.68213952620E+02 -0.86500616489E+02 -0.10080342148E+03  0.19479548316E+03  0.12509376681E+03 0.  0.
        -24    2    1    2    0    0  0.71028688213E+02  0.38608066030E+02  0.69917598279E+03  0.70847252632E+03  0.80935828506E+02 0.  0.
        -11    1    3    3    0    0 -0.18574651202E+02 -0.99525652417E+01 -0.21628494208E+03  0.21730910563E+03  0.00000000000E+00 0.  1.
         12    1    3    3    0    0  0.15759915609E+02  0.57845115700E+02 -0.13259880202E+03  0.14552276333E+03  0.00000000000E+00 0. -1.
         13    1    5    5    0    0  0.72701156580E+02  0.16154021860E+02  0.65154669873E+03  0.65578922774E+03  0.00000000000E+00 0. -1.
        -14    1    5    5    0    0 -0.16724683673E+01  0.22454044170E+02  0.47629284057E+02  0.52683298586E+02  0.00000000000E+00 0.  1.
          5    1    4    4  501    0 -0.94893734129E+02 -0.81359088404E+02 -0.45589441478E+02  0.13311645885E+03  0.41800000000E+01 0. -1.
         -5    1    4    4    0  501  0.26679781509E+02 -0.51415280848E+01 -0.55213980002E+02  0.61679024312E+02  0.41800000000E+01 0. -1.
</event>
<event>
11    1  0.8039394E-009  0.1401634E+03  0.7561462E-02  0.1107376E+00
         22   -1    0    0    0    0  0.00000000000E+00  0.00000000000E+00  0.11410599766E+04  0.11410599766E+04  0.00000000000E+00 0.  1.
         22   -1    0    0    0    0 -0.00000000000E+00 -0.00000000000E+00 -0.59681712408E+03  0.59681712408E+03  0.00000000000E+00 0.  1.
        -24    2    1    2    0    0  0.62759488580E+02  0.10084421853E+02 -0.57120321728E+03  0.58027309184E+03  0.80020601789E+02 0.  0.
         25    2    1    2    0    0 -0.49101620782E+02  0.25774942143E+02  0.23018835726E+03  0.26778807924E+03  0.12509379984E+03 0.  0.
         24    2    1    2    0    0 -0.13657867798E+02 -0.35859363996E+02  0.88525771253E+03  0.88981592959E+03  0.81355636657E+02 0.  0.
        -11    1    5    5    0    0 -0.38606116700E+02 -0.11606366210E+02  0.70966939442E+03  0.71081347016E+03  0.00000000000E+00 0.  1.
         12    1    5    5    0    0  0.24948248903E+02 -0.24252997786E+02  0.17558831811E+03  0.17900245943E+03  0.00000000000E+00 0. -1.
         11    1    3    3    0    0 -0.14217001554E+02  0.68777290038E+01 -0.33011417266E+02  0.36594807819E+02  0.00000000000E+00 0. -1.
        -12    1    3    3    0    0  0.76976490134E+02  0.32066928496E+01 -0.53819180001E+03  0.54367828402E+03  0.00000000000E+00 0.  1.
          5    1    4    4  501    0 -0.56777559079E+02  0.49566027000E+02  0.61949965365E+02  0.97651179492E+02  0.41800000000E+01 0. -1.
         -5    1    4    4    0  501  0.76759382967E+01 -0.23791084857E+02  0.16823839190E+03  0.17013689975E+03  0.41800000000E+01 0. -1.
</event>
<event>
11    1  0.8039394E-009  0.1749782E+03  0.7561462E-02  0.1073779E+00
         22   -1    0    0    0    0  0.00000000000E+00  0.00000000000E+00  0.70962365097E+03  0.70962365097E+03  0.00000000000E+00 0. -1.
         22   -1    0    0    0    0 -0.00000000000E+00 -0.00000000000E+00 -0.21175930784E+03  0.21175930784E+03  0.00000000000E+00 0. -1.
        -24    2    1    2    0    0 -0.11112566747E+03  0.49181994828E+02 -0.15526724527E+03  0.21251672278E+03  0.79294750286E+02 0.  0.
         25    2    1    2    0    0  0.12438816652E+03 -0.47779294139E+02  0.34883513198E+03  0.39381315231E+03  0.12509025825E+03 0.  0.
         24    2    1    2    0    0 -0.13262499053E+02 -0.14027006887E+01  0.30429645642E+03  0.31505308372E+03  0.80524845357E+02 0.  0.
        -13    1    5    5    0    0  0.18588165040E+02 -0.72566241778E+01  0.17823387586E+02  0.26755403548E+02  0.00000000000E+00 0.  1.
         14    1    5    5    0    0 -0.31850664093E+02  0.58539234891E+01  0.28647306884E+03  0.28829768017E+03  0.00000000000E+00 0. -1.
         13    1    3    3    0    0 -0.11002743349E+03  0.43736660771E+02 -0.16393499255E+03  0.20222169369E+03  0.00000000000E+00 0. -1.
        -14    1    3    3    0    0 -0.10982339778E+01  0.54453340564E+01  0.86677472884E+01  0.10295029087E+02  0.00000000000E+00 0.  1.
          5    1    4    4  501    0  0.99695645673E+02  0.17926303383E+02  0.26876551785E+03  0.28725067468E+03  0.41800000000E+01 0.  1.
         -5    1    4    4    0  501  0.24692520848E+02 -0.65705597522E+02  0.80069614128E+02  0.10656247763E+03  0.41800000000E+01 0.  1.
</event>
<event>
11    1  0.8039394E-009  0.1758368E+03  0.7561462E-02  0.1073061E+00
         22   -1    0    0    0    0  0.00000000000E+00  0.00000000000E+00  0.50140351480E+03  0.50140351480E+03  0.00000000000E+00 0.  1.
         22   -1    0    0    0    0 -0.00000000000E+00 -0.00000000000E+00 -0.10649597397E+04  0.10649597397E+04  0.00000000000E+00 0.  1.
        -24    2    1    2    0    0 -0.13774513047E+02  0.22563141333E+01 -0.89848850151E+03  0.90210156915E+03  0.79440704611E+02 0.  0.
         25    2    1    2    0    0  0.13440295437E+03 -0.23926347331E+02 -0.96445237520E+02  0.20876906947E+03  0.12508483635E+03 0.  0.
         24    2    1    2    0    0 -0.12062844133E+03  0.21670033197E+02  0.43137751411E+03  0.45549261590E+03  0.79788171235E+02 0.  0.
        -11    1    5    5    0    0 -0.12737156994E+03  0.12716827548E+02  0.42164970448E+03  0.44065145843E+03  0.00000000000E+00 0.  1.
         12    1    5    5    0    0  0.67431286129E+01  0.89532056497E+01  0.97278096294E+01  0.14841157471E+02  0.00000000000E+00 0. -1.
         11    1    3    3    0    0 -0.12651933152E+02  0.23306161337E+02 -0.10381420313E+03  0.10714773605E+03  0.00000000000E+00 0. -1.
        -12    1    3    3    0    0 -0.11225798952E+01 -0.21049847204E+02 -0.79467429839E+03  0.79495383311E+03  0.00000000000E+00 0.  1.
          5    1    4    4  501    0  0.47617963708E+02  0.43033117989E+02 -0.71696831143E+02  0.96318366408E+02  0.41800000000E+01 0. -1.
         -5    1    4    4    0  501  0.86784990666E+02 -0.66959465320E+02 -0.24748406378E+02  0.11245070306E+03  0.41800000000E+01 0. -1.
</event>
<event>
11    1  0.8039394E-009  0.1559670E+03  0.7561462E-02  0.1090933E+00
         22   -1    0    0    0    0  0.00000000000E+00  0.00000000000E+00  0.96684597586E+03  0.96684597586E+03  0.00000000000E+00 0.  1.
         22   -1    0    0    0    0 -0.00000000000E+00 -0.00000000000E+00 -0.40978204215E+03  0.40978204215E+03  0.00000000000E+00 0. -1.
         24    2    1    2    0    0 -0.89831498424E+02  0.24112232102E+01 -0.33116405502E+03  0.35222189414E+03  0.79467724727E+02 0.  0.
         25    2    1    2    0    0  0.13182449888E+03 -0.20382072895E+02  0.60963707976E+02  0.19277669214E+03  0.12511255709E+03 0.  0.
        -24    2    1    2    0    0 -0.41993000452E+02  0.17970849685E+02  0.82726428075E+03  0.83162943172E+03  0.71798036023E+02 0.  0.
        -11    1    3    3    0    0 -0.50768447907E+02  0.28777919740E+02 -0.95715776904E+02  0.11210313963E+03  0.00000000000E+00 0.  1.
         12    1    3    3    0    0 -0.39063050517E+02 -0.26366696530E+02 -0.23544827811E+03  0.24011875451E+03  0.00000000000E+00 0. -1.
         13    1    5    5    0    0  0.11642769328E+02  0.25455242864E+02  0.18760060546E+03  0.18967738568E+03  0.00000000000E+00 0. -1.
        -14    1    5    5    0    0 -0.53635769780E+02 -0.74843931795E+01  0.63966367529E+03  0.64195204605E+03  0.00000000000E+00 0.  1.
          5    1    4    4  501    0  0.36656890042E+02 -0.66395817688E+02  0.14962420506E+02  0.77417560162E+02  0.41800000000E+01 0.  1.
         -5    1    4    4    0  501  0.95167608834E+02  0.46013744793E+02  0.46001287470E+02  0.11535913197E+03  0.41800000000E+01 0.  1.
</event>
<event>
11    1  0.8039394E-009  0.1312003E+03  0.7561462E-02  0.1117803E+00
         22   -1    0    0    0    0  0.00000000000E+00  0.00000000000E+00  0.19904396080E+04  0.19904396080E+04  0.00000000000E+00 0.  1.
         22   -1    0    0    0    0 -0.00000000000E+00 -0.00000000000E+00 -0.76105664458E+03  0.76105664458E+03  0.00000000000E+00 0.  1.
         24    2    1    2    0    0 -0.40200824000E+02  0.27289162654E+00 -0.67630194763E+03  0.68205636314E+03  0.78742475245E+02 0.  0.
         25    2    1    2    0    0  0.27137979980E+02 -0.31121328611E+02 -0.27233541648E+02  0.13451283205E+03  0.12508808554E+03 0.  0.
        -24    2    1    2    0    0  0.13062844020E+02  0.30848436985E+02  0.19329184527E+04  0.19349270574E+04  0.81527349403E+02 0.  0.
        -13    1    3    3    0    0 -0.30508864687E+02 -0.18110660554E+02 -0.63332957846E+03  0.63432258497E+03  0.00000000000E+00 0.  1.
         14    1    3    3    0    0 -0.96919593125E+01  0.18383552181E+02 -0.42972369173E+02  0.47733778171E+02  0.00000000000E+00 0. -1.
         11    1    5    5    0    0 -0.18832227489E+02  0.23492411709E+02  0.26785777104E+03  0.26954467479E+03  0.00000000000E+00 0. -1.
        -12    1    5    5    0    0  0.31895071508E+02  0.73560252760E+01  0.16650606817E+04  0.16653823826E+04  0.00000000000E+00 0.  1.
          5    1    4    4  501    0  0.23710453218E+02 -0.18274652556E+02  0.48696250621E+02  0.57314446193E+02  0.41800000000E+01 0.  1.
         -5    1    4    4    0  501  0.34275267616E+01 -0.12846676056E+02 -0.75929792268E+02  0.77198385859E+02  0.41800000000E+01 0.  1.
</event>
<event>
11    1  0.8039394E-009  0.1680357E+03  0.7561462E-02  0.1079754E+00
         22   -1    0    0    0    0  0.00000000000E+00  0.00000000000E+00  0.97028924237E+03  0.97028924237E+03  0.00000000000E+00 0.  1.
         22   -1    0    0    0    0 -0.00000000000E+00 -0.00000000000E+00 -0.13676153336E+03  0.13676153336E+03  0.00000000000E+00 0.  1.
        -24    2    1    2    0    0  0.12499424615E+03 -0.10619677793E+02 -0.52809826217E+02  0.15798190741E+03  0.80206397471E+02 0.  0.
         25    2    1    2    0    0  0.73494011025E+01 -0.89864168285E+02  0.43103408710E+03  0.45778520703E+03  0.12508928446E+03 0.  0.
         24    2    1    2    0    0 -0.13234364726E+03  0.10048384608E+03  0.45530344812E+03  0.49128366130E+03  0.80290483209E+02 0.  0.
        -11    1    5    5    0    0 -0.11495154918E+03  0.10528622368E+03  0.33327296207E+03  0.36792650734E+03  0.00000000000E+00 0.  1.
         12    1    5    5    0    0 -0.17392098071E+02 -0.48023776041E+01  0.12203048606E+03  0.12335715396E+03  0.00000000000E+00 0. -1.
         11    1    3    3    0    0  0.90898811465E+02 -0.28713664425E+02 -0.35388096423E+01  0.95391779646E+02  0.00000000000E+00 0. -1.
        -12    1    3    3    0    0  0.34095434688E+02  0.18093986633E+02 -0.49271016574E+02  0.62590127761E+02  0.00000000000E+00 0.  1.
          5    1    4    4  501    0 -0.12547048058E+02 -0.11713258746E+03  0.36408139372E+03  0.38268813035E+03  0.41800000000E+01 0.  1.
         -5    1    4    4    0  501  0.19896449160E+02  0.27268419173E+02  0.66952693388E+02  0.75097076676E+02  0.41800000000E+01 0.  1.
</event>
<event>
11    1  0.8039394E-009  0.3793840E+03  0.7561462E-02  0.9712624E-01
         22   -1    0    0    0    0  0.00000000000E+00  0.00000000000E+00  0.16308514820E+04  0.16308514820E+04  0.00000000000E+00 0. -1.
         22   -1    0    0    0    0 -0.00000000000E+00 -0.00000000000E+00 -0.14541739975E+03  0.14541739975E+03  0.00000000000E+00 0.  1.
         24    2    1    2    0    0 -0.32025843362E+02 -0.13947352558E+03  0.93790500245E+02  0.19010905222E+03  0.82862988245E+02 0.  0.
         25    2    1    2    0    0 -0.34018542079E+03  0.50784045096E+02  0.58983959252E+03  0.69416403977E+03  0.12509128447E+03 0.  0.
        -24    2    1    2    0    0  0.37221126415E+03  0.88689480481E+02  0.80180398947E+03  0.89199578974E+03  0.79748368498E+02 0.  0.
        -11    1    3    3    0    0 -0.42007169749E+02 -0.11267522174E+03  0.35826168607E+02  0.12547438887E+03  0.00000000000E+00 0.  1.
         12    1    3    3    0    0  0.99813263869E+01 -0.26798303839E+02  0.57964331638E+02  0.64634663357E+02  0.00000000000E+00 0. -1.
         11    1    5    5    0    0  0.10097536578E+03  0.28487573040E+01  0.15038522909E+03  0.18116251556E+03  0.00000000000E+00 0. -1.
        -12    1    5    5    0    0  0.27123589837E+03  0.85840723177E+02  0.65141876038E+03  0.71083327419E+03  0.00000000000E+00 0.  1.
          5    1    4    4  501    0 -0.16035831030E+03  0.36904038746E+02  0.16719055148E+03  0.23462064841E+03  0.41800000000E+01 0.  1.
         -5    1    4    4    0  501 -0.17982711048E+03  0.13880006350E+02  0.42264904105E+03  0.45954339136E+03  0.41800000000E+01 0.  1.
</event>
<event>
11    1  0.8039394E-009  0.2664467E+03  0.7561462E-02  0.1015485E+00
         22   -1    0    0    0    0  0.00000000000E+00  0.00000000000E+00  0.21200840623E+03  0.21200840623E+03  0.00000000000E+00 0. -1.
         22   -1    0    0    0    0 -0.00000000000E+00 -0.00000000000E+00 -0.21331323907E+04  0.21331323907E+04  0.00000000000E+00 0. -1.
        -24    2    1    2    0    0  0.20349427959E+03 -0.10697755931E+03 -0.16804294476E+04  0.16980351422E+04  0.81400834575E+02 0.  0.
         25    2    1    2    0    0 -0.25226612122E+03  0.91681670082E+02 -0.37791163678E+03  0.48011276353E+03  0.12508931188E+03 0.  0.
         24    2    1    2    0    0  0.48771841637E+02  0.15295889225E+02  0.13721709983E+03  0.16699289126E+03  0.80283475762E+02 0.  0.
        -13    1    5    5    0    0  0.33601032686E+02  0.40614998806E+02  0.42281367987E+02  0.67574563294E+02  0.00000000000E+00 0.  1.
         14    1    5    5    0    0  0.15170808951E+02 -0.25319109580E+02  0.94935731842E+02  0.99418327961E+02  0.00000000000E+00 0. -1.
         11    1    3    3    0    0  0.18268892924E+03 -0.59946516884E+02 -0.13520975041E+04  0.13657000002E+04  0.00000000000E+00 0. -1.
        -12    1    3    3    0    0  0.20805350345E+02 -0.47031042423E+02 -0.32833194341E+03  0.33233514201E+03  0.00000000000E+00 0.  1.
          5    1    4    4  501    0 -0.16524324641E+03  0.11958344004E+03 -0.27505976729E+03  0.34246295800E+03  0.41800000000E+01 0.  1.
         -5    1    4    4    0  501 -0.87022874813E+02 -0.27901769956E+02 -0.10285186948E+03  0.13764980553E+03  0.41800000000E+01 0.  1.
</event>
<event>
11    1  0.8039394E-009  0.2250563E+03  0.7561462E-02  0.1038096E+00
         22   -1    0    0    0    0  0.00000000000E+00  0.00000000000E+00  0.41107706765E+03  0.41107706765E+03  0.00000000000E+00 0.  1.
         22   -1    0    0    0    0 -0.00000000000E+00 -0.00000000000E+00 -0.72750861037E+03  0.72750861037E+03  0.00000000000E+00 0. -1.
         24    2    1    2    0    0  0.41668534237E+02  0.45864464691E+02 -0.48915943228E+03  0.49969813979E+03  0.81126227918E+02 0.  0.
         25    2    1    2    0    0 -0.17455114633E+03 -0.16408721807E+03 -0.10603176348E+03  0.29031479952E+03  0.12508888894E+03 0.  0.
        -24    2    1    2    0    0  0.13288261209E+03  0.11822275337E+03  0.27875965303E+03  0.34857273871E+03  0.11027965361E+03 0.  0.
        -11    1    3    3    0    0  0.43737935000E+02  0.44040321075E+01 -0.11290790117E+03  0.12116351185E+03  0.00000000000E+00 0.  1.
         12    1    3    3    0    0 -0.20694007637E+01  0.41460432583E+02 -0.37625153111E+03  0.37853462794E+03  0.00000000000E+00 0. -1.
         11    1    5    5    0    0  0.91522779989E+02  0.35036906862E+02  0.71086102567E+02  0.12106708090E+03  0.00000000000E+00 0. -1.
        -12    1    5    5    0    0  0.41359832103E+02  0.83185846512E+02  0.20767355047E+03  0.22750565781E+03  0.00000000000E+00 0.  1.
          5    1    4    4  501    0 -0.18268790385E+03 -0.17667169285E+03 -0.95485464737E+02  0.27151925096E+03  0.41800000000E+01 0. -1.
         -5    1    4    4    0  501  0.81367575196E+01  0.12584474781E+02 -0.10546298743E+02  0.18795548559E+02  0.41800000000E+01 0. -1.
</event>
<event>
11    1  0.8039394E-009  0.1376549E+03  0.7561462E-02  0.1110206E+00
         22   -1    0    0    0    0  0.00000000000E+00  0.00000000000E+00  0.92818792466E+02  0.92818792466E+02  0.00000000000E+00 0.  1.
         22   -1    0    0    0    0 -0.00000000000E+00 -0.00000000000E+00 -0.77725715110E+03  0.77725715110E+03  0.00000000000E+00 0. -1.
         24    2    1    2    0    0  0.42923413003E+02 -0.22000950777E+02 -0.42778227757E+03  0.43796287464E+03  0.80544033567E+02 0.  0.
         25    2    1    2    0    0 -0.84004915794E+02  0.38565788106E+02 -0.29434082451E+03  0.33290959603E+03  0.12509249485E+03 0.  0.
        -24    2    1    2    0    0  0.41081502790E+02 -0.16564837330E+02  0.37684743448E+02  0.99203472887E+02  0.80368560002E+02 0.  0.
        -11    1    3    3    0    0  0.44361535456E+02  0.17596235926E+02 -0.31103227766E+03  0.31467229159E+03  0.00000000000E+00 0.  1.
         12    1    3    3    0    0 -0.14381224530E+01 -0.39597186703E+02 -0.11674999991E+03  0.12329058306E+03  0.00000000000E+00 0. -1.
         13    1    5    5    0    0  0.31404440867E+02  0.25529674103E+02 -0.20361925593E+01  0.40523440699E+02  0.00000000000E+00 0. -1.
        -14    1    5    5    0    0  0.96770619239E+01 -0.42094511433E+02  0.39720936008E+02  0.58680032188E+02  0.00000000000E+00 0.  1.
          5    1    4    4  501    0  0.17321448939E+01  0.56579764041E+02 -0.59532207668E+02  0.82254642269E+02  0.41800000000E+01 0.  1.
         -5    1    4    4    0  501 -0.85737060688E+02 -0.18013975935E+02 -0.23480861684E+03  0.25065495376E+03  0.41800000000E+01 0.  1.
</event>
<event>
11    1  0.8039394E-009  0.1876850E+03  0.7561462E-02  0.1063591E+00
         22   -1    0    0    0    0  0.00000000000E+00  0.00000000000E+00  0.20171048077E+04  0.20171048077E+04  0.00000000000E+00 0.  1.
         22   -1    0    0    0    0 -0.00000000000E+00 -0.00000000000E+00 -0.58437250266E+03  0.58437250266E+03  0.00000000000E+00 0.  1.
        -24    2    1    2    0    0  0.69745987452E+02 -0.12206827725E+03 -0.55417676215E+03  0.57717361550E+03  0.79071686781E+02 0.  0.
         25    2    1    2    0    0 -0.48210158125E+02  0.10578110256E+03  0.39627856542E+03  0.43150805413E+03  0.12509451769E+03 0.  0.
         24    2    1    2    0    0 -0.21535829328E+02  0.16287174685E+02  0.15906305017E+04  0.15927956407E+04  0.78507935755E+02 0.  0.
        -11    1    5    5    0    0  0.12883515001E+02 -0.81402836354E+01  0.11603470028E+04  0.11604470759E+04  0.00000000000E+00 0.  1.
         12    1    5    5    0    0 -0.34419344329E+02  0.24427458321E+02  0.43028349894E+03  0.43234856475E+03  0.00000000000E+00 0. -1.
         11    1    3    3    0    0  0.23218731489E+02 -0.53416145943E+02 -0.10203141307E+03  0.11748533267E+03  0.00000000000E+00 0. -1.
        -12    1    3    3    0    0  0.46527255963E+02 -0.68652131306E+02 -0.45214534908E+03  0.45968828284E+03  0.00000000000E+00 0.  1.
          5    1    4    4  501    0 -0.52184858781E+02  0.99123042760E+02  0.16165521167E+03  0.19671938631E+03  0.41800000000E+01 0.  1.
         -5    1    4    4    0  501  0.39747006562E+01  0.66580598030E+01  0.23462335375E+03  0.23478866781E+03  0.41800000000E+01 0.  1.
</event>
<event>
11    1  0.8039394E-009  0.2220552E+03  0.7561462E-02  0.1039938E+00
         22   -1    0    0    0    0  0.00000000000E+00  0.00000000000E+00  0.99025867097E+03  0.99025867097E+03  0.00000000000E+00 0. -1.
         22   -1    0    0    0    0 -0.00000000000E+00 -0.00000000000E+00 -0.75026819392E+03  0.75026819392E+03  0.00000000000E+00 0.  1.
        -24    2    1    2    0    0 -0.67402742300E+02  0.85991042321E+02 -0.64938149447E+03  0.66343773277E+03  0.80719953353E+02 0.  0.
         25    2    1    2    0    0  0.15883254740E+03 -0.22810158870E+03  0.20410878028E+03  0.36683123133E+03  0.12508655087E+03 0.  0.
         24    2    1    2    0    0 -0.91429805101E+02  0.14211054638E+03  0.68526319123E+03  0.71025790079E+03  0.79535072273E+02 0.  0.
        -11    1    5    5    0    0  0.11781441662E+02  0.20096392480E+02  0.49366780422E+02  0.54587053113E+02  0.00000000000E+00 0.  1.
         12    1    5    5    0    0 -0.10321124676E+03  0.12201415390E+03  0.63589641081E+03  0.65567084768E+03  0.00000000000E+00 0. -1.
         11    1    3    3    0    0 -0.55568947007E+02  0.86250312639E+01 -0.31846155609E+03  0.32338840694E+03  0.00000000000E+00 0. -1.
        -12    1    3    3    0    0 -0.11833795294E+02  0.77366011057E+02 -0.33091993839E+03  0.34004932583E+03  0.00000000000E+00 0.  1.
          5    1    4    4  501    0  0.14346273491E+03 -0.22900985920E+03  0.21677386572E+03  0.34646132999E+03  0.41800000000E+01 0.  1.
         -5    1    4    4    0  501  0.15369812492E+02  0.90827049522E+00 -0.12665085443E+02  0.20369901340E+02  0.41800000000E+01 0.  1.
</event>
<event>
11    1  0.8039394E-009  0.1587356E+03  0.7561462E-02  0.1088273E+00
         22   -1    0    0    0    0  0.00000000000E+00  0.00000000000E+00  0.14328262851E+04  0.14328262851E+04  0.00000000000E+00 0.  1.
         22   -1    0    0    0    0 -0.00000000000E+00 -0.00000000000E+00 -0.24494099348E+03  0.24494099348E+03  0.00000000000E+00 0. -1.
         24    2    1    2    0    0 -0.67579675719E+02 -0.63648280713E+02 -0.18134154134E+03  0.21988006468E+03  0.82730719939E+02 0.  0.
         25    2    1    2    0    0  0.96202068116E+02  0.13771971447E+03  0.22243379598E+03  0.30552151353E+03  0.12508015018E+03 0.  0.
        -24    2    1    2    0    0 -0.28622392396E+02 -0.74071433755E+02  0.11467930369E+04  0.11523657003E+04  0.80663617009E+02 0.  0.
        -13    1    3    3    0    0  0.88552784402E+01 -0.22519291189E+02 -0.71027943689E+01  0.25218725577E+02  0.00000000000E+00 0.  1.
         14    1    3    3    0    0 -0.76434954160E+02 -0.41128989524E+02 -0.17423874697E+03  0.19466133910E+03  0.00000000000E+00 0. -1.
         11    1    5    5    0    0  0.86048849960E+01  0.42509541291E+01  0.19419266024E+02  0.21661545414E+02  0.00000000000E+00 0. -1.
        -12    1    5    5    0    0 -0.37227277392E+02 -0.78322387884E+02  0.11273737709E+04  0.11307041549E+04  0.00000000000E+00 0.  1.
          5    1    4    4  501    0  0.28976106687E+02  0.43752710187E+02  0.17111422153E+03  0.17902922560E+03  0.41800000000E+01 0. -1.
         -5    1    4    4    0  501  0.67225961429E+02  0.93967004281E+02  0.51319574454E+02  0.12649228793E+03  0.41800000000E+01 0. -1.
</event>
<event>
11    1  0.8039394E-009  0.1444539E+03  0.7561462E-02  0.1102684E+00
         22   -1    0    0    0    0  0.00000000000E+00  0.00000000000E+00  0.32800456292E+03  0.32800456292E+03  0.00000000000E+00 0. -1.
         22   -1    0    0    0    0 -0.00000000000E+00 -0.00000000000E+00 -0.53347602317E+03  0.53347602317E+03  0.00000000000E+00 0. -1.
        -24    2    1    2    0    0 -0.62058119501E+02  0.29004243724E+02 -0.32949095204E+03  0.34627288181E+03  0.81536279348E+02 0.  0.
         25    2    1    2    0    0  0.72267387346E+02 -0.47574663502E+02 -0.15921689461E+03  0.22018968378E+03  0.12509018119E+03 0.  0.
         24    2    1    2    0    0 -0.10209267845E+02  0.18570419777E+02  0.28323638640E+03  0.29501802051E+03  0.79772753519E+02 0.  0.
        -13    1    5    5    0    0  0.75324107410E+01  0.32660667053E+02  0.47164440810E+02  0.57861393527E+02  0.00000000000E+00 0.  1.
         14    1    5    5    0    0 -0.17741678586E+02 -0.14090247276E+02  0.23607194559E+03  0.23715662699E+03  0.00000000000E+00 0. -1.
         11    1    3    3    0    0 -0.40253923687E+02  0.43411344187E+02 -0.10728765900E+03  0.12253801431E+03  0.00000000000E+00 0. -1.
        -12    1    3    3    0    0 -0.21804195814E+02 -0.14407100463E+02 -0.22220329303E+03  0.22373486750E+03  0.00000000000E+00 0.  1.
          5    1    4    4  501    0  0.64867432298E+02 -0.25085323254E+02 -0.11606883714E+02  0.70634618745E+02  0.41800000000E+01 0.  1.
         -5    1    4    4    0  501  0.73999550482E+01 -0.22489340248E+02 -0.14761001090E+03  0.14955506503E+03  0.41800000000E+01 0.  1.
</event>
<event>
11    1  0.8039395E-009  0.1875358E+03  0.7561462E-02  0.1063705E+00
         22   -1    0    0    0    0  0.00000000000E+00  0.00000000000E+00  0.30434923002E+04  0.30434923002E+04  0.00000000000E+00 0.  1.
         22   -1    0    0    0    0 -0.00000000000E+00 -0.00000000000E+00 -0.22441356718E+03  0.22441356718E+03  0.00000000000E+00 0.  1.
         24    2    1    2    0    0 -0.64955539499E+02  0.90501971460E+01 -0.14476930178E+03  0.17474356901E+03  0.72636326942E+02 0.  0.
         25    2    1    2    0    0 -0.76815149564E+02 -0.99025659491E+00  0.23921028299E+02  0.14873105620E+03  0.12508862328E+03 0.  0.
        -24    2    1    2    0    0  0.14177068906E+03 -0.80599405511E+01  0.29399270065E+04  0.29444312421E+04  0.79628169737E+02 0.  0.
        -13    1    3    3    0    0 -0.44864270039E+02 -0.20040158978E+02 -0.12483384659E+03  0.13415625200E+03  0.00000000000E+00 0.  1.
         14    1    3    3    0    0 -0.20091269460E+02  0.29090356124E+02 -0.19935455196E+02  0.40587317006E+02  0.00000000000E+00 0. -1.
         13    1    5    5    0    0  0.23303954626E+02  0.26744910955E+02  0.42626613717E+03  0.42773962203E+03  0.00000000000E+00 0. -1.
        -14    1    5    5    0    0  0.11846673444E+03 -0.34804851506E+02  0.25136608693E+04  0.25166916201E+04  0.00000000000E+00 0.  1.
          5    1    4    4  501    0  0.32831441509E+02  0.40053404369E+01  0.19883103789E+02  0.38816961755E+02  0.41800000000E+01 0.  1.
         -5    1    4    4    0  501 -0.10964659107E+03 -0.49955970318E+01  0.40379245097E+01  0.10991409445E+03  0.41800000000E+01 0.  1.
</event>
<event>
11    1  0.8039394E-009  0.1409084E+03  0.7561462E-02  0.1106548E+00
         22   -1    0    0    0    0  0.00000000000E+00  0.00000000000E+00  0.40204129191E+03  0.40204129191E+03  0.00000000000E+00 0. -1.
         22   -1    0    0    0    0 -0.00000000000E+00 -0.00000000000E+00 -0.11638959403E+04  0.11638959403E+04  0.00000000000E+00 0.  1.
         24    2    1    2    0    0  0.34920356783E+02 -0.23377046584E+02 -0.11232512099E+04  0.11268001089E+04  0.78862458042E+02 0.  0.
         25    2    1    2    0    0  0.75662228482E+00 -0.46655103936E+02  0.16342432854E+03  0.21102728499E+03  0.12509089756E+03 0.  0.
        -24    2    1    2    0    0 -0.35676979067E+02  0.70032150520E+02  0.19797223290E+03  0.22810983837E+03  0.81631761100E+02 0.  0.
        -11    1    3    3    0    0  0.59823018825E+02 -0.18622999285E+02 -0.70377076555E+03  0.70655424429E+03  0.00000000000E+00 0.  1.
         12    1    3    3    0    0 -0.24902662043E+02 -0.47540472986E+01 -0.41948044432E+03  0.42024586460E+03  0.00000000000E+00 0. -1.
         11    1    5    5    0    0 -0.42661265661E+02  0.40730437123E+02  0.18695028930E+03  0.19603408572E+03  0.00000000000E+00 0. -1.
        -12    1    5    5    0    0  0.69842865939E+01  0.29301713397E+02  0.11021943601E+02  0.32075752648E+02  0.00000000000E+00 0.  1.
          5    1    4    4  501    0  0.53330141015E+02  0.10459297827E+02  0.53365202072E+02  0.76281177520E+02  0.41800000000E+01 0. -1.
         -5    1    4    4    0  501 -0.52573518731E+02 -0.57114401763E+02  0.11005912647E+03  0.13474610747E+03  0.41800000000E+01 0. -1.
</event>
<event>
11    1  0.8039394E-009  0.2451415E+03  0.7561462E-02  0.1026520E+00
         22   -1    0    0    0    0  0.00000000000E+00  0.00000000000E+00  0.20806937939E+04  0.20806937939E+04  0.00000000000E+00 0. -1.
         22   -1    0    0    0    0 -0.00000000000E+00 -0.00000000000E+00 -0.18939753778E+03  0.18939753778E+03  0.00000000000E+00 0.  1.
        -24    2    1    2    0    0 -0.53421638780E+02  0.73609806404E+02 -0.10286475349E+03  0.15869808110E+03  0.79571655421E+02 0.  0.
         25    2    1    2    0    0  0.25530525533E+03 -0.95136807623E+02  0.38689601548E+03  0.48945768576E+03  0.12509401981E+03 0.  0.
         24    2    1    2    0    0 -0.20188361655E+03  0.21527001219E+02  0.16072649941E+04  0.16219355648E+04  0.78446214965E+02 0.  0.
        -11    1    5    5    0    0 -0.15987097630E+03 -0.15595881756E+02  0.11211966251E+04  0.11326446189E+04  0.00000000000E+00 0.  1.
         12    1    5    5    0    0 -0.42012640247E+02  0.37122882975E+02  0.48606836899E+03  0.48929094587E+03  0.00000000000E+00 0. -1.
         13    1    3    3    0    0  0.11976108482E+02  0.19576140882E+02  0.28822124086E+01  0.23129193989E+02  0.00000000000E+00 0. -1.
        -14    1    3    3    0    0 -0.65397747263E+02  0.54033665522E+02 -0.10574696590E+03  0.13556888711E+03  0.00000000000E+00 0.  1.
          5    1    4    4  501    0  0.32360927031E+02 -0.26322300306E+02  0.15461769645E+03  0.16020049172E+03  0.41800000000E+01 0. -1.
         -5    1    4    4    0  501  0.22294432830E+03 -0.68814507317E+02  0.23227831903E+03  0.32925719404E+03  0.41800000000E+01 0. -1.
</event>
<event>
11    1  0.8039394E-009  0.1637075E+03  0.7561462E-02  0.1083641E+00
         22   -1    0    0    0    0  0.00000000000E+00  0.00000000000E+00  0.98819442279E+03  0.98819442279E+03  0.00000000000E+00 0.  1.
         22   -1    0    0    0    0 -0.00000000000E+00 -0.00000000000E+00 -0.60061572601E+03  0.60061572601E+03  0.00000000000E+00 0. -1.
         24    2    1    2    0    0  0.74978874754E+02 -0.75673074391E+02 -0.55583254916E+03  0.57149160298E+03  0.79401408819E+02 0.  0.
         25    2    1    2    0    0 -0.59942282178E+02  0.61936027699E+02  0.12997145106E+03  0.19992290808E+03  0.12508973724E+03 0.  0.
        -24    2    1    2    0    0 -0.15036592575E+02  0.13737046692E+02  0.81343979487E+03  0.81739563775E+03  0.77695065253E+02 0.  0.
        -11    1    3    3    0    0  0.27320039079E+02 -0.43898403381E+02 -0.10505895478E+03  0.11709328902E+03  0.00000000000E+00 0.  1.
         12    1    3    3    0    0  0.47658835674E+02 -0.31774671010E+02 -0.45077359438E+03  0.45439831396E+03  0.00000000000E+00 0. -1.
         13    1    5    5    0    0 -0.18581066867E+02  0.44986878261E+02  0.52164694135E+03  0.52391278538E+03  0.00000000000E+00 0. -1.
        -14    1    5    5    0    0  0.35444742912E+01 -0.31249831569E+02  0.29179285352E+03  0.29348285237E+03  0.00000000000E+00 0.  1.
          5    1    4    4  501    0 -0.66686082345E+02  0.28983647249E+02  0.14544665526E+03  0.16266310987E+03  0.41800000000E+01 0.  1.
         -5    1    4    4    0  501  0.67438001668E+01  0.32952380450E+02 -0.15475204193E+02  0.37259798212E+02  0.41800000000E+01 0.  1.
</event>
<event>
11    1  0.8039394E-009  0.1533252E+03  0.7561462E-02  0.1093529E+00
         22   -1    0    0    0    0  0.00000000000E+00  0.00000000000E+00  0.82700058730E+03  0.82700058730E+03  0.00000000000E+00 0.  1.
         22   -1    0    0    0    0 -0.00000000000E+00 -0.00000000000E+00 -0.32538813643E+03  0.32538813643E+03  0.00000000000E+00 0. -1.
        -24    2    1    2    0    0  0.29930879182E+02  0.20589387242E+02 -0.28888582230E+03  0.30197274469E+03  0.80079584261E+02 0.  0.
         25    2    1    2    0    0  0.64982516303E+02 -0.18325625605E+02  0.18967355974E+03  0.23702822290E+03  0.12509101968E+03 0.  0.
         24    2    1    2    0    0 -0.94913395485E+02 -0.22637616375E+01  0.60082471342E+03  0.61338775615E+03  0.78996999142E+02 0.  0.
        -13    1    5    5    0    0 -0.64803082968E+02  0.79510489615E+01  0.54692834687E+03  0.55081146988E+03  0.00000000000E+00 0.  1.
         14    1    5    5    0    0 -0.30110312516E+02 -0.10214810599E+02  0.53896366550E+02  0.62576286265E+02  0.00000000000E+00 0. -1.
         13    1    3    3    0    0  0.22615916291E+01  0.43979754296E+02 -0.21756033929E+03  0.22197259925E+03  0.00000000000E+00 0. -1.
        -14    1    3    3    0    0  0.27669287553E+02 -0.23390367054E+02 -0.71325483009E+02  0.80000145444E+02  0.00000000000E+00 0.  1.
          5    1    4    4  501    0 -0.20915226219E+02 -0.83158696650E+01 -0.54728058012E+01  0.23537722477E+02  0.41800000000E+01 0. -1.
         -5    1    4    4    0  501  0.85897742522E+02 -0.10009755940E+02  0.19514636554E+03  0.21349050042E+03  0.41800000000E+01 0. -1.
</event>
<event>
11    1  0.8039394E-009  0.1889334E+03  0.7561462E-02  0.1062637E+00
         22   -1    0    0    0    0  0.00000000000E+00  0.00000000000E+00  0.10491556650E+03  0.10491556650E+03  0.00000000000E+00 0.  1.
         22   -1    0    0    0    0 -0.00000000000E+00 -0.00000000000E+00 -0.17299487861E+04  0.17299487861E+04  0.00000000000E+00 0.  1.
        -24    2    1    2    0    0  0.47183315308E+02  0.15198702913E+02 -0.11576442097E+04  0.11616367771E+04  0.82477995482E+02 0.  0.
         25    2    1    2    0    0 -0.23128097936E+02 -0.15357632118E+03 -0.46975840361E+03  0.51033440388E+03  0.12509056993E+03 0.  0.
         24    2    1    2    0    0 -0.24055217372E+02  0.13837761827E+03  0.23693937340E+01  0.16289317163E+03  0.82471526102E+02 0.  0.
        -11    1    5    5    0    0  0.57560695170E+01  0.11084423551E+03  0.28541703397E+02  0.11460456236E+03  0.00000000000E+00 0.  1.
         12    1    5    5    0    0 -0.29811286889E+02  0.27533382763E+02 -0.26172309663E+02  0.48288609272E+02  0.00000000000E+00 0. -1.
         13    1    3    3    0    0 -0.95167260412E+00  0.14638810185E+01  0.93236028285E+00  0.19793746686E+01  0.00000000000E+00 0. -1.
        -14    1    3    3    0    0  0.48134987912E+02  0.13734821895E+02 -0.11585765700E+04  0.11596574024E+04  0.00000000000E+00 0.  1.
          5    1    4    4  501    0 -0.31205488787E+02 -0.85043221407E+02 -0.10349684606E+03  0.13760523821E+03  0.41800000000E+01 0.  1.
         -5    1    4    4    0  501  0.80773908512E+01 -0.68533099775E+02 -0.36626155755E+03  0.37272916567E+03  0.41800000000E+01 0.  1.
</event>
<event>
11    1  0.8039394E-009  0.1448574E+03  0.7561462E-02  0.1102252E+00
         22   -1    0    0    0    0  0.00000000000E+00  0.00000000000E+00  0.12105460157E+04  0.12105460157E+04  0.00000000000E+00 0. -1.
         22   -1    0    0    0    0 -0.00000000000E+00 -0.00000000000E+00 -0.18164505731E+04  0.18164505731E+04  0.00000000000E+00 0.  1.
        -24    2    1    2    0    0  0.70486553563E+02 -0.14962739926E+01 -0.15135857603E+04  0.15178486203E+04  0.89173914855E+02 0.  0.
         25    2    1    2    0    0 -0.98056630096E+02  0.19248459575E+02 -0.27771372556E+03  0.32055931643E+03  0.12509099120E+03 0.  0.
         24    2    1    2    0    0  0.27570076534E+02 -0.17752185582E+02  0.11853949286E+04  0.11885886521E+04  0.80663486536E+02 0.  0.
        -13    1    5    5    0    0 -0.11404625250E+02 -0.16851655342E+02  0.81370178302E+02  0.83875799142E+02  0.00000000000E+00 0.  1.
         14    1    5    5    0    0  0.38974701783E+02 -0.90053024000E+00  0.11040247503E+04  0.11047128530E+04  0.00000000000E+00 0. -1.
         11    1    3    3    0    0  0.18190980825E+02  0.18978341328E+02 -0.10844085645E+03  0.11158184696E+03  0.00000000000E+00 0. -1.
        -12    1    3    3    0    0  0.52295572737E+02 -0.20474615321E+02 -0.14051449039E+04  0.14062667733E+04  0.00000000000E+00 0.  1.
          5    1    4    4  501    0 -0.38885659894E+02  0.46720753766E+02 -0.23428235120E+03  0.24207564079E+03  0.41800000000E+01 0. -1.
         -5    1    4    4    0  501 -0.59170970203E+02 -0.27472294191E+02 -0.43431374362E+02  0.78483675639E+02  0.41800000000E+01 0. -1.
</event>
<event>
11    1  0.1291170E-008  0.3689905E+04  0.7561462E-02  0.7594749E-01
         22   -1    0    0    0    0  0.00000000000E+00  0.00000000000E+00  0.12626007775E+04  0.12626007775E+04  0.00000000000E+00 0.  1.
         22   -1    0    0    0    0 -0.00000000000E+00 -0.00000000000E+00 -0.26959034801E+04  0.26959034801E+04  0.00000000000E+00 0.  1.
        -24    2    1    2    0    0 -0.12681962495E+04 -0.27200935188E+02 -0.60433964796E+03  0.14074407578E+04  0.81249360066E+02 0.  0.
         25    2    1    2    0    0  0.17132505744E+04 -0.28741531155E+03 -0.95417118499E+03  0.19859318989E+04  0.12509102576E+03 0.  0.
         24    2    1    2    0    0 -0.44505432488E+03  0.31461624674E+03  0.12520813034E+03  0.56513160088E+03  0.81485677281E+02 0.  0.
        -11    1    5    5    0    0 -0.11523671347E+03  0.12248776766E+03  0.21116515440E+02  0.16949531139E+03  0.00000000000E+00 0.  1.
         12    1    5    5    0    0 -0.32981761141E+03  0.19212847907E+03  0.10409161490E+03  0.39563628949E+03  0.00000000000E+00 0. -1.
         11    1    3    3    0    0 -0.72949181935E+03  0.20864044074E+02 -0.32849767945E+03  0.80031515557E+03  0.00000000000E+00 0. -1.
        -12    1    3    3    0    0 -0.53870443014E+03 -0.48064979262E+02 -0.27584196851E+03  0.60712560223E+03  0.00000000000E+00 0.  1.
          5    1    4    4  501    0  0.97592923213E+03 -0.18367056909E+03 -0.61174826277E+03  0.11663730765E+04  0.41800000000E+01 0. -1.
         -5    1    4    4    0  501  0.73732134224E+03 -0.10374474245E+03 -0.34242292223E+03  0.81955882240E+03  0.41800000000E+01 0. -1.
</event>
<event>
11    1  0.8039394E-009  0.2169901E+03  0.7561462E-02  0.1043119E+00
         22   -1    0    0    0    0  0.00000000000E+00  0.00000000000E+00  0.36436363316E+03  0.36436363316E+03  0.00000000000E+00 0.  1.
         22   -1    0    0    0    0 -0.00000000000E+00 -0.00000000000E+00 -0.54620335503E+03  0.54620335503E+03  0.00000000000E+00 0. -1.
         24    2    1    2    0    0  0.11033844532E+03 -0.12608822236E+03 -0.30535349891E+03  0.35737168214E+03  0.80005922038E+02 0.  0.
         25    2    1    2    0    0 -0.10421556702E+03  0.17810040894E+03 -0.13542059452E+03  0.27670685338E+03  0.12508918905E+03 0.  0.
        -24    2    1    2    0    0 -0.61228783073E+01 -0.52012186573E+02  0.25893437157E+03  0.27648845267E+03  0.81584915812E+02 0.  0.
        -11    1    3    3    0    0  0.32371502500E+02 -0.33488951207E+02 -0.27003348077E+02  0.53838692726E+02  0.00000000000E+00 0.  1.
         12    1    3    3    0    0  0.77966942823E+02 -0.92599271158E+02 -0.27835015083E+03  0.30353298941E+03  0.00000000000E+00 0. -1.
         11    1    5    5    0    0 -0.36836556767E+02 -0.15435419397E+02  0.61289603371E+02  0.73154627794E+02  0.00000000000E+00 0. -1.
        -12    1    5    5    0    0  0.30713678460E+02 -0.36576767176E+02  0.19764476820E+03  0.20333382487E+03  0.00000000000E+00 0.  1.
          5    1    4    4  501    0 -0.10865827144E+03  0.84512295509E+02 -0.11791185946E+03  0.18129982638E+03  0.41800000000E+01 0.  1.
         -5    1    4    4    0  501  0.44427044252E+01  0.93588113429E+02 -0.17508735058E+02  0.95407027001E+02  0.41800000000E+01 0.  1.
</event>
<event>
11    1  0.8039394E-009  0.1382208E+03  0.7561462E-02  0.1109562E+00
         22   -1    0    0    0    0  0.00000000000E+00  0.00000000000E+00  0.22764481772E+04  0.22764481772E+04  0.00000000000E+00 0.  1.
         22   -1    0    0    0    0 -0.00000000000E+00 -0.00000000000E+00 -0.45393512977E+03  0.45393512977E+03  0.00000000000E+00 0. -1.
         24    2    1    2    0    0 -0.12088350495E+02 -0.16510224769E+02 -0.43726850519E+03  0.44486793816E+03  0.79278124576E+02 0.  0.
         25    2    1    2    0    0 -0.25022444870E+02  0.61402399178E+02  0.42097863311E+03  0.44415024815E+03  0.12510018394E+03 0.  0.
        -24    2    1    2    0    0  0.37110795365E+02 -0.44892174409E+02  0.18388029196E+04  0.18413651207E+04  0.77696926167E+02 0.  0.
        -13    1    3    3    0    0  0.11324365815E+02 -0.40191941288E+02 -0.15094180305E+03  0.15661117876E+03  0.00000000000E+00 0.  1.
         14    1    3    3    0    0 -0.23412716310E+02  0.23681716519E+02 -0.28632670214E+03  0.28825675940E+03  0.00000000000E+00 0. -1.
         13    1    5    5    0    0  0.98520495976E+01 -0.89412647252E+01  0.43355720696E+02  0.45351158896E+02  0.00000000000E+00 0. -1.
        -14    1    5    5    0    0  0.27258745767E+02 -0.35950909684E+02  0.17954471989E+04  0.17960139618E+04  0.00000000000E+00 0.  1.
          5    1    4    4  501    0 -0.66981944159E+02  0.62109066635E+02  0.21074262630E+03  0.22972601930E+03  0.41800000000E+01 0.  1.
         -5    1    4    4    0  501  0.41959499289E+02 -0.70666745638E+00  0.21023600681E+03  0.21442422885E+03  0.41800000000E+01 0.  1.
</event>
<event>
11    1  0.8039394E-009  0.5276399E+03  0.7561462E-02  0.9333795E-01
         22   -1    0    0    0    0  0.00000000000E+00  0.00000000000E+00  0.20485995465E+04  0.20485995465E+04  0.00000000000E+00 0.  1.
         22   -1    0    0    0    0 -0.00000000000E+00 -0.00000000000E+00 -0.35415461128E+03  0.35415461128E+03  0.00000000000E+00 0. -1.
        -24    2    1    2    0    0  0.15386252942E+03  0.49670081318E+03 -0.67177706983E+02  0.53060538850E+03  0.81509865730E+02 0.  0.
         25    2    1    2    0    0 -0.23080165707E+03 -0.41907817270E+03  0.12921982534E+04  0.13835890745E+04  0.12508589474E+03 0.  0.
         24    2    1    2    0    0  0.76939127652E+02 -0.77622640482E+02  0.46942438882E+03  0.48855969486E+03  0.79915048289E+02 0.  0.
        -11    1    5    5    0    0 -0.11013924044E+02 -0.84712970238E+01  0.13930531752E+03  0.13999657455E+03  0.00000000000E+00 0.  1.
         12    1    5    5    0    0  0.87953051697E+02 -0.69151343458E+02  0.33011907131E+03  0.34856312032E+03  0.00000000000E+00 0. -1.
         11    1    3    3    0    0  0.10093543624E+03  0.33420691650E+03 -0.83403255110E+02  0.35894056373E+03  0.00000000000E+00 0. -1.
        -12    1    3    3    0    0  0.52927093183E+02  0.16249389668E+03  0.16225548128E+02  0.17166482477E+03  0.00000000000E+00 0.  1.
          5    1    4    4  501    0 -0.19038606191E+03 -0.21928168768E+03  0.73987211231E+03  0.79483301775E+03  0.41800000000E+01 0.  1.
         -5    1    4    4    0  501 -0.40415595160E+02 -0.19979648502E+03  0.55232614111E+03  0.58875605671E+03  0.41800000000E+01 0.  1.
</event>
<event>
11    1  0.8039394E-009  0.1446713E+03  0.7561462E-02  0.1102451E+00
         22   -1    0    0    0    0  0.00000000000E+00  0.00000000000E+00  0.32620209941E+03  0.32620209941E+03  0.00000000000E+00 0.  1.
         22   -1    0    0    0    0 -0.00000000000E+00 -0.00000000000E+00 -0.41375308769E+03  0.41375308769E+03  0.00000000000E+00 0. -1.
         24    2    1    2    0    0 -0.75670725706E+02 -0.37685138450E+02 -0.29499870518E+03  0.31689400111E+03  0.79065438056E+02 0.  0.
         25    2    1    2    0    0  0.28571073670E+02  0.40017066202E+01 -0.56973880293E+02  0.14044869758E+03  0.12508994248E+03 0.  0.
        -24    2    1    2    0    0  0.47099652035E+02  0.33683431830E+02  0.26442159719E+03  0.28261248842E+03  0.81228607917E+02 0.  0.
        -11    1    3    3    0    0 -0.18416073361E+02 -0.53275308429E+02 -0.14788359320E+03  0.15826233723E+03  0.00000000000E+00 0.  1.
         12    1    3    3    0    0 -0.57254652344E+02  0.15590169979E+02 -0.14711511197E+03  0.15863166388E+03  0.00000000000E+00 0. -1.
         11    1    5    5    0    0 -0.95066117662E+01  0.31091935887E+01  0.15757274115E+03  0.15788987145E+03  0.00000000000E+00 0. -1.
        -12    1    5    5    0    0  0.56606263802E+02  0.30574238241E+02  0.10684885605E+03  0.12472261697E+03  0.00000000000E+00 0.  1.
          5    1    4    4  501    0  0.41514488041E+02 -0.53567704674E+02 -0.40426094391E+02  0.79023371283E+02  0.41800000000E+01 0.  1.
         -5    1    4    4    0  501 -0.12943414371E+02  0.57569411294E+02 -0.16547785902E+02  0.61425326296E+02  0.41800000000E+01 0.  1.
</event>
<event>
11    1  0.8039394E-009  0.1279971E+03  0.7561462E-02  0.1121755E+00
         22   -1    0    0    0    0  0.00000000000E+00  0.00000000000E+00  0.55446887319E+03  0.55446887319E+03  0.00000000000E+00 0. -1.
         22   -1    0    0    0    0 -0.00000000000E+00 -0.00000000000E+00 -0.25243748132E+03  0.25243748132E+03  0.00000000000E+00 0.  1.
        -24    2    1    2    0    0  0.21372290580E+02 -0.17424014694E+02 -0.19913608966E+03  0.21577228396E+03  0.78371711918E+02 0.  0.
         25    2    1    2    0    0 -0.20448184348E+02  0.85518325278E+01  0.54487123191E+02  0.13823968991E+03  0.12510037246E+03 0.  0.
         24    2    1    2    0    0 -0.92410623204E+00  0.88721821664E+01  0.44668035835E+03  0.45289438064E+03  0.74232121707E+02 0.  0.
        -13    1    5    5    0    0 -0.14399431375E+02  0.32233401780E+02  0.11953542241E+03  0.12463969281E+03  0.00000000000E+00 0.  1.
         14    1    5    5    0    0  0.13475325143E+02 -0.23361219614E+02  0.32714493594E+03  0.32825468783E+03  0.00000000000E+00 0. -1.
         11    1    3    3    0    0  0.38105511102E+02  0.18193967864E+02 -0.12336090552E+03  0.13038774273E+03  0.00000000000E+00 0. -1.
        -12    1    3    3    0    0 -0.16733220522E+02 -0.35617982558E+02 -0.75775184142E+02  0.85384541237E+02  0.00000000000E+00 0.  1.
          5    1    4    4  501    0  0.10976953850E+02 -0.54423742404E+02  0.16079583076E+02  0.57952244521E+02  0.41800000000E+01 0.  1.
         -5    1    4    4    0  501 -0.31425138198E+02  0.62975574932E+02  0.38407540115E+02  0.80287445385E+02  0.41800000000E+01 0.  1.
</event>
<event>
11    1  0.8039394E-009  0.1505036E+03  0.7561462E-02  0.1096365E+00
         22   -1    0    0    0    0  0.00000000000E+00  0.00000000000E+00  0.34257386713E+03  0.34257386713E+03  0.00000000000E+00 0. -1.
         22   -1    0    0    0    0 -0.00000000000E+00 -0.00000000000E+00 -0.46397005592E+03  0.46397005592E+03  0.00000000000E+00 0. -1.
         24    2    1    2    0    0  0.11935848671E+01 -0.12006664678E+02 -0.37259683480E+03  0.38270775857E+03  0.86551964300E+02 0.  0.
         25    2    1    2    0    0  0.32375088855E+02  0.86908414492E+02  0.98507385653E+01  0.15603108762E+03  0.12508974525E+03 0.  0.
        -24    2    1    2    0    0 -0.33568673722E+02 -0.74901749814E+02  0.24134990744E+03  0.26780507686E+03  0.82052747599E+02 0.  0.
        -13    1    3    3    0    0  0.15218928620E+02  0.33889449499E+02 -0.12099243188E+03  0.12656729099E+03  0.00000000000E+00 0.  1.
         14    1    3    3    0    0 -0.14025343753E+02 -0.45896114177E+02 -0.25160440292E+03  0.25614046758E+03  0.00000000000E+00 0. -1.
         13    1    5    5    0    0 -0.48437146573E+02 -0.34424494646E+02  0.19773868689E+03  0.20647467470E+03  0.00000000000E+00 0. -1.
        -14    1    5    5    0    0  0.14868472851E+02 -0.40477255168E+02  0.43611220550E+02  0.61330402157E+02  0.00000000000E+00 0.  1.
          5    1    4    4  501    0  0.31956673687E+02  0.78441202590E+02  0.60713869618E+02  0.10429716018E+03  0.41800000000E+01 0. -1.
         -5    1    4    4    0  501  0.41841516829E+00  0.84672119021E+01 -0.50863131053E+02  0.51733927447E+02  0.41800000000E+01 0. -1.
</event>
<event>
11    1  0.8039394E-009  0.1467847E+03  0.7561462E-02  0.1100210E+00
         22   -1    0    0    0    0  0.00000000000E+00  0.00000000000E+00  0.66773991647E+03  0.66773991647E+03  0.00000000000E+00 0.  1.
         22   -1    0    0    0    0 -0.00000000000E+00 -0.00000000000E+00 -0.38359946436E+03  0.38359946436E+03  0.00000000000E+00 0.  1.
         24    2    1    2    0    0  0.74366489717E+02  0.16297416762E+02 -0.34510152068E+03  0.36293779724E+03  0.82660779707E+02 0.  0.
         25    2    1    2    0    0 -0.95532851725E+02 -0.82546583303E+01  0.21790743547E+03  0.26893391927E+03  0.12508851808E+03 0.  0.
        -24    2    1    2    0    0  0.21166362008E+02 -0.80427584319E+01  0.41133453732E+03  0.41946766433E+03  0.79021003425E+02 0.  0.
        -11    1    3    3    0    0  0.10010700569E+02  0.63922038709E+01 -0.23296454394E+03  0.23326712826E+03  0.00000000000E+00 0.  1.
         12    1    3    3    0    0  0.64355789148E+02  0.99052128914E+01 -0.11213697674E+03  0.12967066898E+03  0.00000000000E+00 0. -1.
         11    1    5    5    0    0  0.37930058876E+02 -0.16155131370E+02  0.10862028540E+03  0.11618108295E+03  0.00000000000E+00 0. -1.
        -12    1    5    5    0    0 -0.16763696868E+02  0.81123729380E+01  0.30271425192E+03  0.30328658137E+03  0.00000000000E+00 0.  1.
          5    1    4    4  501    0 -0.66835703526E+02 -0.71574168571E+01  0.22836321354E+03  0.23808710503E+03  0.41800000000E+01 0. -1.
         -5    1    4    4    0  501 -0.28697148199E+02 -0.10972414733E+01 -0.10455778071E+02  0.30846814239E+02  0.41800000000E+01 0. -1.
</event>
<event>
11    1  0.8039394E-009  0.1842339E+03  0.7561462E-02  0.1066269E+00
         22   -1    0    0    0    0  0.00000000000E+00  0.00000000000E+00  0.31836746783E+03  0.31836746783E+03  0.00000000000E+00 0. -1.
         22   -1    0    0    0    0 -0.00000000000E+00 -0.00000000000E+00 -0.11257424291E+04  0.11257424291E+04  0.00000000000E+00 0.  1.
         24    2    1    2    0    0 -0.33648673563E+02 -0.13145494886E+03 -0.10306035205E+04  0.10424613833E+04  0.78546053150E+02 0.  0.
         25    2    1    2    0    0  0.61297178011E+02  0.11599232302E+03  0.22020429368E+02  0.18260258206E+03  0.12508893090E+03 0.  0.
        -24    2    1    2    0    0 -0.27648504448E+02  0.15462625837E+02  0.20120812987E+03  0.21904593151E+03  0.80578384127E+02 0.  0.
        -11    1    3    3    0    0 -0.48737732058E+02 -0.63221592448E+02 -0.39198101706E+03  0.40002681661E+03  0.00000000000E+00 0.  1.
         12    1    3    3    0    0  0.15089058495E+02 -0.68233356413E+02 -0.63862250343E+03  0.64243456671E+03  0.00000000000E+00 0. -1.
         11    1    5    5    0    0 -0.24085276344E+02  0.46906959270E+02  0.14830946511E+03  0.15740413211E+03  0.00000000000E+00 0. -1.
        -12    1    5    5    0    0 -0.35632281043E+01 -0.31444333432E+02  0.52898664767E+02  0.61641799403E+02  0.00000000000E+00 0.  1.
          5    1    4    4  501    0 -0.38139161030E+01  0.61961712059E+02 -0.43153666713E+02  0.75719951585E+02  0.41800000000E+01 0. -1.
         -5    1    4    4    0  501  0.65111094114E+02  0.54030610965E+02  0.65174096080E+02  0.10688263048E+03  0.41800000000E+01 0. -1.
</event>
<event>
11    1  0.8039394E-009  0.1559599E+03  0.7561462E-02  0.1090940E+00
         22   -1    0    0    0    0  0.00000000000E+00  0.00000000000E+00  0.12923260670E+04  0.12923260670E+04  0.00000000000E+00 0.  1.
         22   -1    0    0    0    0 -0.00000000000E+00 -0.00000000000E+00 -0.14478555074E+04  0.14478555074E+04  0.00000000000E+00 0. -1.
        -24    2    1    2    0    0 -0.21278748633E+02  0.90274267326E+02 -0.13956543475E+04  0.14011468860E+04  0.82215021709E+02 0.  0.
         25    2    1    2    0    0  0.47505955885E+02 -0.10725864560E+03  0.10604737189E+03  0.20163052278E+03  0.12509032628E+03 0.  0.
         24    2    1    2    0    0 -0.26227207251E+02  0.16984378275E+02  0.11340775353E+04  0.11374041657E+04  0.81117473404E+02 0.  0.
        -11    1    5    5    0    0 -0.24214871857E+02 -0.10847784461E+02  0.11812051958E+03  0.12106399792E+03  0.00000000000E+00 0.  1.
         12    1    5    5    0    0 -0.20123353940E+01  0.27832162735E+02  0.10159570157E+04  0.10163401678E+04  0.00000000000E+00 0. -1.
         13    1    3    3    0    0  0.72118297139E+01  0.72527459136E+02 -0.12282488609E+04  0.12304094876E+04  0.00000000000E+00 0. -1.
        -14    1    3    3    0    0 -0.28490578347E+02  0.17746808189E+02 -0.16740548659E+03  0.17073739835E+03  0.00000000000E+00 0.  1.
          5    1    4    4  501    0  0.66092450948E+02 -0.19239308073E+02  0.84429987084E+02  0.10901494469E+03  0.41800000000E+01 0.  1.
         -5    1    4    4    0  501 -0.18586495063E+02 -0.88019337527E+02  0.21617384811E+02  0.92615578082E+02  0.41800000000E+01 0.  1.
</event>
<event>
11    1  0.8039394E-009  0.3255098E+03  0.7561462E-02  0.9899378E-01
         22   -1    0    0    0    0  0.00000000000E+00  0.00000000000E+00  0.89522083102E+03  0.89522083102E+03  0.00000000000E+00 0. -1.
         22   -1    0    0    0    0 -0.00000000000E+00 -0.00000000000E+00 -0.97901722934E+03  0.97901722934E+03  0.00000000000E+00 0. -1.
        -24    2    1    2    0    0 -0.33082178654E+02 -0.28636517824E+02 -0.66189128576E+03  0.66804859011E+03  0.79210882387E+02 0.  0.
         25    2    1    2    0    0  0.26461302398E+03 -0.16177979125E+03 -0.18516709643E+03  0.38226594453E+03  0.12509054893E+03 0.  0.
         24    2    1    2    0    0 -0.23153084532E+03  0.19041630907E+03  0.76326198387E+03  0.82392352572E+03  0.80101292876E+02 0.  0.
        -13    1    5    5    0    0 -0.11162911836E+03  0.12791416167E+03  0.34803711025E+03  0.38723755363E+03  0.00000000000E+00 0.  1.
         14    1    5    5    0    0 -0.11990172696E+03  0.62502147400E+02  0.41522487361E+03  0.43668597210E+03  0.00000000000E+00 0. -1.
         11    1    3    3    0    0 -0.35141132236E+02 -0.33127387252E+01 -0.60144240854E+03  0.60247725617E+03  0.00000000000E+00 0. -1.
        -12    1    3    3    0    0  0.20589535826E+01 -0.25323779098E+02 -0.60448877217E+02  0.65571333939E+02  0.00000000000E+00 0.  1.
          5    1    4    4  501    0  0.84470095142E+02 -0.40405588282E+02 -0.12610584407E+03  0.15712404286E+03  0.41800000000E+01 0.  1.
         -5    1    4    4    0  501  0.18014292883E+03 -0.12137420297E+03 -0.59061252360E+02  0.22514190167E+03  0.41800000000E+01 0.  1.
</event>
<event>
11    1  0.8039394E-009  0.1292113E+03  0.7561462E-02  0.1120242E+00
         22   -1    0    0    0    0  0.00000000000E+00  0.00000000000E+00  0.22049263337E+03  0.22049263337E+03  0.00000000000E+00 0. -1.
         22   -1    0    0    0    0 -0.00000000000E+00 -0.00000000000E+00 -0.72925730144E+03  0.72925730144E+03  0.00000000000E+00 0. -1.
        -24    2    1    2    0    0 -0.13999071168E+00 -0.40261767468E+02 -0.31818944576E+03  0.33124755451E+03  0.82821431167E+02 0.  0.
         25    2    1    2    0    0  0.41236646210E+01  0.19979083837E+02 -0.38530986528E+03  0.40562010397E+03  0.12509119900E+03 0.  0.
         24    2    1    2    0    0 -0.39836739094E+01  0.20282683631E+02  0.19473464296E+03  0.21288227633E+03  0.83486678543E+02 0.  0.
        -13    1    5    5    0    0  0.55902378534E+01  0.35355250229E+02  0.28671099751E+02  0.45861491896E+02  0.00000000000E+00 0.  1.
         14    1    5    5    0    0 -0.95739117628E+01 -0.15072566598E+02  0.16606354321E+03  0.16702078443E+03  0.00000000000E+00 0. -1.
         13    1    3    3    0    0  0.17354033958E+02 -0.57805317623E+02 -0.27417466990E+03  0.28073896569E+03  0.00000000000E+00 0. -1.
        -14    1    3    3    0    0 -0.17494024670E+02  0.17543550154E+02 -0.44014775857E+02  0.50508588823E+02  0.00000000000E+00 0.  1.
          5    1    4    4  501    0 -0.31227561931E+02 -0.36629222302E+02 -0.25072587500E+03  0.25533859353E+03  0.41800000000E+01 0. -1.
         -5    1    4    4    0  501  0.35351226552E+02  0.56608306140E+02 -0.13458399028E+03  0.15028151045E+03  0.41800000000E+01 0. -1.
</event>
<event>
11    1  0.8039394E-009  0.1592185E+03  0.7561462E-02  0.1087815E+00
         22   -1    0    0    0    0  0.00000000000E+00  0.00000000000E+00  0.40975420950E+03  0.40975420950E+03  0.00000000000E+00 0.  1.
         22   -1    0    0    0    0 -0.00000000000E+00 -0.00000000000E+00 -0.28003939107E+03  0.28003939107E+03  0.00000000000E+00 0. -1.
        -24    2    1    2    0    0 -0.10843218971E+03 -0.52170415638E+02 -0.10311405236E+03  0.17797068862E+03  0.81004729383E+02 0.  0.
         25    2    1    2    0    0  0.10485628584E+03 -0.52292324885E+02 -0.62259121722E+02  0.18234560176E+03  0.12507754523E+03 0.  0.
         24    2    1    2    0    0  0.35759038665E+01  0.10446274052E+03  0.29508799251E+03  0.32947731018E+03  0.10272839603E+03 0.  0.
        -13    1    5    5    0    0  0.46576882493E+02  0.68642627645E+02  0.22488299761E+03  0.23969476200E+03  0.00000000000E+00 0.  1.
         14    1    5    5    0    0 -0.43000978626E+02  0.35820112878E+02  0.70204994897E+02  0.89782548182E+02  0.00000000000E+00 0. -1.
         13    1    3    3    0    0 -0.46273368837E+02  0.18149522022E+02 -0.23885848486E+02  0.55146745789E+02  0.00000000000E+00 0. -1.
        -14    1    3    3    0    0 -0.62158820871E+02 -0.70319937660E+02 -0.79228203873E+02  0.12282394283E+03  0.00000000000E+00 0.  1.
          5    1    4    4  501    0  0.11920361198E+03 -0.74754180115E+02 -0.65339559781E+02  0.15519155591E+03  0.41800000000E+01 0.  1.
         -5    1    4    4    0  501 -0.14347326134E+02  0.22461855230E+02  0.30804380590E+01  0.27154045853E+02  0.41800000000E+01 0.  1.
</event>
<event>
11    1  0.8039394E-009  0.1749604E+03  0.7561462E-02  0.1073794E+00
         22   -1    0    0    0    0  0.00000000000E+00  0.00000000000E+00  0.80587288590E+03  0.80587288590E+03  0.00000000000E+00 0. -1.
         22   -1    0    0    0    0 -0.00000000000E+00 -0.00000000000E+00 -0.57911663027E+03  0.57911663027E+03  0.00000000000E+00 0.  1.
        -24    2    1    2    0    0 -0.17110735687E+02  0.12192104360E+03 -0.48991275050E+03  0.51138310953E+03  0.79628283083E+02 0.  0.
         25    2    1    2    0    0 -0.82324549501E+02 -0.12239734120E+03  0.56952715728E+02  0.20161734712E+03  0.12508997660E+03 0.  0.
         24    2    1    2    0    0  0.99435285188E+02  0.47629759759E+00  0.65971629041E+03  0.67198905952E+03  0.80349919003E+02 0.  0.
        -13    1    5    5    0    0  0.62607243373E+02 -0.37732236764E+02  0.43442404163E+03  0.44053108467E+03  0.00000000000E+00 0.  1.
         14    1    5    5    0    0  0.36828041815E+02  0.38208534361E+02  0.22529224877E+03  0.23145797485E+03  0.00000000000E+00 0. -1.
         13    1    3    3    0    0  0.52815523030E+01  0.10240162351E+03 -0.25885978083E+03  0.27842839910E+03  0.00000000000E+00 0. -1.
        -14    1    3    3    0    0 -0.22392287990E+02  0.19519420093E+02 -0.23105296967E+03  0.23295471044E+03  0.00000000000E+00 0.  1.
          5    1    4    4  501    0 -0.62836535680E+02 -0.11841525490E+03  0.90920658021E+02  0.16203284008E+03  0.41800000000E+01 0. -1.
         -5    1    4    4    0  501 -0.19488013821E+02 -0.39820863047E+01 -0.33967942293E+02  0.39584507041E+02  0.41800000000E+01 0. -1.
</event>
<event>
11    1  0.8039394E-009  0.2549465E+03  0.7561462E-02  0.1021297E+00
         22   -1    0    0    0    0  0.00000000000E+00  0.00000000000E+00  0.14224423669E+04  0.14224423669E+04  0.00000000000E+00 0.  1.
         22   -1    0    0    0    0 -0.00000000000E+00 -0.00000000000E+00 -0.77724470528E+03  0.77724470528E+03  0.00000000000E+00 0.  1.
         24    2    1    2    0    0  0.28185274333E+02  0.27647366325E+02 -0.64236818974E+03  0.64791614854E+03  0.74830861333E+02 0.  0.
         25    2    1    2    0    0  0.17964470914E+03  0.58980068331E+02 -0.15240853683E+02  0.22722425921E+03  0.12509080850E+03 0.  0.
        -24    2    1    2    0    0 -0.20782998347E+03 -0.86627434656E+02  0.13028067051E+04  0.13245466645E+04  0.80130774830E+02 0.  0.
        -11    1    3    3    0    0  0.43400599876E+02 -0.89284967370E+01 -0.37990167198E+03  0.38247694113E+03  0.00000000000E+00 0.  1.
         12    1    3    3    0    0 -0.15215325543E+02  0.36575863062E+02 -0.26246651775E+03  0.26543920741E+03  0.00000000000E+00 0. -1.
         11    1    5    5    0    0 -0.21625647714E+01 -0.43548397885E+01  0.24254686606E+01  0.54336188860E+01  0.00000000000E+00 0. -1.
        -12    1    5    5    0    0 -0.20566741870E+03 -0.82272594868E+02  0.13003812364E+04  0.13191130456E+04  0.00000000000E+00 0.  1.
          5    1    4    4  501    0  0.26027265849E+02  0.58735889691E+02  0.23850063990E+02  0.68655817363E+02  0.41800000000E+01 0. -1.
         -5    1    4    4    0  501  0.15361744329E+03  0.24417863935E+00 -0.39090917673E+02  0.15856844185E+03  0.41800000000E+01 0. -1.
</event>
<event>
11    1  0.8039394E-009  0.2240480E+03  0.7561462E-02  0.1038711E+00
         22   -1    0    0    0    0  0.00000000000E+00  0.00000000000E+00  0.14859335202E+03  0.14859335202E+03  0.00000000000E+00 0. -1.
         22   -1    0    0    0    0 -0.00000000000E+00 -0.00000000000E+00 -0.29561418818E+04  0.29561418818E+04  0.00000000000E+00 0.  1.
        -24    2    1    2    0    0  0.10330360075E+02 -0.18958933149E+03 -0.27048508721E+04  0.27131952480E+04  0.95704663058E+02 0.  0.
         25    2    1    2    0    0  0.72663308421E+02  0.14129771358E+03 -0.15688524831E+03  0.25593930594E+03  0.12508775693E+03 0.  0.
         24    2    1    2    0    0 -0.82993668496E+02  0.48291617909E+02  0.54187590558E+02  0.13560067996E+03  0.78938077404E+02 0.  0.
        -11    1    5    5    0    0 -0.62852910459E+02 -0.66147376088E+01  0.14265145534E+02  0.64789948942E+02  0.00000000000E+00 0.  1.
         12    1    5    5    0    0 -0.20140758037E+02  0.54906355518E+02  0.39922445024E+02  0.70810731018E+02  0.00000000000E+00 0. -1.
         13    1    3    3    0    0  0.30228226563E+02 -0.37312357789E+02 -0.10903579095E+04  0.10914148288E+04  0.00000000000E+00 0. -1.
        -14    1    3    3    0    0 -0.19897866488E+02 -0.15227697370E+03 -0.16144929625E+04  0.16217804191E+04  0.00000000000E+00 0.  1.
          5    1    4    4  501    0  0.92812675036E+02  0.12932835458E+03 -0.16638534007E+03  0.23030755466E+03  0.41800000000E+01 0.  1.
         -5    1    4    4    0  501 -0.20149366615E+02  0.11969359000E+02  0.95000917609E+01  0.25631751274E+02  0.41800000000E+01 0.  1.
</event>
<event>
11    1  0.8039394E-009  0.1681500E+03  0.7561462E-02  0.1079653E+00
         22   -1    0    0    0    0  0.00000000000E+00  0.00000000000E+00  0.59100666256E+03  0.59100666256E+03  0.00000000000E+00 0.  1.
         22   -1    0    0    0    0 -0.00000000000E+00 -0.00000000000E+00 -0.80363334737E+03  0.80363334737E+03  0.00000000000E+00 0. -1.
        -24    2    1    2    0    0  0.33888381305E+02 -0.10711420230E+01 -0.62672791699E+03  0.63143731059E+03  0.69105900890E+02 0.  0.
         25    2    1    2    0    0 -0.10725331895E+02 -0.10923905415E+03 -0.12409546037E+03  0.20761635268E+03  0.12512658758E+03 0.  0.
         24    2    1    2    0    0 -0.23163049410E+02  0.11031019617E+03  0.53819669254E+03  0.55558634666E+03  0.79471016682E+02 0.  0.
        -11    1    5    5    0    0 -0.44006304994E+02  0.28419272223E+02  0.23982003922E+03  0.24547476678E+03  0.00000000000E+00 0.  1.
         12    1    5    5    0    0  0.20843255584E+02  0.81890923950E+02  0.29837665332E+03  0.31011157988E+03  0.00000000000E+00 0. -1.
         13    1    3    3    0    0  0.54025590741E+02  0.58183006021E+01 -0.39231487513E+03  0.39606006908E+03  0.00000000000E+00 0. -1.
        -14    1    3    3    0    0 -0.20137209436E+02 -0.68894426250E+01 -0.23441304186E+03  0.23537724151E+03  0.00000000000E+00 0.  1.
          5    1    4    4  501    0  0.25256293418E+02 -0.14456583867E+02 -0.98745381421E+02  0.10302910233E+03  0.41800000000E+01 0. -1.
         -5    1    4    4    0  501 -0.35981625314E+02 -0.94782470283E+02 -0.25350078946E+02  0.10458725035E+03  0.41800000000E+01 0. -1.
</event>
<event>
11    1  0.8039394E-009  0.1816743E+03  0.7561462E-02  0.1068297E+00
         22   -1    0    0    0    0  0.00000000000E+00  0.00000000000E+00  0.89837877740E+03  0.89837877740E+03  0.00000000000E+00 0. -1.
         22   -1    0    0    0    0 -0.00000000000E+00 -0.00000000000E+00 -0.56426040565E+03  0.56426040565E+03  0.00000000000E+00 0.  1.
         24    2    1    2    0    0  0.11925863016E+01  0.35037417626E+02 -0.51315989677E+03  0.52069688315E+03  0.81013095107E+02 0.  0.
         25    2    1    2    0    0 -0.82681380413E+02  0.74786585127E+02  0.14330806721E+03  0.22048581101E+03  0.12509015449E+03 0.  0.
        -24    2    1    2    0    0  0.81488794111E+02 -0.10982400275E+03  0.70397020131E+03  0.72145648888E+03  0.78890340798E+02 0.  0.
        -11    1    3    3    0    0 -0.26380479340E+02 -0.14894346493E+02 -0.14356943331E+03  0.14673088778E+03  0.00000000000E+00 0.  1.
         12    1    3    3    0    0  0.27573065641E+02  0.49931764119E+02 -0.36959046346E+03  0.37396599537E+03  0.00000000000E+00 0. -1.
         11    1    5    5    0    0  0.70375418139E+02 -0.11102967556E+03  0.49406577062E+03  0.51125460783E+03  0.00000000000E+00 0. -1.
        -12    1    5    5    0    0  0.11113375972E+02  0.12056728108E+01  0.20990443069E+03  0.21020188105E+03  0.00000000000E+00 0.  1.
          5    1    4    4  501    0 -0.25124342691E+02  0.27997345283E+02 -0.18728540900E+02  0.42229309523E+02  0.41800000000E+01 0. -1.
         -5    1    4    4    0  501 -0.57557037722E+02  0.46789239844E+02  0.16203660811E+03  0.17825650149E+03  0.41800000000E+01 0. -1.
</event>
<event>
11    1  0.8039394E-009  0.1329762E+03  0.7561462E-02  0.1115665E+00
         22   -1    0    0    0    0  0.00000000000E+00  0.00000000000E+00  0.26036576499E+04  0.26036576499E+04  0.00000000000E+00 0.  1.
         22   -1    0    0    0    0 -0.00000000000E+00 -0.00000000000E+00 -0.17814300580E+03  0.17814300580E+03  0.00000000000E+00 0.  1.
         24    2    1    2    0    0  0.12662282214E+01  0.23644319295E+02 -0.14900826405E+03  0.17119790957E+03  0.80898728769E+02 0.  0.
         25    2    1    2    0    0  0.24331353215E+02 -0.59728445780E+02  0.27187636317E+03  0.30613270323E+03  0.12506387628E+03 0.  0.
        -24    2    1    2    0    0 -0.25597581436E+02  0.36084126484E+02  0.23026465450E+04  0.23044700430E+04  0.80273078750E+02 0.  0.
        -13    1    3    3    0    0  0.31138309866E+02  0.16690260793E+02 -0.13089246619E+03  0.13557653504E+03  0.00000000000E+00 0.  1.
         14    1    3    3    0    0 -0.29872081645E+02  0.69540585026E+01 -0.18115797856E+02  0.35621374530E+02  0.00000000000E+00 0. -1.
         11    1    5    5    0    0 -0.21087553814E+02 -0.22116866452E+02  0.10779192107E+04  0.10783522919E+04  0.00000000000E+00 0. -1.
        -12    1    5    5    0    0 -0.45100276223E+01  0.58200992936E+02  0.12247273343E+04  0.12261177510E+04  0.00000000000E+00 0.  1.
          5    1    4    4  501    0 -0.17577499825E+02 -0.18511044319E+02 -0.20416888854E+01  0.25947411342E+02  0.41800000000E+01 0. -1.
         -5    1    4    4    0  501  0.41908853040E+02 -0.41217401461E+02  0.27391805206E+03  0.28018529189E+03  0.41800000000E+01 0. -1.
</event>
<event>
11    1  0.1084983E-008  0.1827521E+03  0.7561462E-02  0.1067438E+00
         22   -1    0    0    0    0  0.00000000000E+00  0.00000000000E+00  0.53706599192E+03  0.53706599192E+03  0.00000000000E+00 0.  1.
         22   -1    0    0    0    0 -0.00000000000E+00 -0.00000000000E+00 -0.73749718875E+03  0.73749718875E+03  0.00000000000E+00 0. -1.
        -24    2    1    2    0    0  0.41894736967E+02 -0.31611144587E+02 -0.50919788640E+03  0.51817871980E+03  0.80450386528E+02 0.  0.
         25    2    1    2    0    0  0.32265675316E+02 -0.82334411909E+02 -0.18369947582E+03  0.23919294444E+03  0.12509091920E+03 0.  0.
         24    2    1    2    0    0 -0.74160412284E+02  0.11394555650E+03  0.49246616539E+03  0.51719151643E+03  0.80503316812E+02 0.  0.
        -11    1    5    5    0    0 -0.76712795764E+02  0.74913897672E+02  0.43252149763E+03  0.44561394840E+03  0.00000000000E+00 0.  1.
         12    1    5    5    0    0  0.25523834810E+01  0.39031658823E+02  0.59944667762E+02  0.71577568029E+02  0.00000000000E+00 0. -1.
         11    1    3    3    0    0  0.49746725101E+02  0.10247563962E+02 -0.33623834558E+03  0.34005289922E+03  0.00000000000E+00 0. -1.
        -12    1    3    3    0    0 -0.78519881336E+01 -0.41858708549E+02 -0.17295954081E+03  0.17812582058E+03  0.00000000000E+00 0.  1.
          5    1    4    4  501    0  0.23913132327E+02 -0.91625589547E+02 -0.54529279386E+02  0.10935264637E+03  0.41800000000E+01 0.  1.
         -5    1    4    4    0  501  0.83525429891E+01  0.92911776387E+01 -0.12917019644E+03  0.12984029808E+03  0.41800000000E+01 0.  1.
</event>
<event>
11    1  0.8039394E-009  0.1542808E+03  0.7561462E-02  0.1092583E+00
         22   -1    0    0    0    0  0.00000000000E+00  0.00000000000E+00  0.96491736438E+03  0.96491736438E+03  0.00000000000E+00 0. -1.
         22   -1    0    0    0    0 -0.00000000000E+00 -0.00000000000E+00 -0.71390179533E+03  0.71390179533E+03  0.00000000000E+00 0.  1.
         24    2    1    2    0    0  0.85877520362E+02 -0.19476868212E+02 -0.55433984323E+03  0.56694281798E+03  0.79857373878E+02 0.  0.
         25    2    1    2    0    0 -0.94455759111E+02  0.61312459843E+02 -0.10400856992E+03  0.19787444106E+03  0.12512155548E+03 0.  0.
        -24    2    1    2    0    0  0.85782387488E+01 -0.41835591631E+02  0.90936398221E+03  0.91400190068E+03  0.81442123074E+02 0.  0.
        -13    1    3    3    0    0  0.74928871968E+02  0.27596150906E+01 -0.51511388366E+03  0.52054227924E+03  0.00000000000E+00 0.  1.
         14    1    3    3    0    0  0.10948648394E+02 -0.22236483303E+02 -0.39225959567E+02  0.46400538739E+02  0.00000000000E+00 0. -1.
         13    1    5    5    0    0 -0.21445620050E+02 -0.55063495626E+02  0.60022426013E+03  0.60312607771E+03  0.00000000000E+00 0. -1.
        -14    1    5    5    0    0  0.30023858799E+02  0.13227903996E+02  0.30913972208E+03  0.31087582297E+03  0.00000000000E+00 0.  1.
          5    1    4    4  501    0 -0.68746379917E+02 -0.98021345697E+01 -0.43917971368E+00  0.69568756440E+02  0.41800000000E+01 0.  1.
         -5    1    4    4    0  501 -0.25709379194E+02  0.71114594413E+02 -0.10356939021E+03  0.12830568462E+03  0.41800000000E+01 0.  1.
</event>
<event>
11    1  0.8039394E-009  0.1297204E+03  0.7561462E-02  0.1119613E+00
         22   -1    0    0    0    0  0.00000000000E+00  0.00000000000E+00  0.38574084368E+04  0.38574084368E+04  0.00000000000E+00 0. -1.
         22   -1    0    0    0    0 -0.00000000000E+00 -0.00000000000E+00 -0.47927093629E+03  0.47927093629E+03  0.00000000000E+00 0.  1.
        -24    2    1    2    0    0 -0.15982104713E+02 -0.82142502276E+00 -0.44874513773E+03  0.45656204488E+03  0.82586922604E+02 0.  0.
         25    2    1    2    0    0  0.50023153894E+02 -0.27963825421E+00  0.14778684716E+03  0.19997309703E+03  0.12508354495E+03 0.  0.
         24    2    1    2    0    0 -0.34041049182E+02  0.11010632770E+01  0.36790957911E+04  0.36801442312E+04  0.80967382056E+02 0.  0.
        -13    1    5    5    0    0 -0.29600347927E+02  0.51864804233E+01  0.43247239229E+03  0.43351522496E+03  0.00000000000E+00 0.  1.
         14    1    5    5    0    0 -0.44407012543E+01 -0.40854171463E+01  0.32466233988E+04  0.32466290062E+04  0.00000000000E+00 0. -1.
         13    1    3    3    0    0  0.19843655919E+02 -0.30512902032E+02 -0.15967074125E+03  0.16376676549E+03  0.00000000000E+00 0. -1.
        -14    1    3    3    0    0 -0.35825760632E+02  0.29691477009E+02 -0.28907439648E+03  0.29279527939E+03  0.00000000000E+00 0.  1.
          5    1    4    4  501    0 -0.22418237872E+02 -0.96340886126E+01 -0.94894399932E+01  0.26512542769E+02  0.41800000000E+01 0. -1.
         -5    1    4    4    0  501  0.72441391766E+02  0.93544503584E+01  0.15727628716E+03  0.17346055426E+03  0.41800000000E+01 0. -1.
</event>
<event>
11    1  0.8039394E-009  0.1602291E+03  0.7561462E-02  0.1086862E+00
         22   -1    0    0    0    0  0.00000000000E+00  0.00000000000E+00  0.11702187766E+03  0.11702187766E+03  0.00000000000E+00 0.  1.
         22   -1    0    0    0    0 -0.00000000000E+00 -0.00000000000E+00 -0.21651583545E+04  0.21651583545E+04  0.00000000000E+00 0.  1.
         24    2    1    2    0    0 -0.76080288767E+01 -0.32256763341E+02 -0.19512831691E+04  0.19532197976E+04  0.80393973793E+02 0.  0.
         25    2    1    2    0    0 -0.74899425119E+02 -0.35739879986E+02 -0.12114004463E+03  0.19289863175E+03  0.12509080227E+03 0.  0.
        -24    2    1    2    0    0  0.82507453995E+02  0.67996643327E+02  0.24286736875E+02  0.13606180278E+03  0.80572607740E+02 0.  0.
        -11    1    3    3    0    0  0.16441295109E+02 -0.50855121571E+02 -0.97541563914E+03  0.97687881984E+03  0.00000000000E+00 0.  1.
         12    1    3    3    0    0 -0.24049323986E+02  0.18598358230E+02 -0.97586752995E+03  0.97634097780E+03  0.00000000000E+00 0. -1.
         13    1    5    5    0    0  0.10490753942E+02  0.32409243930E+02 -0.24606327072E+02  0.42022450457E+02  0.00000000000E+00 0. -1.
        -14    1    5    5    0    0  0.72016700054E+02  0.35587399396E+02  0.48893063947E+02  0.94039352319E+02  0.00000000000E+00 0.  1.
          5    1    4    4  501    0 -0.43116198666E+02 -0.78965169232E+02 -0.47895768145E+02  0.10200971300E+03  0.41800000000E+01 0.  1.
         -5    1    4    4    0  501 -0.31783226452E+02  0.43225289246E+02 -0.73244276485E+02  0.90888918753E+02  0.41800000000E+01 0.  1.
</event>
<event>
11    1  0.8039394E-009  0.1359158E+03  0.7561462E-02  0.1112207E+00
         22   -1    0    0    0    0  0.00000000000E+00  0.00000000000E+00  0.24225967203E+04  0.24225967203E+04  0.00000000000E+00 0. -1.
         22   -1    0    0    0    0 -0.00000000000E+00 -0.00000000000E+00 -0.10094167457E+04  0.10094167457E+04  0.00000000000E+00 0. -1.
         24    2    1    2    0    0 -0.47407287476E+02 -0.20843503867E+02 -0.82660261878E+03  0.83195253985E+03  0.78684411655E+02 0.  0.
         25    2    1    2    0    0  0.45853152903E+02  0.65493675392E+02 -0.14852755486E+03  0.20998452910E+03  0.12506452238E+03 0.  0.
        -24    2    1    2    0    0  0.15541345735E+01 -0.44650171525E+02  0.23883101482E+04  0.23900763971E+04  0.80273076020E+02 0.  0.
        -13    1    3    3    0    0  0.14892072731E+02  0.33035311120E+01 -0.45324060354E+02  0.47822145446E+02  0.00000000000E+00 0.  1.
         14    1    3    3    0    0 -0.62299360207E+02 -0.24147034979E+02 -0.78127855842E+03  0.78413039441E+03  0.00000000000E+00 0. -1.
         11    1    5    5    0    0 -0.30346079075E+02 -0.19007330534E+02  0.17945800818E+04  0.17949372783E+04  0.00000000000E+00 0. -1.
        -12    1    5    5    0    0  0.31900213648E+02 -0.25642840991E+02  0.59373006642E+03  0.59513911877E+03  0.00000000000E+00 0.  1.
          5    1    4    4  501    0  0.20549079300E+02  0.97456452720E+02 -0.13288505839E+03  0.16612024555E+03  0.41800000000E+01 0.  1.
         -5    1    4    4    0  501  0.25304073602E+02 -0.31962777328E+02 -0.15642496472E+02  0.43864283549E+02  0.41800000000E+01 0.  1.
</event>
<event>
11    1  0.8039394E-009  0.1682827E+03  0.7561462E-02  0.1079536E+00
         22   -1    0    0    0    0  0.00000000000E+00  0.00000000000E+00  0.74262889311E+02  0.74262889311E+02  0.00000000000E+00 0. -1.
         22   -1    0    0    0    0 -0.00000000000E+00 -0.00000000000E+00 -0.22087058778E+04  0.22087058778E+04  0.00000000000E+00 0. -1.
        -24    2    1    2    0    0 -0.49508909380E+02  0.94692953315E+02 -0.16540359180E+04  0.16595536395E+04  0.82858776063E+02 0.  0.
         25    2    1    2    0    0  0.12768291587E+03 -0.11166468144E+03 -0.46266488193E+03  0.50840788721E+03  0.12509140147E+03 0.  0.
         24    2    1    2    0    0 -0.78174006488E+02  0.16971728125E+02 -0.17742188590E+02  0.11500724045E+03  0.80701085825E+02 0.  0.
        -11    1    5    5    0    0  0.10976576064E+02 -0.16446708494E+01 -0.21133223522E+02  0.23870553004E+02  0.00000000000E+00 0.  1.
         12    1    5    5    0    0 -0.89150582552E+02  0.18616398975E+02  0.33910349321E+01  0.91136687442E+02  0.00000000000E+00 0. -1.
         11    1    3    3    0    0 -0.63715467620E+02  0.57837358985E+02 -0.13806512960E+04  0.13833303373E+04  0.00000000000E+00 0. -1.
        -12    1    3    3    0    0  0.14206558240E+02  0.36855594329E+02 -0.27338462197E+03  0.27622330217E+03  0.00000000000E+00 0.  1.
          5    1    4    4  501    0  0.15256956632E+03 -0.98412556885E+02 -0.38511676060E+03  0.42578738311E+03  0.41800000000E+01 0. -1.
         -5    1    4    4    0  501 -0.24886650456E+02 -0.13252124555E+02 -0.77548121325E+02  0.82620504097E+02  0.41800000000E+01 0. -1.
</event>
<event>
11    1  0.1045792E-008  0.1758424E+03  0.7561462E-02  0.1073056E+00
         22   -1    0    0    0    0  0.00000000000E+00  0.00000000000E+00  0.23687476277E+03  0.23687476277E+03  0.00000000000E+00 0. -1.
         22   -1    0    0    0    0 -0.00000000000E+00 -0.00000000000E+00 -0.13871789596E+04  0.13871789596E+04  0.00000000000E+00 0.  1.
        -24    2    1    2    0    0 -0.77231479591E+02  0.72611217075E+01 -0.10597286255E+04  0.10654906655E+04  0.78918775968E+02 0.  0.
         25    2    1    2    0    0  0.18720532073E+03 -0.44724190774E+02 -0.24776865173E+03  0.33776113298E+03  0.12508873979E+03 0.  0.
         24    2    1    2    0    0 -0.10997384114E+03  0.37463069066E+02  0.15719308043E+03  0.22080192389E+03  0.10269419545E+03 0.  0.
        -11    1    5    5    0    0 -0.48765590109E+02  0.23666645169E+02  0.29497863924E+01  0.54285302910E+02  0.00000000000E+00 0.  1.
         12    1    5    5    0    0 -0.61208251031E+02  0.13796423897E+02  0.15424329403E+03  0.16651662098E+03  0.00000000000E+00 0. -1.
         11    1    3    3    0    0 -0.43611416967E+02  0.35974455768E+02 -0.36455899681E+03  0.36891649368E+03  0.00000000000E+00 0. -1.
        -12    1    3    3    0    0 -0.33620062624E+02 -0.28713334061E+02 -0.69516962873E+03  0.69657417184E+03  0.00000000000E+00 0.  1.
          5    1    4    4  501    0  0.10351092645E+03 -0.16072223704E+02 -0.40537212344E+02  0.11239913814E+03  0.41800000000E+01 0.  1.
         -5    1    4    4    0  501  0.83694394282E+02 -0.28651967070E+02 -0.20723143938E+03  0.22536199484E+03  0.41800000000E+01 0.  1.
</event>
<event>
11    1  0.8039394E-009  0.1587313E+03  0.7561462E-02  0.1088277E+00
         22   -1    0    0    0    0  0.00000000000E+00  0.00000000000E+00  0.93395322851E+03  0.93395322851E+03  0.00000000000E+00 0. -1.
         22   -1    0    0    0    0 -0.00000000000E+00 -0.00000000000E+00 -0.18346179882E+04  0.18346179882E+04  0.00000000000E+00 0. -1.
        -24    2    1    2    0    0 -0.58602883104E+02 -0.83711648927E+02 -0.16288366147E+04  0.16340215039E+04  0.80471237310E+02 0.  0.
         25    2    1    2    0    0 -0.79401597773E+01  0.69677499825E+02 -0.17528142403E+03  0.22647193729E+03  0.12509180889E+03 0.  0.
         24    2    1    2    0    0  0.66543042882E+02  0.14034149102E+02  0.90345327902E+03  0.90807777545E+03  0.61257530082E+02 0.  0.
        -13    1    5    5    0    0 -0.57500504681E+01 -0.10801487494E+02  0.64586636181E+02  0.65735597553E+02  0.00000000000E+00 0.  1.
         14    1    5    5    0    0  0.72293093350E+02  0.24835636596E+02  0.83886664284E+03  0.84234217789E+03  0.00000000000E+00 0. -1.
         13    1    3    3    0    0 -0.27091292930E+02 -0.24724057216E+02 -0.11447244885E+04  0.11453119102E+04  0.00000000000E+00 0. -1.
        -14    1    3    3    0    0 -0.31511590175E+02 -0.58987591710E+02 -0.48411212619E+03  0.48870959375E+03  0.00000000000E+00 0.  1.
          5    1    4    4  501    0  0.33538523499E+02  0.51381351412E+02 -0.16982638206E+03  0.18061934635E+03  0.41800000000E+01 0.  1.
         -5    1    4    4    0  501 -0.41478683276E+02  0.18296148413E+02 -0.54550419668E+01  0.45852590940E+02  0.41800000000E+01 0.  1.
</event>
<event>
11    1  0.8039394E-009  0.1572423E+03  0.7561462E-02  0.1089700E+00
         22   -1    0    0    0    0  0.00000000000E+00  0.00000000000E+00  0.76418818846E+03  0.76418818846E+03  0.00000000000E+00 0.  1.
         22   -1    0    0    0    0 -0.00000000000E+00 -0.00000000000E+00 -0.29031299415E+03  0.29031299415E+03  0.00000000000E+00 0.  1.
        -24    2    1    2    0    0 -0.96504947178E+02 -0.19094196286E+02 -0.22228681057E+03  0.25604242345E+03  0.80427005985E+02 0.  0.
         25    2    1    2    0    0  0.47316734909E+02  0.93379073351E+02  0.10226514579E+03  0.19252065035E+03  0.12509003167E+03 0.  0.
         24    2    1    2    0    0  0.49188212269E+02 -0.74284877065E+02  0.59389685910E+03  0.60593810882E+03  0.80683265216E+02 0.  0.
        -11    1    5    5    0    0  0.45243154823E+02 -0.91008087934E+02  0.53578322992E+03  0.54533758773E+03  0.00000000000E+00 0.  1.
         12    1    5    5    0    0  0.39450574457E+01  0.16723210869E+02  0.58113629172E+02  0.60600521083E+02  0.00000000000E+00 0. -1.
         11    1    3    3    0    0  0.14887678046E+01  0.21091328796E+02 -0.38252310811E+02  0.43706977273E+02  0.00000000000E+00 0. -1.
        -12    1    3    3    0    0 -0.97993714983E+02 -0.40185525081E+02 -0.18403449976E+03  0.21233544618E+03  0.00000000000E+00 0.  1.
          5    1    4    4  501    0  0.51628931733E+02 -0.10529340104E+02  0.60589740057E+02  0.80405239849E+02  0.41800000000E+01 0.  1.
         -5    1    4    4    0  501 -0.43121968243E+01  0.10390841345E+03  0.41675405729E+02  0.11211541050E+03  0.41800000000E+01 0.  1.
</event>
<event>
11    1  0.8039394E-009  0.1412420E+03  0.7561462E-02  0.1106179E+00
         22   -1    0    0    0    0  0.00000000000E+00  0.00000000000E+00  0.18477554426E+03  0.18477554426E+03  0.00000000000E+00 0. -1.
         22   -1    0    0    0    0 -0.00000000000E+00 -0.00000000000E+00 -0.31848189234E+03  0.31848189234E+03  0.00000000000E+00 0. -1.
         24    2    1    2    0    0  0.29082388019E+02  0.45075973270E+02 -0.17160436873E+03  0.19688190193E+03  0.80229640909E+02 0.  0.
         25    2    1    2    0    0 -0.89690827650E+02 -0.30517084202E+02 -0.58893931951E+02  0.16760625830E+03  0.12509046969E+03 0.  0.
        -24    2    1    2    0    0  0.60608439631E+02 -0.14558889068E+02  0.96791952611E+02  0.13876927637E+03  0.77478292234E+02 0.  0.
        -11    1    3    3    0    0  0.11687734497E+02 -0.40552677203E+01  0.45479934953E+01  0.13180765486E+02  0.00000000000E+00 0.  1.
         12    1    3    3    0    0  0.17394653522E+02  0.49131240990E+02 -0.17615236223E+03  0.18370113645E+03  0.00000000000E+00 0. -1.
         11    1    5    5    0    0  0.61864752452E+02  0.18182551177E+02  0.49757924852E+02  0.81447552749E+02  0.00000000000E+00 0. -1.
        -12    1    5    5    0    0 -0.12563128207E+01 -0.32741440245E+02  0.47034027759E+02  0.57321723617E+02  0.00000000000E+00 0.  1.
          5    1    4    4  501    0 -0.33682535955E+02 -0.46020853203E+02  0.27459818271E+02  0.63434581873E+02  0.41800000000E+01 0. -1.
         -5    1    4    4    0  501 -0.56008291695E+02  0.15503769001E+02 -0.86353750222E+02  0.10417167643E+03  0.41800000000E+01 0. -1.
</event>
<event>
11    1  0.8039394E-009  0.1295095E+03  0.7561462E-02  0.1119873E+00
         22   -1    0    0    0    0  0.00000000000E+00  0.00000000000E+00  0.11367547896E+04  0.11367547896E+04  0.00000000000E+00 0. -1.
         22   -1    0    0    0    0 -0.00000000000E+00 -0.00000000000E+00 -0.73234457506E+03  0.73234457506E+03  0.00000000000E+00 0.  1.
        -24    2    1    2    0    0  0.14667253814E+02 -0.24692222400E+02 -0.71017713827E+03  0.71532326351E+03  0.80690578247E+02 0.  0.
         25    2    1    2    0    0  0.16276852028E+02  0.38234866451E+02  0.23172184904E+03  0.26658946131E+03  0.12509230447E+03 0.  0.
         24    2    1    2    0    0 -0.30944105842E+02 -0.13542644050E+02  0.88286550382E+03  0.88718663988E+03  0.80670287205E+02 0.  0.
        -13    1    5    5    0    0  0.15713998796E+02 -0.32167519637E+02  0.29128056256E+03  0.29347239258E+03  0.00000000000E+00 0.  1.
         14    1    5    5    0    0 -0.46658104638E+02  0.18624875587E+02  0.59158494126E+03  0.59371424730E+03  0.00000000000E+00 0. -1.
         13    1    3    3    0    0 -0.16670314862E+01  0.25640939816E+02 -0.38611461460E+03  0.38696864524E+03  0.00000000000E+00 0. -1.
        -14    1    3    3    0    0  0.16334285300E+02 -0.50333162217E+02 -0.32406252367E+03  0.32835461827E+03  0.00000000000E+00 0.  1.
          5    1    4    4  501    0  0.70399762428E+02  0.31034244084E+02  0.13651098087E+03  0.15675449325E+03  0.41800000000E+01 0. -1.
         -5    1    4    4    0  501 -0.54122910400E+02  0.72006223663E+01  0.95210868167E+02  0.10983496806E+03  0.41800000000E+01 0. -1.
</event>
<event>
11    1  0.8039394E-009  0.1370824E+03  0.7561462E-02  0.1110861E+00
         22   -1    0    0    0    0  0.00000000000E+00  0.00000000000E+00  0.16209763580E+04  0.16209763580E+04  0.00000000000E+00 0. -1.
         22   -1    0    0    0    0 -0.00000000000E+00 -0.00000000000E+00 -0.87608823508E+02  0.87608823508E+02  0.00000000000E+00 0. -1.
         24    2    1    2    0    0 -0.21176892222E+02  0.54206957484E+02 -0.45861631960E+02  0.10890324911E+03  0.79810860021E+02 0.  0.
         25    2    1    2    0    0  0.17048011078E+02 -0.18545078947E+02  0.47352190568E+03  0.49041359713E+03  0.12509175212E+03 0.  0.
        -24    2    1    2    0    0  0.41288811441E+01 -0.35661878538E+02  0.11057072608E+04  0.11092683353E+04  0.81233465253E+02 0.  0.
        -11    1    3    3    0    0 -0.28048536717E+02  0.37963056377E+02  0.11759129730E+02  0.48643511319E+02  0.00000000000E+00 0.  1.
         12    1    3    3    0    0  0.68716444946E+01  0.16243901108E+02 -0.57620761690E+02  0.60259737794E+02  0.00000000000E+00 0. -1.
         13    1    5    5    0    0  0.29723745023E+02 -0.11765317708E+02  0.90251319804E+03  0.90307917502E+03  0.00000000000E+00 0. -1.
        -14    1    5    5    0    0 -0.25594863879E+02 -0.23896560830E+02  0.20319406271E+03  0.20618916024E+03  0.00000000000E+00 0.  1.
          5    1    4    4  501    0  0.61502342235E+02  0.14904006396E+02  0.16268454869E+03  0.17460928466E+03  0.41800000000E+01 0. -1.
         -5    1    4    4    0  501 -0.44454331157E+02 -0.33449085343E+02  0.31083735699E+03  0.31580431246E+03  0.41800000000E+01 0. -1.
</event>
<event>
11    1  0.8039394E-009  0.1755845E+03  0.7561462E-02  0.1073271E+00
         22   -1    0    0    0    0  0.00000000000E+00  0.00000000000E+00  0.26350087042E+03  0.26350087042E+03  0.00000000000E+00 0. -1.
         22   -1    0    0    0    0 -0.00000000000E+00 -0.00000000000E+00 -0.13891901298E+04  0.13891901298E+04  0.00000000000E+00 0. -1.
         24    2    1    2    0    0  0.68528024520E+02 -0.21732613368E+01 -0.12326510469E+04  0.12373634085E+04  0.83299388529E+02 0.  0.
         25    2    1    2    0    0  0.24964718647E+02 -0.90977401596E+02 -0.77737218339E+02  0.17490142891E+03  0.12508920793E+03 0.  0.
        -24    2    1    2    0    0 -0.93492743167E+02  0.93150662933E+02  0.18469900578E+03  0.24042616287E+03  0.79202765264E+02 0.  0.
        -13    1    3    3    0    0 -0.15249142969E+01 -0.31489604321E+02 -0.41333369641E+03  0.41453427498E+03  0.00000000000E+00 0.  1.
         14    1    3    3    0    0  0.70052938817E+02  0.29316342985E+02 -0.81931735044E+03  0.82282913350E+03  0.00000000000E+00 0. -1.
         11    1    5    5    0    0 -0.42073269185E+02  0.86642868048E+02  0.14925892507E+03  0.17763832154E+03  0.00000000000E+00 0. -1.
        -12    1    5    5    0    0 -0.51419473982E+02  0.65077948851E+01  0.35440080708E+02  0.62787841334E+02  0.00000000000E+00 0.  1.
          5    1    4    4  501    0 -0.30596023753E+02  0.14299063441E+02 -0.27281462419E+01  0.34139347778E+02  0.41800000000E+01 0. -1.
         -5    1    4    4    0  501  0.55560742400E+02 -0.10527646504E+03 -0.75009072097E+02  0.14076208113E+03  0.41800000000E+01 0. -1.
</event>
<event>
11    1  0.8039394E-009  0.2130583E+03  0.7561462E-02  0.1045655E+00
         22   -1    0    0    0    0  0.00000000000E+00  0.00000000000E+00  0.43613751089E+03  0.43613751089E+03  0.00000000000E+00 0. -1.
         22   -1    0    0    0    0 -0.00000000000E+00 -0.00000000000E+00 -0.20592639424E+04  0.20592639424E+04  0.00000000000E+00 0.  1.
        -24    2    1    2    0    0  0.11637697791E+03 -0.12810387233E+03 -0.15985883171E+04  0.16099969511E+04  0.81555943163E+02 0.  0.
         25    2    1    2    0    0 -0.16523915812E+03  0.75503275162E+02 -0.42053970359E+03  0.47487670204E+03  0.12509802517E+03 0.  0.
         24    2    1    2    0    0  0.48862180211E+02  0.52600597168E+02  0.39600158915E+03  0.41052780019E+03  0.81002966877E+02 0.  0.
        -13    1    5    5    0    0 -0.21979709747E+02  0.21487344690E+02  0.12182086250E+03  0.12563891182E+03  0.00000000000E+00 0.  1.
         14    1    5    5    0    0  0.70841889958E+02  0.31113252479E+02  0.27418072665E+03  0.28488888837E+03  0.00000000000E+00 0. -1.
         13    1    3    3    0    0  0.22058443571E+02 -0.71807511850E+02 -0.45657358032E+03  0.46271192760E+03  0.00000000000E+00 0. -1.
        -14    1    3    3    0    0  0.94318534341E+02 -0.56296360481E+02 -0.11420147368E+04  0.11472850235E+04  0.00000000000E+00 0.  1.
          5    1    4    4  501    0 -0.50787989344E+02  0.69298766059E+02 -0.28302906072E+03  0.29581186665E+03  0.41800000000E+01 0. -1.
         -5    1    4    4    0  501 -0.11445116878E+03  0.62045091029E+01 -0.13751064287E+03  0.17906483539E+03  0.41800000000E+01 0. -1.
</event>
<event>
11    1  0.1313566E-008  0.1579465E+03  0.7561462E-02  0.1089025E+00
         22   -1    0    0    0    0  0.00000000000E+00  0.00000000000E+00  0.16988186345E+04  0.16988186345E+04  0.00000000000E+00 0.  1.
         22   -1    0    0    0    0 -0.00000000000E+00 -0.00000000000E+00 -0.13695348744E+04  0.13695348744E+04  0.00000000000E+00 0. -1.
        -24    2    1    2    0    0 -0.96478198150E+02  0.21463145146E+02 -0.88631016963E+03  0.89539631108E+03  0.80125699957E+02 0.  0.
         25    2    1    2    0    0  0.72042133657E+02 -0.70412336399E+02 -0.46376331373E+03  0.49078608097E+03  0.12508637006E+03 0.  0.
         24    2    1    2    0    0  0.24436064493E+02  0.48949191253E+02  0.16793572435E+04  0.16821711169E+04  0.80410016919E+02 0.  0.
        -13    1    5    5    0    0  0.27557355306E+02  0.55919380659E+02  0.16624561634E+04  0.16636246211E+04  0.00000000000E+00 0.  1.
         14    1    5    5    0    0 -0.31212908125E+01 -0.69701894061E+01  0.16901080090E+02  0.18546495758E+02  0.00000000000E+00 0. -1.
         13    1    3    3    0    0 -0.11033923742E+03  0.15345566358E+02 -0.80689128670E+03  0.81454513827E+03  0.00000000000E+00 0. -1.
        -14    1    3    3    0    0  0.13861039271E+02  0.61175787880E+01 -0.79418882923E+02  0.80851172809E+02  0.00000000000E+00 0.  1.
          5    1    4    4  501    0  0.55932611264E+02 -0.44884138975E+02 -0.87145620306E+02  0.11293748037E+03  0.41800000000E+01 0. -1.
         -5    1    4    4    0  501  0.16109522393E+02 -0.25528197424E+02 -0.37661769343E+03  0.37784860060E+03  0.41800000000E+01 0. -1.
</event>
<event>
11    1  0.8039394E-009  0.3955009E+04  0.7561462E-02  0.7544764E-01
         22   -1    0    0    0    0  0.00000000000E+00  0.00000000000E+00  0.11170008213E+04  0.11170008213E+04  0.00000000000E+00 0.  1.
         22   -1    0    0    0    0 -0.00000000000E+00 -0.00000000000E+00 -0.35009150671E+04  0.35009150671E+04  0.00000000000E+00 0.  1.
         24    2    1    2    0    0  0.64147280838E+03  0.16027815310E+04 -0.21181792491E+04  0.27335164629E+04  0.70943087876E+02 0.  0.
         25    2    1    2    0    0 -0.66967534434E+03 -0.16165968297E+04 -0.17876832189E+03  0.17633649165E+04  0.12508932480E+03 0.  0.
        -24    2    1    2    0    0  0.28202535957E+02  0.13815298663E+02 -0.86966674895E+02  0.12103450900E+03  0.78101884204E+02 0.  0.
        -13    1    3    3    0    0  0.60524969417E+03  0.15152471754E+04 -0.20259465192E+04  0.26012997701E+04  0.00000000000E+00 0.  1.
         14    1    3    3    0    0  0.36223114209E+02  0.87534355624E+02 -0.92232729808E+02  0.13221669284E+03  0.00000000000E+00 0. -1.
         11    1    5    5    0    0  0.27698535615E+02  0.41443159050E+02 -0.76865644256E+02  0.91613708440E+02  0.00000000000E+00 0. -1.
        -12    1    5    5    0    0  0.50400034200E+00 -0.27627860387E+02 -0.10101030639E+02  0.29420800565E+02  0.00000000000E+00 0.  1.
          5    1    4    4  501    0 -0.65286527232E+03 -0.15568847331E+04 -0.19401863686E+03  0.16993480631E+04  0.41800000000E+01 0.  1.
         -5    1    4    4    0  501 -0.16810072019E+02 -0.59712096623E+02  0.15250314970E+02  0.64016853336E+02  0.41800000000E+01 0.  1.
</event>
<event>
11    1  0.8039394E-009  0.1977988E+03  0.7561462E-02  0.1056091E+00
         22   -1    0    0    0    0  0.00000000000E+00  0.00000000000E+00  0.93596422237E+03  0.93596422237E+03  0.00000000000E+00 0. -1.
         22   -1    0    0    0    0 -0.00000000000E+00 -0.00000000000E+00 -0.29880982872E+03  0.29880982872E+03  0.00000000000E+00 0.  1.
         24    2    1    2    0    0  0.44032292889E+02  0.14870926869E+03 -0.24754140001E+03  0.30383957593E+03  0.83596972253E+02 0.  0.
         25    2    1    2    0    0  0.12449255290E+02 -0.13012410603E+03  0.45454752613E+03  0.48923589645E+03  0.12510412440E+03 0.  0.
        -24    2    1    2    0    0 -0.56481548179E+02 -0.18585162653E+02  0.43014826753E+03  0.44169857870E+03  0.80836432436E+02 0.  0.
        -13    1    3    3    0    0 -0.17017140454E+02  0.64630745060E+02 -0.13518184856E+03  0.15080069116E+03  0.00000000000E+00 0.  1.
         14    1    3    3    0    0  0.61049433343E+02  0.84078523627E+02 -0.11235955146E+03  0.15303888477E+03  0.00000000000E+00 0. -1.
         13    1    5    5    0    0 -0.22910317065E+01  0.18317004333E+02  0.23717201207E+03  0.23788931204E+03  0.00000000000E+00 0. -1.
        -14    1    5    5    0    0 -0.54190516472E+02 -0.36902166986E+02  0.19297625546E+03  0.20380926666E+03  0.00000000000E+00 0.  1.
          5    1    4    4  501    0 -0.55033406880E+02 -0.39841562044E+02  0.17790936161E+03  0.19048684807E+03  0.41800000000E+01 0.  1.
         -5    1    4    4    0  501  0.67482662170E+02 -0.90282543990E+02  0.27663816452E+03  0.29874904839E+03  0.41800000000E+01 0.  1.
</event>
<event>
11    1  0.9465638E-009  0.1921722E+03  0.7561462E-02  0.1060201E+00
         22   -1    0    0    0    0  0.00000000000E+00  0.00000000000E+00  0.21489209951E+04  0.21489209951E+04  0.00000000000E+00 0.  1.
         22   -1    0    0    0    0 -0.00000000000E+00 -0.00000000000E+00 -0.14680278206E+03  0.14680278206E+03  0.00000000000E+00 0.  1.
         24    2    1    2    0    0  0.88817618130E+02  0.10170018880E+02 -0.58091499973E+02  0.13422679049E+03  0.81548821824E+02 0.  0.
         25    2    1    2    0    0 -0.13209979985E+03 -0.14652307396E+03  0.24395938968E+03  0.33776254291E+03  0.12509189922E+03 0.  0.
        -24    2    1    2    0    0  0.43282181722E+02  0.13635305508E+03  0.18162503233E+04  0.18237344438E+04  0.82319994676E+02 0.  0.
        -11    1    3    3    0    0  0.82164062842E+02  0.83627367260E+01 -0.77729258148E+02  0.11341387111E+03  0.00000000000E+00 0.  1.
         12    1    3    3    0    0  0.66535552885E+01  0.18072821540E+01  0.19637758176E+02  0.20812919375E+02  0.00000000000E+00 0. -1.
         11    1    5    5    0    0  0.42124537857E+02  0.17033179440E+02  0.55047761070E+03  0.55234971329E+03  0.00000000000E+00 0. -1.
        -12    1    5    5    0    0  0.11576438641E+01  0.11931987564E+03  0.12657727126E+04  0.12713847305E+04  0.00000000000E+00 0.  1.
          5    1    4    4  501    0 -0.31721411614E+02 -0.11323069901E+03  0.17693380534E+03  0.21248643021E+03  0.41800000000E+01 0.  1.
         -5    1    4    4    0  501 -0.10037838824E+03 -0.33292374956E+02  0.67025584347E+02  0.12527611270E+03  0.41800000000E+01 0.  1.
</event>
<event>
11    1  0.8039394E-009  0.1766317E+03  0.7561462E-02  0.1072400E+00
         22   -1    0    0    0    0  0.00000000000E+00  0.00000000000E+00  0.48957077177E+03  0.48957077177E+03  0.00000000000E+00 0.  1.
         22   -1    0    0    0    0 -0.00000000000E+00 -0.00000000000E+00 -0.31252046830E+03  0.31252046830E+03  0.00000000000E+00 0. -1.
         24    2    1    2    0    0  0.25158304827E+01 -0.10585807343E+02 -0.14195101454E+03  0.16423852051E+03  0.81889024711E+02 0.  0.
         25    2    1    2    0    0 -0.23957765524E+02  0.13255320698E+03 -0.89029121433E+02  0.20424723227E+03  0.12508565152E+03 0.  0.
        -24    2    1    2    0    0  0.21441935041E+02 -0.12196739963E+03  0.40803043945E+03  0.43360548730E+03  0.78670680337E+02 0.  0.
        -11    1    3    3    0    0  0.23022461126E+02  0.21157717086E+02 -0.21366900121E+02  0.37871191285E+02  0.00000000000E+00 0.  1.
         12    1    3    3    0    0 -0.20506630643E+02 -0.31743524430E+02 -0.12058411442E+03  0.12636732922E+03  0.00000000000E+00 0. -1.
         11    1    5    5    0    0 -0.25654197501E+02 -0.38867165027E+02  0.87181843044E+02  0.98840619804E+02  0.00000000000E+00 0. -1.
        -12    1    5    5    0    0  0.47096132542E+02 -0.83100234607E+02  0.32084859640E+03  0.33476486749E+03  0.00000000000E+00 0.  1.
          5    1    4    4  501    0 -0.66488376198E+02  0.12274696172E+03 -0.72786249158E+02  0.15748914644E+03  0.41800000000E+01 0. -1.
         -5    1    4    4    0  501  0.42530610675E+02  0.98062452615E+01 -0.16242872275E+02  0.46758085827E+02  0.41800000000E+01 0. -1.
</event>
<event>
11    1  0.8039394E-009  0.1257617E+03  0.7561462E-02  0.1124589E+00
         22   -1    0    0    0    0  0.00000000000E+00  0.00000000000E+00  0.67990215530E+03  0.67990215530E+03  0.00000000000E+00 0.  1.
         22   -1    0    0    0    0 -0.00000000000E+00 -0.00000000000E+00 -0.29812396984E+03  0.29812396984E+03  0.00000000000E+00 0. -1.
         24    2    1    2    0    0  0.19662301526E+02  0.29658415420E+02 -0.25145340732E+03  0.26629184942E+03  0.80101843345E+02 0.  0.
         25    2    1    2    0    0 -0.30761414081E+02 -0.27202087922E+02  0.86652150054E+02  0.15761338489E+03  0.12508863179E+03 0.  0.
        -24    2    1    2    0    0  0.11099112556E+02 -0.24563274980E+01  0.54657944273E+03  0.55412089083E+03  0.90397182433E+02 0.  0.
        -13    1    3    3    0    0  0.28419774603E+01  0.24583863111E+02 -0.14489089011E+02  0.28677113901E+02  0.00000000000E+00 0.  1.
         14    1    3    3    0    0  0.16820324065E+02  0.50745523088E+01 -0.23696431831E+03  0.23761473552E+03  0.00000000000E+00 0. -1.
         11    1    5    5    0    0 -0.24938805319E+02  0.30071389334E+02  0.17035154493E+03  0.17477380046E+03  0.00000000000E+00 0. -1.
        -12    1    5    5    0    0  0.36037917875E+02 -0.32527716832E+02  0.37622789780E+03  0.37934709037E+03  0.00000000000E+00 0.  1.
          5    1    4    4  501    0 -0.43388554092E+02  0.69809437282E+01 -0.17274035620E+02  0.47404270990E+02  0.41800000000E+01 0. -1.
         -5    1    4    4    0  501  0.12627140010E+02 -0.34183031650E+02  0.10392618567E+03  0.11020911390E+03  0.41800000000E+01 0. -1.
</event>
<event>
11    1  0.8039394E-009  0.2061657E+03  0.7561462E-02  0.1050247E+00
         22   -1    0    0    0    0  0.00000000000E+00  0.00000000000E+00  0.96114231726E+03  0.96114231726E+03  0.00000000000E+00 0.  1.
         22   -1    0    0    0    0 -0.00000000000E+00 -0.00000000000E+00 -0.81259981624E+03  0.81259981624E+03  0.00000000000E+00 0.  1.
         24    2    1    2    0    0  0.62778560811E+02 -0.14706010174E+03 -0.63279797777E+03  0.65714729682E+03  0.76429495746E+02 0.  0.
         25    2    1    2    0    0 -0.16013207360E+03  0.13970838991E+03 -0.69670796324E+02  0.25624736162E+03  0.12509186731E+03 0.  0.
        -24    2    1    2    0    0  0.97353512792E+02  0.73517118325E+01  0.85101127511E+03  0.86034747506E+03  0.80285947456E+02 0.  0.
        -11    1    3    3    0    0  0.69228436885E+02 -0.14855604062E+03 -0.54525897867E+03  0.56935825936E+03  0.00000000000E+00 0.  1.
         12    1    3    3    0    0 -0.64498760742E+01  0.14959388750E+01 -0.87538999099E+02  0.87789037458E+02  0.00000000000E+00 0. -1.
         13    1    5    5    0    0  0.24207803633E+02  0.37308225167E+02  0.39971444913E+03  0.40218100684E+03  0.00000000000E+00 0. -1.
        -14    1    5    5    0    0  0.73145709159E+02 -0.29956513334E+02  0.45129682599E+03  0.45816646822E+03  0.00000000000E+00 0.  1.
          5    1    4    4  501    0 -0.11238499949E+03  0.62745978859E+02 -0.97364006000E+02  0.16144555751E+03  0.41800000000E+01 0. -1.
         -5    1    4    4    0  501 -0.47747074111E+02  0.76962411050E+02  0.27693209676E+02  0.94801804113E+02  0.41800000000E+01 0. -1.
</event>
<event>
11    1  0.8039394E-009  0.1360188E+03  0.7561462E-02  0.1112087E+00
         22   -1    0    0    0    0  0.00000000000E+00  0.00000000000E+00  0.34569889960E+03  0.34569889960E+03  0.00000000000E+00 0. -1.
         22   -1    0    0    0    0 -0.00000000000E+00 -0.00000000000E+00 -0.59228984747E+03  0.59228984747E+03  0.00000000000E+00 0. -1.
         24    2    1    2    0    0 -0.53217192079E+02  0.22510770159E+01 -0.52673118523E+03  0.53511331571E+03  0.77867722935E+02 0.  0.
         25    2    1    2    0    0  0.55314495097E+02 -0.24882098787E+02  0.33841147611E+02  0.14308122643E+03  0.12509277309E+03 0.  0.
        -24    2    1    2    0    0 -0.20973030184E+01  0.22631021771E+02  0.24629908975E+03  0.25979420494E+03  0.79455808369E+02 0.  0.
        -13    1    3    3    0    0  0.15011936682E+02 -0.25538565739E+01 -0.29485561492E+02  0.33185520380E+02  0.00000000000E+00 0.  1.
         14    1    3    3    0    0 -0.68229128761E+02  0.48049335898E+01 -0.49724562373E+03  0.50192779533E+03  0.00000000000E+00 0. -1.
         13    1    5    5    0    0 -0.40642178049E+02  0.14289242883E+02  0.12145436407E+03  0.12886866046E+03  0.00000000000E+00 0. -1.
        -14    1    5    5    0    0  0.38544875031E+02  0.83417788872E+01  0.12484472568E+03  0.13092554448E+03  0.00000000000E+00 0.  1.
          5    1    4    4  501    0 -0.24266313501E+02 -0.38886707038E+02 -0.15194601393E+02  0.48470385460E+02  0.41800000000E+01 0.  1.
         -5    1    4    4    0  501  0.79580808598E+02  0.14004608252E+02  0.49035749003E+02  0.94610840973E+02  0.41800000000E+01 0.  1.
</event>
<event>
11    1  0.8039394E-009  0.1331699E+03  0.7561462E-02  0.1115434E+00
         22   -1    0    0    0    0  0.00000000000E+00  0.00000000000E+00  0.11121023070E+03  0.11121023070E+03  0.00000000000E+00 0.  1.
         22   -1    0    0    0    0 -0.00000000000E+00 -0.00000000000E+00 -0.59768911343E+03  0.59768911343E+03  0.00000000000E+00 0. -1.
        -24    2    1    2    0    0  0.42554160342E+01 -0.20923615389E+02 -0.35757911389E+03  0.36665546637E+03  0.78214462094E+02 0.  0.
         25    2    1    2    0    0 -0.15627256169E+02  0.62761365681E+02 -0.18664127150E+03  0.23381323195E+03  0.12510181074E+03 0.  0.
         24    2    1    2    0    0  0.11371840135E+02 -0.41837750292E+02  0.57741502663E+02  0.10843064580E+03  0.80891332799E+02 0.  0.
        -13    1    5    5    0    0  0.63288152705E+01  0.14388617381E+02  0.48807137867E+02  0.51275948745E+02  0.00000000000E+00 0.  1.
         14    1    5    5    0    0  0.50430248641E+01 -0.56226367674E+02  0.89343647957E+01  0.57154697059E+02  0.00000000000E+00 0. -1.
         11    1    3    3    0    0 -0.31109744563E+02 -0.91567185613E+01 -0.26308976786E+03  0.26508090776E+03  0.00000000000E+00 0. -1.
        -12    1    3    3    0    0  0.35365160597E+02 -0.11766896828E+02 -0.94489346030E+02  0.10157455862E+03  0.00000000000E+00 0.  1.
          5    1    4    4  501    0  0.37696722792E+02  0.76113261934E+02 -0.12412349802E+03  0.15046058192E+03  0.41800000000E+01 0.  1.
         -5    1    4    4    0  501 -0.53323978961E+02 -0.13351896253E+02 -0.62517773478E+02  0.83352650026E+02  0.41800000000E+01 0.  1.
</event>
<event>
11    1  0.8039394E-009  0.1413727E+03  0.7561462E-02  0.1106035E+00
         22   -1    0    0    0    0  0.00000000000E+00  0.00000000000E+00  0.84138301891E+02  0.84138301891E+02  0.00000000000E+00 0. -1.
         22   -1    0    0    0    0 -0.00000000000E+00 -0.00000000000E+00 -0.13876060969E+04  0.13876060969E+04  0.00000000000E+00 0.  1.
        -24    2    1    2    0    0 -0.13113313911E+02 -0.92562485545E+01 -0.98374490461E+03  0.98718303654E+03  0.80738300391E+02 0.  0.
         25    2    1    2    0    0  0.58697562267E+02 -0.37949653791E+02 -0.34979044241E+03  0.37800254127E+03  0.12508791936E+03 0.  0.
         24    2    1    2    0    0 -0.45584248356E+02  0.47205902345E+02  0.30067552002E+02  0.10655882098E+03  0.78386247082E+02 0.  0.
        -13    1    5    5    0    0  0.12968621510E+01  0.25682977735E+02 -0.21573494706E+02  0.33566543918E+02  0.00000000000E+00 0.  1.
         14    1    5    5    0    0 -0.46881110507E+02  0.21522924611E+02  0.51641046708E+02  0.72992277066E+02  0.00000000000E+00 0. -1.
         13    1    3    3    0    0  0.68963622382E+01 -0.18529685753E+02 -0.59974787818E+02  0.63149697070E+02  0.00000000000E+00 0. -1.
        -14    1    3    3    0    0 -0.20009676149E+02  0.92734371981E+01 -0.92377011679E+03  0.92403333947E+03  0.00000000000E+00 0.  1.
          5    1    4    4  501    0  0.78089001910E+02 -0.65344122417E+02 -0.20030239501E+03  0.22473599712E+03  0.41800000000E+01 0. -1.
         -5    1    4    4    0  501 -0.19391439643E+02  0.27394468626E+02 -0.14948804739E+03  0.15326654415E+03  0.41800000000E+01 0. -1.
</event>
<event>
11    1  0.8039394E-009  0.3402458E+03  0.7561462E-02  0.9844642E-01
         22   -1    0    0    0    0  0.00000000000E+00  0.00000000000E+00  0.10775791740E+04  0.10775791740E+04  0.00000000000E+00 0.  1.
         22   -1    0    0    0    0 -0.00000000000E+00 -0.00000000000E+00 -0.61529280536E+03  0.61529280536E+03  0.00000000000E+00 0. -1.
         24    2    1    2    0    0 -0.32737490662E+02 -0.32687353560E+03 -0.41067556129E+03  0.53189195770E+03  0.79602678703E+02 0.  0.
         25    2    1    2    0    0 -0.13034817162E+03  0.28029274805E+03  0.75547406452E+02  0.34192080308E+03  0.12509098489E+03 0.  0.
        -24    2    1    2    0    0  0.16308566228E+03  0.46580787550E+02  0.79741452351E+03  0.81905921860E+03  0.78875714017E+02 0.  0.
        -13    1    3    3    0    0  0.14595583492E+02 -0.10625014587E+02 -0.18120494110E+02  0.25578786117E+02  0.00000000000E+00 0.  1.
         14    1    3    3    0    0 -0.47333074153E+02 -0.31624852101E+03 -0.39255506718E+03  0.50631317159E+03  0.00000000000E+00 0. -1.
         13    1    5    5    0    0  0.69296151896E+02  0.60462176939E+02  0.41482293959E+03  0.42489493139E+03  0.00000000000E+00 0. -1.
        -14    1    5    5    0    0  0.93789510385E+02 -0.13881389390E+02  0.38259158391E+03  0.39416428721E+03  0.00000000000E+00 0.  1.
          5    1    4    4  501    0 -0.10763573254E+03  0.16152361030E+03  0.10014352508E+03  0.21845257064E+03  0.41800000000E+01 0. -1.
         -5    1    4    4    0  501 -0.22712439083E+02  0.11876913775E+03 -0.24596118623E+02  0.12346823244E+03  0.41800000000E+01 0. -1.
</event>
<event>
11    1  0.8039394E-009  0.1711624E+03  0.7561462E-02  0.1077025E+00
         22   -1    0    0    0    0  0.00000000000E+00  0.00000000000E+00  0.37000586243E+03  0.37000586243E+03  0.00000000000E+00 0. -1.
         22   -1    0    0    0    0 -0.00000000000E+00 -0.00000000000E+00 -0.60083808373E+03  0.60083808373E+03  0.00000000000E+00 0.  1.
        -24    2    1    2    0    0  0.72290622887E+02 -0.79501896533E+02 -0.40036246814E+03  0.42258056814E+03  0.82083768009E+02 0.  0.
         25    2    1    2    0    0 -0.13493410217E+03  0.10638972176E+03 -0.11640415101E+03  0.24232595671E+03  0.12508380430E+03 0.  0.
         24    2    1    2    0    0  0.62643479285E+02 -0.26887825231E+02  0.28593439785E+03  0.30593742131E+03  0.84806044814E+02 0.  0.
        -11    1    5    5    0    0  0.65634364941E+02 -0.42375715507E+02  0.15032995829E+03  0.16941861611E+03  0.00000000000E+00 0.  1.
         12    1    5    5    0    0 -0.29908856559E+01  0.15487890275E+02  0.13560443956E+03  0.13651880519E+03  0.00000000000E+00 0. -1.
         11    1    3    3    0    0  0.37355065489E+02  0.82492334902E+01 -0.81647904690E+02  0.90165576087E+02  0.00000000000E+00 0. -1.
        -12    1    3    3    0    0  0.34935557398E+02 -0.87751130023E+02 -0.31871456345E+03  0.33241499206E+03  0.00000000000E+00 0.  1.
          5    1    4    4  501    0 -0.99731523097E+02  0.13291590042E+03 -0.10498321187E+03  0.19660101846E+03  0.41800000000E+01 0. -1.
         -5    1    4    4    0  501 -0.35202579074E+02 -0.26526178656E+02 -0.11420939140E+02  0.45724938255E+02  0.41800000000E+01 0. -1.
</event>
<event>
11    1  0.8039394E-009  0.1359293E+03  0.7561462E-02  0.1112191E+00
         22   -1    0    0    0    0  0.00000000000E+00  0.00000000000E+00  0.97488934366E+03  0.97488934366E+03  0.00000000000E+00 0. -1.
         22   -1    0    0    0    0 -0.00000000000E+00 -0.00000000000E+00 -0.24486564355E+03  0.24486564355E+03  0.00000000000E+00 0. -1.
        -24    2    1    2    0    0 -0.21623510615E+02  0.25407624465E+02 -0.22039858783E+03  0.23719776664E+03  0.81080943430E+02 0.  0.
         25    2    1    2    0    0  0.16014787754E+02 -0.70450960407E+02  0.46684460096E+03  0.48868195920E+03  0.12508542901E+03 0.  0.
         24    2    1    2    0    0  0.56087228611E+01  0.45043335941E+02  0.48357768698E+03  0.49387526137E+03  0.89470858705E+02 0.  0.
        -13    1    5    5    0    0  0.31889487418E+02  0.13866502119E+01  0.67250204449E+02  0.74440930979E+02  0.00000000000E+00 0.  1.
         14    1    5    5    0    0 -0.26280764557E+02  0.43656685729E+02  0.41632748253E+03  0.41943433039E+03  0.00000000000E+00 0. -1.
         13    1    3    3    0    0 -0.91072629283E+01  0.16972155214E+02 -0.22124377545E+03  0.22208062604E+03  0.00000000000E+00 0. -1.
        -14    1    3    3    0    0 -0.12516247687E+02  0.84354692515E+01  0.84518761349E+00  0.15117140594E+02  0.00000000000E+00 0.  1.
          5    1    4    4  501    0  0.48425349501E+02  0.86859081196E+01  0.26286561156E+03  0.26746263592E+03  0.41800000000E+01 0.  1.
         -5    1    4    4    0  501 -0.32410561747E+02 -0.79136868526E+02  0.20397898940E+03  0.22121932328E+03  0.41800000000E+01 0.  1.
</event>
<event>
11    1  0.8039394E-009  0.1598751E+03  0.7561462E-02  0.1087195E+00
         22   -1    0    0    0    0  0.00000000000E+00  0.00000000000E+00  0.97466297662E+03  0.97466297662E+03  0.00000000000E+00 0.  1.
         22   -1    0    0    0    0 -0.00000000000E+00 -0.00000000000E+00 -0.10336747812E+03  0.10336747812E+03  0.00000000000E+00 0.  1.
         24    2    1    2    0    0 -0.57547158984E+02  0.10126895110E+03 -0.14772186825E+02  0.14220126309E+03  0.80224097106E+02 0.  0.
         25    2    1    2    0    0 -0.95252112856E+01 -0.49107939415E+02  0.20749497214E+03  0.24739616539E+03  0.12509348435E+03 0.  0.
        -24    2    1    2    0    0  0.67072370270E+02 -0.52161011687E+02  0.67857271319E+03  0.68843302626E+03  0.79117827095E+02 0.  0.
        -13    1    3    3    0    0 -0.76761709877E+01  0.82757531743E+02 -0.27426480990E+02  0.87521109001E+02  0.00000000000E+00 0.  1.
         14    1    3    3    0    0 -0.49870987997E+02  0.18511419359E+02  0.12654294165E+02  0.54680154090E+02  0.00000000000E+00 0. -1.
         11    1    5    5    0    0 -0.55541754674E+01 -0.20567095647E+02  0.43456240606E+02  0.48397305050E+02  0.00000000000E+00 0. -1.
        -12    1    5    5    0    0  0.72626545737E+02 -0.31593916040E+02  0.63511647258E+03  0.64003572121E+03  0.00000000000E+00 0.  1.
          5    1    4    4  501    0  0.55192000078E+02 -0.36325555226E+02  0.80491136140E+02  0.10422091072E+03  0.41800000000E+01 0. -1.
         -5    1    4    4    0  501 -0.64717211364E+02 -0.12782384188E+02  0.12700383600E+03  0.14317525467E+03  0.41800000000E+01 0. -1.
</event>
<event>
11    1  0.8039394E-009  0.1343454E+03  0.7561462E-02  0.1114042E+00
         22   -1    0    0    0    0  0.00000000000E+00  0.00000000000E+00  0.67327410370E+03  0.67327410370E+03  0.00000000000E+00 0.  1.
         22   -1    0    0    0    0 -0.00000000000E+00 -0.00000000000E+00 -0.34035713849E+03  0.34035713849E+03  0.00000000000E+00 0.  1.
         24    2    1    2    0    0  0.24645952010E+02  0.17360463823E+02 -0.24862828556E+03  0.26297628619E+03  0.80197843272E+02 0.  0.
         25    2    1    2    0    0  0.13703141978E+02 -0.48384533250E+02 -0.24911001205E+02  0.13710377341E+03  0.12509215621E+03 0.  0.
        -24    2    1    2    0    0 -0.38349093988E+02  0.31024069427E+02  0.60645625198E+03  0.61355118258E+03  0.78884232848E+02 0.  0.
        -13    1    3    3    0    0 -0.10692142411E+02  0.22099073157E+02 -0.20575632388E+03  0.20721572277E+03  0.00000000000E+00 0.  1.
         14    1    3    3    0    0  0.35338094420E+02 -0.47386093346E+01 -0.42871961672E+02  0.55760563424E+02  0.00000000000E+00 0. -1.
         13    1    5    5    0    0 -0.10213985795E+02 -0.85477969355E+01  0.14818124171E+02  0.19924034285E+02  0.00000000000E+00 0. -1.
        -14    1    5    5    0    0 -0.28135108193E+02  0.39571866363E+02  0.59163812781E+03  0.59362714830E+03  0.00000000000E+00 0.  1.
          5    1    4    4  501    0  0.44428910482E+02  0.17688753326E+02 -0.40104551595E+02  0.62551319246E+02  0.41800000000E+01 0. -1.
         -5    1    4    4    0  501 -0.30725768504E+02 -0.66073286576E+02  0.15193550390E+02  0.74552454168E+02  0.41800000000E+01 0. -1.
</event>
<event>
11    1  0.8039394E-009  0.1857449E+03  0.7561462E-02  0.1065088E+00
         22   -1    0    0    0    0  0.00000000000E+00  0.00000000000E+00  0.45965089031E+03  0.45965089031E+03  0.00000000000E+00 0.  1.
         22   -1    0    0    0    0 -0.00000000000E+00 -0.00000000000E+00 -0.31603243207E+04  0.31603243207E+04  0.00000000000E+00 0.  1.
        -24    2    1    2    0    0 -0.47268249782E+02 -0.13058294460E+03 -0.29657850677E+04  0.29702112022E+04  0.83590218516E+02 0.  0.
         25    2    1    2    0    0  0.13993589730E+02  0.11231544757E+03 -0.14959371294E+03  0.22546794986E+03  0.12508771781E+03 0.  0.
         24    2    1    2    0    0  0.33274660051E+02  0.18267497034E+02  0.41470535031E+03  0.42429605895E+03  0.81275541302E+02 0.  0.
        -13    1    5    5    0    0  0.26592653356E+01  0.37209056567E+02  0.33207347310E+03  0.33416220181E+03  0.00000000000E+00 0.  1.
         14    1    5    5    0    0  0.30615394716E+02 -0.18941559533E+02  0.82631877214E+02  0.90133857140E+02  0.00000000000E+00 0. -1.
         13    1    3    3    0    0 -0.18905437956E+02 -0.21110312553E+02 -0.18787224796E+03  0.18999748007E+03  0.00000000000E+00 0. -1.
        -14    1    3    3    0    0 -0.28362811826E+02 -0.10947263205E+03 -0.27779128198E+04  0.27802137221E+04  0.00000000000E+00 0.  1.
          5    1    4    4  501    0  0.98440550770E+01 -0.14308104888E+02 -0.77725036340E+02  0.79751369643E+02  0.41800000000E+01 0. -1.
         -5    1    4    4    0  501  0.41495346532E+01  0.12662355245E+03 -0.71868676597E+02  0.14571658022E+03  0.41800000000E+01 0. -1.
</event>
<event>
11    1  0.8039394E-009  0.1486255E+03  0.7561462E-02  0.1098292E+00
         22   -1    0    0    0    0  0.00000000000E+00  0.00000000000E+00  0.13649504740E+03  0.13649504740E+03  0.00000000000E+00 0. -1.
         22   -1    0    0    0    0 -0.00000000000E+00 -0.00000000000E+00 -0.10610220961E+04  0.10610220961E+04  0.00000000000E+00 0.  1.
         24    2    1    2    0    0 -0.21498570274E+02 -0.40914160814E+02 -0.82591577367E+03  0.83110552974E+03  0.80395144661E+02 0.  0.
         25    2    1    2    0    0  0.81329698699E+02  0.85497781922E+02 -0.16453341911E+03  0.23799828544E+03  0.12509015655E+03 0.  0.
        -24    2    1    2    0    0 -0.59831128424E+02 -0.44583621109E+02  0.65922144077E+02  0.12841332832E+03  0.81097414327E+02 0.  0.
        -11    1    3    3    0    0 -0.11469778492E+02 -0.21324609972E+02 -0.77800839997E+03  0.77838510086E+03  0.00000000000E+00 0.  1.
         12    1    3    3    0    0 -0.10028791782E+02 -0.19589550842E+02 -0.47907373703E+02  0.52720428886E+02  0.00000000000E+00 0. -1.
         13    1    5    5    0    0 -0.39542858298E+02 -0.56412620207E+02  0.76246136388E+02  0.10275940188E+03  0.00000000000E+00 0. -1.
        -14    1    5    5    0    0 -0.20288270126E+02  0.11828999098E+02 -0.10323992312E+02  0.25653926437E+02  0.00000000000E+00 0.  1.
          5    1    4    4  501    0  0.21300224774E+02  0.32674039146E+01  0.18372039947E+02  0.28624810140E+02  0.41800000000E+01 0. -1.
         -5    1    4    4    0  501  0.60029473925E+02  0.82230378008E+02 -0.18290545906E+03  0.20937347530E+03  0.41800000000E+01 0. -1.
</event>
<event>
11    1  0.8039394E-009  0.1969780E+03  0.7561462E-02  0.1056681E+00
         22   -1    0    0    0    0  0.00000000000E+00  0.00000000000E+00  0.70661848317E+03  0.70661848317E+03  0.00000000000E+00 0. -1.
         22   -1    0    0    0    0 -0.00000000000E+00 -0.00000000000E+00 -0.11540680974E+03  0.11540680974E+03  0.00000000000E+00 0. -1.
         24    2    1    2    0    0  0.15119045454E+03  0.28776951168E+01  0.14664463896E+02  0.17502742495E+03  0.86906376680E+02 0.  0.
         25    2    1    2    0    0 -0.15508267822E+03 -0.38055531891E+02  0.41296798004E+03  0.46009651096E+03  0.12508951303E+03 0.  0.
        -24    2    1    2    0    0  0.38922236720E+01  0.35177836774E+02  0.16357922949E+03  0.18690135701E+03  0.83194490954E+02 0.  0.
        -11    1    3    3    0    0  0.74679338823E+01  0.25959664693E+02 -0.68866419099E+01  0.27876514564E+02  0.00000000000E+00 0.  1.
         12    1    3    3    0    0  0.14372252066E+03 -0.23081969577E+02  0.21551105806E+02  0.14715091038E+03  0.00000000000E+00 0. -1.
         13    1    5    5    0    0 -0.37699580703E+02  0.17293923909E+02  0.52199645468E+02  0.66671891952E+02  0.00000000000E+00 0. -1.
        -14    1    5    5    0    0  0.41591804375E+02  0.17883912864E+02  0.11137958402E+03  0.12022946506E+03  0.00000000000E+00 0.  1.
          5    1    4    4  501    0 -0.13576453077E+03  0.71948987004E+01  0.20269503494E+03  0.24410351077E+03  0.41800000000E+01 0.  1.
         -5    1    4    4    0  501 -0.19318147446E+02 -0.45250430591E+02  0.21027294510E+03  0.21599300018E+03  0.41800000000E+01 0.  1.
</event>
<event>
11    1  0.8039394E-009  0.1421836E+03  0.7561462E-02  0.1105144E+00
         22   -1    0    0    0    0  0.00000000000E+00  0.00000000000E+00  0.78624709097E+03  0.78624709097E+03  0.00000000000E+00 0. -1.
         22   -1    0    0    0    0 -0.00000000000E+00 -0.00000000000E+00 -0.60171280141E+03  0.60171280141E+03  0.00000000000E+00 0.  1.
        -24    2    1    2    0    0 -0.47978320431E+02 -0.45756416598E+02 -0.51567063584E+03  0.52619134226E+03  0.81028113066E+02 0.  0.
         25    2    1    2    0    0  0.10447855017E+03  0.17233716223E+02  0.10159393876E+02  0.16420611423E+03  0.12509063213E+03 0.  0.
         24    2    1    2    0    0 -0.56500229741E+02  0.28522700375E+02  0.69004553152E+03  0.69756243590E+03  0.80154201376E+02 0.  0.
        -13    1    5    5    0    0 -0.10973433926E+02 -0.15821211551E+02  0.39739760448E+02  0.44158527461E+02  0.00000000000E+00 0.  1.
         14    1    5    5    0    0 -0.45526795815E+02  0.44343911926E+02  0.65030577108E+03  0.65340390843E+03  0.00000000000E+00 0. -1.
         13    1    3    3    0    0 -0.17237113633E+01 -0.41010175505E+02 -0.39071173241E+03  0.39286188861E+03  0.00000000000E+00 0. -1.
        -14    1    3    3    0    0 -0.46254609067E+02 -0.47462410929E+01 -0.12495890343E+03  0.13332945365E+03  0.00000000000E+00 0.  1.
          5    1    4    4  501    0  0.12183161940E+03  0.20312958549E+02  0.39484209598E+02  0.12973833272E+03  0.41800000000E+01 0.  1.
         -5    1    4    4    0  501 -0.17353069228E+02 -0.30792423269E+01 -0.29324815723E+02  0.34467781508E+02  0.41800000000E+01 0.  1.
</event>
<event>
11    1  0.8039394E-009  0.1604066E+03  0.7561462E-02  0.1086695E+00
         22   -1    0    0    0    0  0.00000000000E+00  0.00000000000E+00  0.63147186152E+03  0.63147186152E+03  0.00000000000E+00 0. -1.
         22   -1    0    0    0    0 -0.00000000000E+00 -0.00000000000E+00 -0.49677788215E+03  0.49677788215E+03  0.00000000000E+00 0.  1.
         24    2    1    2    0    0 -0.18676107579E+02 -0.81993088909E+02 -0.20465844958E+03  0.23567064668E+03  0.81141290983E+02 0.  0.
         25    2    1    2    0    0  0.57084032495E+02  0.12205704838E+03 -0.24140982064E+03  0.30345359370E+03  0.12509545236E+03 0.  0.
        -24    2    1    2    0    0 -0.38407924916E+02 -0.40063959469E+02  0.58076224959E+03  0.58912550330E+03  0.81876605608E+02 0.  0.
        -11    1    3    3    0    0  0.21138815869E+02 -0.62660264729E+02 -0.15839276056E+03  0.17164330721E+03  0.00000000000E+00 0.  1.
         12    1    3    3    0    0 -0.39814923448E+02 -0.19332824181E+02 -0.46265689016E+02  0.64027339474E+02  0.00000000000E+00 0. -1.
         13    1    5    5    0    0 -0.39246577175E+02 -0.63841804612E+02  0.45552070041E+03  0.46164399524E+03  0.00000000000E+00 0. -1.
        -14    1    5    5    0    0  0.83865225959E+00  0.23777845143E+02  0.12524154917E+03  0.12748150806E+03  0.00000000000E+00 0.  1.
          5    1    4    4  501    0 -0.16312824336E+02  0.22510306212E+02 -0.14189775070E+03  0.14465568146E+03  0.41800000000E+01 0. -1.
         -5    1    4    4    0  501  0.73396856831E+02  0.99546742166E+02 -0.99512069941E+02  0.15879791224E+03  0.41800000000E+01 0. -1.
</event>
<event>
11    1  0.8039394E-009  0.1609641E+04  0.7561462E-02  0.8249062E-01
         22   -1    0    0    0    0  0.00000000000E+00  0.00000000000E+00  0.11769185601E+04  0.11769185601E+04  0.00000000000E+00 0.  1.
         22   -1    0    0    0    0 -0.00000000000E+00 -0.00000000000E+00 -0.55036583591E+03  0.55036583591E+03  0.00000000000E+00 0.  1.
        -24    2    1    2    0    0  0.47389135694E+02  0.63078290316E+03 -0.84072772727E+02  0.64330037775E+03  0.81451481276E+02 0.  0.
         25    2    1    2    0    0 -0.73403477600E+02 -0.69511551819E+03  0.63829711089E+03  0.95480039722E+03  0.12508773964E+03 0.  0.
         24    2    1    2    0    0  0.26014341906E+02  0.64332615037E+02  0.72328386071E+02  0.12918362109E+03  0.81495896725E+02 0.  0.
        -11    1    5    5    0    0  0.37974990888E+02  0.76871034768E+01  0.30004272150E+01  0.38861215321E+02  0.00000000000E+00 0.  1.
         12    1    5    5    0    0 -0.11960648982E+02  0.56645511560E+02  0.69327958856E+02  0.90322405764E+02  0.00000000000E+00 0. -1.
         11    1    3    3    0    0  0.13768893356E+02  0.55110989261E+03 -0.70718034643E+02  0.55579918728E+03  0.00000000000E+00 0. -1.
        -12    1    3    3    0    0  0.33620242338E+02  0.79673010551E+02 -0.13354738085E+02  0.87501190474E+02  0.00000000000E+00 0.  1.
          5    1    4    4  501    0  0.22207729297E+02 -0.94989899122E+02  0.53132940062E+02  0.11116135073E+03  0.41800000000E+01 0.  1.
         -5    1    4    4    0  501 -0.95611206897E+02 -0.60012561907E+03  0.58516417083E+03  0.84363904650E+03  0.41800000000E+01 0.  1.
</event>
<event>
11    1  0.8039394E-009  0.2050230E+03  0.7561462E-02  0.1051027E+00
         22   -1    0    0    0    0  0.00000000000E+00  0.00000000000E+00  0.12899931506E+03  0.12899931506E+03  0.00000000000E+00 0. -1.
         22   -1    0    0    0    0 -0.00000000000E+00 -0.00000000000E+00 -0.17292757354E+04  0.17292757354E+04  0.00000000000E+00 0.  1.
         24    2    1    2    0    0  0.11534137428E+03  0.10687913927E+03 -0.11692113841E+04  0.11822883523E+04  0.77612527010E+02 0.  0.
         25    2    1    2    0    0 -0.20810768583E+03 -0.39535069799E+02 -0.47012606732E+03  0.53060090847E+03  0.12508786611E+03 0.  0.
        -24    2    1    2    0    0  0.92766311557E+02 -0.67344069476E+02  0.39061031031E+02  0.14538578970E+03  0.80439116403E+02 0.  0.
        -11    1    3    3    0    0  0.10876203864E+03  0.61003341928E+02 -0.95595055898E+03  0.96404982236E+03  0.00000000000E+00 0.  1.
         12    1    3    3    0    0  0.65793356374E+01  0.45875797346E+02 -0.21326082511E+03  0.21823852997E+03  0.00000000000E+00 0. -1.
         11    1    5    5    0    0  0.12634616792E+02 -0.35386734931E+02  0.45342846952E+02  0.58888269802E+02  0.00000000000E+00 0. -1.
        -12    1    5    5    0    0  0.80131694765E+02 -0.31957334545E+02 -0.62818159206E+01  0.86497519898E+02  0.00000000000E+00 0.  1.
          5    1    4    4  501    0 -0.10695725592E+03 -0.73537929732E+02 -0.18416108697E+03  0.22534520198E+03  0.41800000000E+01 0.  1.
         -5    1    4    4    0  501 -0.10115042992E+03  0.34002859934E+02 -0.28596498035E+03  0.30525570649E+03  0.41800000000E+01 0.  1.
</event>
<event>
11    1  0.8039394E-009  0.1412337E+03  0.7561462E-02  0.1106189E+00
         22   -1    0    0    0    0  0.00000000000E+00  0.00000000000E+00  0.18888128179E+04  0.18888128179E+04  0.00000000000E+00 0. -1.
         22   -1    0    0    0    0 -0.00000000000E+00 -0.00000000000E+00 -0.21932938368E+03  0.21932938368E+03  0.00000000000E+00 0.  1.
         24    2    1    2    0    0  0.33667800848E+02 -0.55794477503E+02 -0.15963727641E+03  0.20077435020E+03  0.10285783949E+03 0.  0.
         25    2    1    2    0    0 -0.60600108762E+02  0.42183744192E+02  0.10043986383E+03  0.17659867528E+03  0.12508830644E+03 0.  0.
        -24    2    1    2    0    0  0.26932307914E+02  0.13610733311E+02  0.17286808468E+04  0.17307691761E+04  0.79459861794E+02 0.  0.
        -13    1    3    3    0    0  0.13530312043E+02 -0.43939839908E+02 -0.16934150796E+03  0.17547172192E+03  0.00000000000E+00 0.  1.
         14    1    3    3    0    0  0.20137488805E+02 -0.11854637595E+02  0.97042315500E+01  0.25302628279E+02  0.00000000000E+00 0. -1.
         11    1    5    5    0    0  0.28971954921E+02  0.43163716850E+02  0.13160558404E+04  0.13170821750E+04  0.00000000000E+00 0. -1.
        -12    1    5    5    0    0 -0.20396470067E+01 -0.29552983540E+02  0.41262500634E+03  0.41368700107E+03  0.00000000000E+00 0.  1.
          5    1    4    4  501    0  0.12723837258E+01  0.23119346134E+02 -0.25643785006E+02  0.34802287790E+02  0.41800000000E+01 0.  1.
         -5    1    4    4    0  501 -0.61872492488E+02  0.19064398058E+02  0.12608364884E+03  0.14179638749E+03  0.41800000000E+01 0.  1.
</event>
<event>
11    1  0.8039394E-009  0.1902021E+03  0.7561462E-02  0.1061677E+00
         22   -1    0    0    0    0  0.00000000000E+00  0.00000000000E+00  0.30688684682E+03  0.30688684682E+03  0.00000000000E+00 0.  1.
         22   -1    0    0    0    0 -0.00000000000E+00 -0.00000000000E+00 -0.58374376167E+03  0.58374376167E+03  0.00000000000E+00 0.  1.
        -24    2    1    2    0    0 -0.56800879694E+02 -0.89449797350E+02 -0.42739608218E+03  0.44755354174E+03  0.80057201337E+02 0.  0.
         25    2    1    2    0    0  0.14384088549E+03 -0.33644560348E+02 -0.29349988662E+02  0.19578522370E+03  0.12509306617E+03 0.  0.
         24    2    1    2    0    0 -0.87040005795E+02  0.12309435770E+03  0.17988915599E+03  0.24729184305E+03  0.77877876768E+02 0.  0.
        -13    1    5    5    0    0 -0.61843359406E+02  0.12785216060E+03  0.13705898168E+03  0.19737259316E+03  0.00000000000E+00 0.  1.
         14    1    5    5    0    0 -0.25196646389E+02 -0.47578029021E+01  0.42830174313E+02  0.49919249888E+02  0.00000000000E+00 0. -1.
         11    1    3    3    0    0 -0.63678303757E+02 -0.93051163417E+02 -0.30944604309E+03  0.32934829431E+03  0.00000000000E+00 0. -1.
        -12    1    3    3    0    0  0.68774240621E+01  0.36013660668E+01 -0.11795003909E+03  0.11820524743E+03  0.00000000000E+00 0.  1.
          5    1    4    4  501    0  0.15458775478E+02 -0.15930547437E+02  0.42070570018E+02  0.47751034990E+02  0.41800000000E+01 0. -1.
         -5    1    4    4    0  501  0.12838211001E+03 -0.17714012911E+02 -0.71420558680E+02  0.14803418871E+03  0.41800000000E+01 0. -1.
</event>
<event>
11    1  0.8039394E-009  0.1400248E+03  0.7561462E-02  0.1107531E+00
         22   -1    0    0    0    0  0.00000000000E+00  0.00000000000E+00  0.61351755971E+03  0.61351755971E+03  0.00000000000E+00 0.  1.
         22   -1    0    0    0    0 -0.00000000000E+00 -0.00000000000E+00 -0.14772675982E+04  0.14772675982E+04  0.00000000000E+00 0.  1.
        -24    2    1    2    0    0 -0.90563228456E+01  0.46306969246E+02 -0.14510005604E+04  0.14539997262E+04  0.80537104388E+02 0.  0.
         25    2    1    2    0    0 -0.57370444158E+02 -0.32540391425E+02  0.32892474254E+03  0.35803620713E+03  0.12509274329E+03 0.  0.
         24    2    1    2    0    0  0.66426767004E+02 -0.13766577820E+02  0.25832577937E+03  0.27874922456E+03  0.79792780795E+02 0.  0.
        -11    1    5    5    0    0  0.13378749182E+02 -0.45529695555E+00  0.19337665953E+03  0.19383944561E+03  0.00000000000E+00 0.  1.
         12    1    5    5    0    0  0.53048017822E+02 -0.13311280865E+02  0.64949119846E+02  0.84909778953E+02  0.00000000000E+00 0. -1.
         11    1    3    3    0    0  0.58247267182E+01 -0.12733745132E+02 -0.57897875776E+02  0.59567102715E+02  0.00000000000E+00 0. -1.
        -12    1    3    3    0    0 -0.14881049564E+02  0.59040714378E+02 -0.13931026846E+04  0.13944326235E+04  0.00000000000E+00 0.  1.
          5    1    4    4  501    0  0.26834843809E+02  0.26111798661E+02  0.70174482415E+02  0.79648385130E+02  0.41800000000E+01 0. -1.
         -5    1    4    4    0  501 -0.84205287967E+02 -0.58652190087E+02  0.25875026012E+03  0.27838782200E+03  0.41800000000E+01 0. -1.
</event>
<event>
11    1  0.8039394E-009  0.3346480E+03  0.7561462E-02  0.9865078E-01
         22   -1    0    0    0    0  0.00000000000E+00  0.00000000000E+00  0.11449445421E+04  0.11449445421E+04  0.00000000000E+00 0.  1.
         22   -1    0    0    0    0 -0.00000000000E+00 -0.00000000000E+00 -0.50429101341E+03  0.50429101341E+03  0.00000000000E+00 0. -1.
         24    2    1    2    0    0  0.14981508193E+03 -0.27038262162E+03 -0.37686801634E+03  0.49385305335E+03  0.79435607371E+02 0.  0.
         25    2    1    2    0    0 -0.16762681558E+03  0.27320660876E+03  0.38686473921E+03  0.51773794039E+03  0.12509055962E+03 0.  0.
        -24    2    1    2    0    0  0.17811733651E+02 -0.28239871392E+01  0.63065680583E+03  0.63764456177E+03  0.92397768694E+02 0.  0.
        -13    1    3    3    0    0  0.33476583377E+02 -0.62964518526E+02 -0.40820467218E+02  0.82167650396E+02  0.00000000000E+00 0.  1.
         14    1    3    3    0    0  0.11633849855E+03 -0.20741810309E+03 -0.33604754912E+03  0.41168540295E+03  0.00000000000E+00 0. -1.
         13    1    5    5    0    0  0.15972934140E+02  0.92261243862E+01  0.21345992238E+02  0.28211830512E+02  0.00000000000E+00 0. -1.
        -14    1    5    5    0    0  0.18387995115E+01 -0.12050111525E+02  0.60931081359E+03  0.60943273126E+03  0.00000000000E+00 0.  1.
          5    1    4    4  501    0 -0.14811307969E+03  0.15388883901E+03  0.18598756133E+03  0.28324566107E+03  0.41800000000E+01 0. -1.
         -5    1    4    4    0  501 -0.19513735882E+02  0.11931776975E+03  0.20087717788E+03  0.23449227932E+03  0.41800000000E+01 0. -1.
</event>
<event>
11    1  0.8039394E-009  0.1329615E+03  0.7561462E-02  0.1115683E+00
         22   -1    0    0    0    0  0.00000000000E+00  0.00000000000E+00  0.13523749966E+04  0.13523749966E+04  0.00000000000E+00 0. -1.
         22   -1    0    0    0    0 -0.00000000000E+00 -0.00000000000E+00 -0.36330180664E+03  0.36330180664E+03  0.00000000000E+00 0.  1.
         24    2    1    2    0    0  0.45325022628E+02 -0.71036143109E+01 -0.34218379355E+03  0.35453751311E+03  0.80636720084E+02 0.  0.
         25    2    1    2    0    0 -0.27413452585E+01  0.79264899667E+01  0.29208159711E+03  0.31785472428E+03  0.12509844985E+03 0.  0.
        -24    2    1    2    0    0 -0.42583677370E+02 -0.82287565575E+00  0.10391753864E+04  0.10432845658E+04  0.82116715421E+02 0.  0.
        -11    1    3    3    0    0  0.57767045858E+02 -0.48483127893E+00 -0.13456722196E+03  0.14644317626E+03  0.00000000000E+00 0.  1.
         12    1    3    3    0    0 -0.12442023230E+02 -0.66187830320E+01 -0.20761657159E+03  0.20809433685E+03  0.00000000000E+00 0. -1.
         13    1    5    5    0    0 -0.26563699676E+01  0.37244220187E+02  0.42066497949E+03  0.42231885253E+03  0.00000000000E+00 0. -1.
        -14    1    5    5    0    0 -0.39927307402E+02 -0.38067095843E+02  0.61851040688E+03  0.62096571329E+03  0.00000000000E+00 0.  1.
          5    1    4    4  501    0 -0.49954234582E+02  0.29458581523E+02  0.76567026982E+02  0.96141643417E+02  0.41800000000E+01 0.  1.
         -5    1    4    4    0  501  0.47212889324E+02 -0.21532091556E+02  0.21551457013E+03  0.22171308086E+03  0.41800000000E+01 0.  1.
</event>
<event>
11    1  0.8039394E-009  0.1336401E+03  0.7561462E-02  0.1114876E+00
         22   -1    0    0    0    0  0.00000000000E+00  0.00000000000E+00  0.45894531875E+03  0.45894531875E+03  0.00000000000E+00 0.  1.
         22   -1    0    0    0    0 -0.00000000000E+00 -0.00000000000E+00 -0.12076952267E+04  0.12076952267E+04  0.00000000000E+00 0.  1.
         24    2    1    2    0    0 -0.23370070713E+02  0.40702616057E+02 -0.11263513705E+04  0.11301484180E+04  0.79782039118E+02 0.  0.
         25    2    1    2    0    0 -0.92064437097E+01 -0.64570219488E+02 -0.73936518824E+01  0.14125409347E+03  0.12507590089E+03 0.  0.
        -24    2    1    2    0    0  0.32576514423E+02  0.23867603431E+02  0.38499511441E+03  0.39523803398E+03  0.79755711993E+02 0.  0.
        -13    1    3    3    0    0 -0.10990944804E+02  0.12571333783E+02 -0.99904675080E+03  0.99918629373E+03  0.00000000000E+00 0.  1.
         14    1    3    3    0    0 -0.12379125910E+02  0.28131282274E+02 -0.12730461971E+03  0.13096212430E+03  0.00000000000E+00 0. -1.
         11    1    5    5    0    0  0.36620487203E+01  0.38669307162E+02  0.84587881227E+02  0.93079726943E+02  0.00000000000E+00 0. -1.
        -12    1    5    5    0    0  0.28914465703E+02 -0.14801703731E+02  0.30040723319E+03  0.30215830704E+03  0.00000000000E+00 0.  1.
          5    1    4    4  501    0 -0.42927575200E+02 -0.46079261146E+02  0.43992476041E+02  0.76934292539E+02  0.41800000000E+01 0. -1.
         -5    1    4    4    0  501  0.33721131491E+02 -0.18490958342E+02 -0.51386127923E+02  0.64319800935E+02  0.41800000000E+01 0. -1.
</event>
<event>
11    1  0.8039394E-009  0.2496372E+03  0.7561462E-02  0.1024093E+00
         22   -1    0    0    0    0  0.00000000000E+00  0.00000000000E+00  0.15461594865E+04  0.15461594865E+04  0.00000000000E+00 0. -1.
         22   -1    0    0    0    0 -0.00000000000E+00 -0.00000000000E+00 -0.35840644442E+03  0.35840644442E+03  0.00000000000E+00 0. -1.
         24    2    1    2    0    0  0.20693112325E+03 -0.70661539811E+02 -0.28100803706E+03  0.36503156427E+03  0.80429988433E+02 0.  0.
         25    2    1    2    0    0 -0.17902140986E+03  0.69007380536E+02  0.35498293356E+03  0.42245795928E+03  0.12508861054E+03 0.  0.
        -24    2    1    2    0    0 -0.27909713396E+02  0.16541592754E+01  0.11137781456E+04  0.11170764073E+04  0.81094105533E+02 0.  0.
        -11    1    3    3    0    0  0.21789932634E+02 -0.39587229887E+02 -0.51097114650E+02  0.68211912888E+02  0.00000000000E+00 0.  1.
         12    1    3    3    0    0  0.18514119062E+03 -0.31074309924E+02 -0.22991092241E+03  0.29681965138E+03  0.00000000000E+00 0. -1.
         13    1    5    5    0    0 -0.36999958625E+01 -0.32599364505E+02  0.77756350970E+03  0.77825536949E+03  0.00000000000E+00 0. -1.
        -14    1    5    5    0    0 -0.24209717533E+02  0.34253523780E+02  0.33621463588E+03  0.33882103786E+03  0.00000000000E+00 0.  1.
          5    1    4    4  501    0  0.17688318635E+02 -0.19985498071E+01  0.16906334485E+02  0.24903159702E+02  0.41800000000E+01 0. -1.
         -5    1    4    4    0  501 -0.19670972849E+03  0.71005930343E+02  0.33807659908E+03  0.39755479958E+03  0.41800000000E+01 0. -1.
</event>
<event>
11    1  0.8039394E-009  0.2067992E+03  0.7561462E-02  0.1049817E+00
         22   -1    0    0    0    0  0.00000000000E+00  0.00000000000E+00  0.80163444886E+03  0.80163444886E+03  0.00000000000E+00 0. -1.
         22   -1    0    0    0    0 -0.00000000000E+00 -0.00000000000E+00 -0.38390020362E+03  0.38390020362E+03  0.00000000000E+00 0. -1.
        -24    2    1    2    0    0 -0.16002962510E+02  0.57312923586E+02 -0.28843162962E+03  0.30565394640E+03  0.81796478921E+02 0.  0.
         25    2    1    2    0    0 -0.14036476821E+03 -0.10711309303E+03  0.85203032186E+02  0.23255469337E+03  0.12508655347E+03 0.  0.
         24    2    1    2    0    0  0.15636773072E+03  0.49800169445E+02  0.62096284267E+03  0.64732601271E+03  0.80654762126E+02 0.  0.
        -11    1    5    5    0    0  0.10169196827E+02 -0.16813498762E+02  0.40116678821E+02  0.44670507322E+02  0.00000000000E+00 0.  1.
         12    1    5    5    0    0  0.14619853390E+03  0.66613668207E+02  0.58084616385E+03  0.60265550538E+03  0.00000000000E+00 0. -1.
         13    1    3    3    0    0 -0.32747874668E+02  0.70971420558E+02 -0.24460322267E+03  0.25678804951E+03  0.00000000000E+00 0. -1.
        -14    1    3    3    0    0  0.16744912158E+02 -0.13658496971E+02 -0.43828406951E+02  0.48865896887E+02  0.00000000000E+00 0.  1.
          5    1    4    4  501    0 -0.58378494489E+02  0.22271438901E+02  0.32203229686E+02  0.70417228089E+02  0.41800000000E+01 0.  1.
         -5    1    4    4    0  501 -0.81986273726E+02 -0.12938453193E+03  0.52999802500E+02  0.16213746528E+03  0.41800000000E+01 0.  1.
</event>
<event>
11    1  0.8039394E-009  0.2454385E+03  0.7561462E-02  0.1026358E+00
         22   -1    0    0    0    0  0.00000000000E+00  0.00000000000E+00  0.50380009742E+03  0.50380009742E+03  0.00000000000E+00 0. -1.
         22   -1    0    0    0    0 -0.00000000000E+00 -0.00000000000E+00 -0.27779429216E+03  0.27779429216E+03  0.00000000000E+00 0.  1.
         24    2    1    2    0    0  0.16524643091E+03 -0.11263528505E+03 -0.73264550116E+02  0.22761214044E+03  0.80290110245E+02 0.  0.
         25    2    1    2    0    0 -0.18339799804E+03  0.14270254158E+03  0.23646754071E+02  0.26496175411E+03  0.12508685424E+03 0.  0.
        -24    2    1    2    0    0  0.18151567126E+02 -0.30067256533E+02  0.27562360130E+03  0.28902049504E+03  0.79567315213E+02 0.  0.
        -11    1    3    3    0    0  0.80832803948E+02 -0.99320866299E+02 -0.28702486171E+02  0.13123417767E+03  0.00000000000E+00 0.  1.
         12    1    3    3    0    0  0.84413626964E+02 -0.13314418749E+02 -0.44562063945E+02  0.96377962766E+02  0.00000000000E+00 0. -1.
         11    1    5    5    0    0  0.47471989662E+02 -0.26945335223E+02  0.14081453799E+03  0.15102441856E+03  0.00000000000E+00 0. -1.
        -12    1    5    5    0    0 -0.29320422536E+02 -0.31219213097E+01  0.13480906331E+03  0.13799607647E+03  0.00000000000E+00 0.  1.
          5    1    4    4  501    0 -0.16732620573E+03  0.14994993124E+03 -0.11926954535E+02  0.22503947575E+03  0.41800000000E+01 0.  1.
         -5    1    4    4    0  501 -0.16071792310E+02 -0.72473896593E+01  0.35573708606E+02  0.39922278353E+02  0.41800000000E+01 0.  1.
</event>
<event>
11    1  0.8039394E-009  0.2276144E+03  0.7561462E-02  0.1036550E+00
         22   -1    0    0    0    0  0.00000000000E+00  0.00000000000E+00  0.25499758964E+04  0.25499758964E+04  0.00000000000E+00 0. -1.
         22   -1    0    0    0    0 -0.00000000000E+00 -0.00000000000E+00 -0.24405867565E+03  0.24405867565E+03  0.00000000000E+00 0. -1.
        -24    2    1    2    0    0  0.10423220547E+02  0.11060112733E+03 -0.91451376694E+02  0.16563254120E+03  0.82033721787E+02 0.  0.
         25    2    1    2    0    0  0.89479305946E+02 -0.26832802253E+03  0.10444939840E+03  0.32644017065E+03  0.12508810622E+03 0.  0.
         24    2    1    2    0    0 -0.99902526492E+02  0.15772689519E+03  0.22929191991E+04  0.23019618602E+04  0.81802593250E+02 0.  0.
        -11    1    5    5    0    0 -0.33891936858E+02  0.54631734548E+02  0.40433703230E+03  0.40941632294E+03  0.00000000000E+00 0.  1.
         12    1    5    5    0    0 -0.66010589635E+02  0.10309516064E+03  0.18885821668E+04  0.18925455373E+04  0.00000000000E+00 0. -1.
         13    1    3    3    0    0  0.14336702148E+02  0.52131873780E+02 -0.92364242655E+02  0.10702535500E+03  0.00000000000E+00 0. -1.
        -14    1    3    3    0    0 -0.39134816016E+01  0.58469253554E+02  0.91286596107E+00  0.58607186194E+02  0.00000000000E+00 0.  1.
          5    1    4    4  501    0  0.73055185401E+02 -0.16718135499E+03  0.12584180995E+03  0.22167611306E+03  0.41800000000E+01 0.  1.
         -5    1    4    4    0  501  0.16424120545E+02 -0.10114666754E+03 -0.21392411549E+02  0.10476405759E+03  0.41800000000E+01 0.  1.
</event>
<event>
11    1  0.8039394E-009  0.1415330E+03  0.7561462E-02  0.1105859E+00
         22   -1    0    0    0    0  0.00000000000E+00  0.00000000000E+00  0.50065191208E+03  0.50065191208E+03  0.00000000000E+00 0.  1.
         22   -1    0    0    0    0 -0.00000000000E+00 -0.00000000000E+00 -0.69341581602E+03  0.69341581602E+03  0.00000000000E+00 0. -1.
        -24    2    1    2    0    0 -0.79665875384E+01  0.29949242397E+02 -0.65460214493E+03  0.66173648212E+03  0.91819278913E+02 0.  0.
         25    2    1    2    0    0 -0.57774811782E+02 -0.39313588037E+01  0.15635679428E+03  0.20844305881E+03  0.12509067588E+03 0.  0.
         24    2    1    2    0    0  0.65741399321E+02 -0.26017883594E+02  0.30548144672E+03  0.32388818717E+03  0.81152828985E+02 0.  0.
        -11    1    5    5    0    0  0.30390620885E+01 -0.19951238611E+02  0.20008764512E+03  0.20110284322E+03  0.00000000000E+00 0.  1.
         12    1    5    5    0    0  0.62702337232E+02 -0.60666449828E+01  0.10539380159E+03  0.12278534395E+03  0.00000000000E+00 0. -1.
         11    1    3    3    0    0 -0.38600944394E+02  0.18459272987E+02 -0.56007765784E+03  0.56170967632E+03  0.00000000000E+00 0. -1.
        -12    1    3    3    0    0  0.30634356856E+02  0.11489969411E+02 -0.94524487094E+02  0.10002680579E+03  0.00000000000E+00 0.  1.
          5    1    4    4  501    0 -0.62603591067E+02  0.40123832618E+02  0.41491521147E+02  0.85253447352E+02  0.41800000000E+01 0. -1.
         -5    1    4    4    0  501  0.48287792843E+01 -0.44055191421E+02  0.11486527313E+03  0.12318961146E+03  0.41800000000E+01 0. -1.
</event>
<event>
11    1  0.8039394E-009  0.1797557E+03  0.7561462E-02  0.1069841E+00
         22   -1    0    0    0    0  0.00000000000E+00  0.00000000000E+00  0.13644156469E+03  0.13644156469E+03  0.00000000000E+00 0.  1.
         22   -1    0    0    0    0 -0.00000000000E+00 -0.00000000000E+00 -0.14947462494E+04  0.14947462494E+04  0.00000000000E+00 0.  1.
         24    2    1    2    0    0 -0.48568473541E+02 -0.12045010481E+03 -0.12300847215E+04  0.12392479669E+04  0.75894513349E+02 0.  0.
         25    2    1    2    0    0  0.55221830733E+02  0.11092087290E+03 -0.21148186074E+03  0.27518668321E+03  0.12510092948E+03 0.  0.
        -24    2    1    2    0    0 -0.66533571918E+01  0.95292319171E+01  0.83261897490E+02  0.11675316397E+03  0.81016568065E+02 0.  0.
        -13    1    3    3    0    0 -0.85782955771E+01 -0.98555611781E+02 -0.98527931003E+03  0.99023336368E+03  0.00000000000E+00 0.  1.
         14    1    3    3    0    0 -0.39990177964E+02 -0.21894493032E+02 -0.24480541146E+03  0.24901460326E+03  0.00000000000E+00 0. -1.
         11    1    5    5    0    0 -0.55098743260E+00  0.95427801181E+01 -0.15279455146E+02  0.18023040506E+02  0.00000000000E+00 0. -1.
        -12    1    5    5    0    0 -0.61023697592E+01 -0.13548200951E-01  0.98541352636E+02  0.98730123466E+02  0.00000000000E+00 0.  1.
          5    1    4    4  501    0  0.39274776016E+02 -0.15972110147E+02 -0.85967643931E+02  0.95945424782E+02  0.41800000000E+01 0.  1.
         -5    1    4    4    0  501  0.15947054717E+02  0.12689298304E+03 -0.12551421681E+03  0.17924125842E+03  0.41800000000E+01 0.  1.
</event>
<event>
11    1  0.8039394E-009  0.1911839E+03  0.7561462E-02  0.1060939E+00
         22   -1    0    0    0    0  0.00000000000E+00  0.00000000000E+00  0.89807267353E+03  0.89807267353E+03  0.00000000000E+00 0.  1.
         22   -1    0    0    0    0 -0.00000000000E+00 -0.00000000000E+00 -0.67380585683E+03  0.67380585683E+03  0.00000000000E+00 0. -1.
        -24    2    1    2    0    0 -0.20827923306E+02 -0.14674165559E+03 -0.37089950728E+03  0.40976673313E+03  0.91517294572E+02 0.  0.
         25    2    1    2    0    0  0.53843782233E+02  0.13079892568E+03 -0.25019581198E+03  0.31345244992E+03  0.12508789785E+03 0.  0.
         24    2    1    2    0    0 -0.33015858928E+02  0.15942729910E+02  0.84536213596E+03  0.84865934730E+03  0.65125488610E+02 0.  0.
        -11    1    5    5    0    0 -0.38220733787E+02  0.34899144827E+02  0.70912347056E+03  0.71100975471E+03  0.00000000000E+00 0.  1.
         12    1    5    5    0    0  0.52048748593E+01 -0.18956414917E+02  0.13623866541E+03  0.13764959259E+03  0.00000000000E+00 0. -1.
         13    1    3    3    0    0 -0.50361947603E+02 -0.96925777489E+02 -0.29300607652E+03  0.31270352250E+03  0.00000000000E+00 0. -1.
        -14    1    3    3    0    0  0.29534024297E+02 -0.49815878097E+02 -0.77893430768E+02  0.97063210634E+02  0.00000000000E+00 0.  1.
          5    1    4    4  501    0 -0.10330146973E+02  0.95949131631E+02 -0.20719157296E+03  0.22860176749E+03  0.41800000000E+01 0. -1.
         -5    1    4    4    0  501  0.64173929207E+02  0.34849794045E+02 -0.43004239020E+02  0.84850682428E+02  0.41800000000E+01 0. -1.
</event>
<event>
11    1  0.8896716E-009  0.1485674E+03  0.7561462E-02  0.1098352E+00
         22   -1    0    0    0    0  0.00000000000E+00  0.00000000000E+00  0.78774814965E+03  0.78774814965E+03  0.00000000000E+00 0.  1.
         22   -1    0    0    0    0 -0.00000000000E+00 -0.00000000000E+00 -0.37710814244E+03  0.37710814244E+03  0.00000000000E+00 0.  1.
        -24    2    1    2    0    0  0.36898076620E+02 -0.19304721186E+02 -0.26028724178E+03  0.27521677596E+03  0.79124491909E+02 0.  0.
         25    2    1    2    0    0 -0.11233061949E+03 -0.41193774961E+01 -0.37725536833E+02  0.17235169500E+03  0.12508698291E+03 0.  0.
         24    2    1    2    0    0  0.75432542873E+02  0.23424098682E+02  0.70865278583E+03  0.71728782113E+03  0.77937735081E+02 0.  0.
        -13    1    5    5    0    0  0.35915156724E+02  0.24713042279E+02  0.12664845281E+03  0.13394201559E+03  0.00000000000E+00 0.  1.
         14    1    5    5    0    0  0.39517386149E+02 -0.12889435964E+01  0.58200433302E+03  0.58334580554E+03  0.00000000000E+00 0. -1.
         11    1    3    3    0    0  0.19006586975E+00 -0.38056877107E+02 -0.62462793872E+02  0.73143438793E+02  0.00000000000E+00 0. -1.
        -12    1    3    3    0    0  0.36708010750E+02  0.18752155921E+02 -0.19782444791E+03  0.20207333717E+03  0.00000000000E+00 0.  1.
          5    1    4    4  501    0 -0.34598908251E+02  0.34154785412E+02  0.34264860951E+02  0.59625388172E+02  0.41800000000E+01 0.  1.
         -5    1    4    4    0  501 -0.77731711241E+02 -0.38274162908E+02 -0.71990397783E+02  0.11272630683E+03  0.41800000000E+01 0.  1.
</event>
<event>
11    1  0.8039394E-009  0.3681013E+03  0.7561462E-02  0.9748868E-01
         22   -1    0    0    0    0  0.00000000000E+00  0.00000000000E+00  0.55464102770E+03  0.55464102770E+03  0.00000000000E+00 0.  1.
         22   -1    0    0    0    0 -0.00000000000E+00 -0.00000000000E+00 -0.10256097989E+04  0.10256097989E+04  0.00000000000E+00 0.  1.
         24    2    1    2    0    0 -0.22895545910E+03  0.23943720578E+03 -0.74880540269E+03  0.82289025998E+03  0.81780628012E+02 0.  0.
         25    2    1    2    0    0  0.37836653704E+03 -0.32419788417E+03  0.19536920528E+03  0.54961930409E+03  0.12508696419E+03 0.  0.
        -24    2    1    2    0    0 -0.14941107793E+03  0.84760678389E+02  0.82467426208E+02  0.20774126254E+03  0.82749700705E+02 0.  0.
        -13    1    3    3    0    0 -0.17984826540E+03  0.13374640431E+03 -0.51463303141E+03  0.56132045771E+03  0.00000000000E+00 0.  1.
         14    1    3    3    0    0 -0.49107193709E+02  0.10569080147E+03 -0.23417237128E+03  0.26156980227E+03  0.00000000000E+00 0. -1.
         13    1    5    5    0    0 -0.35688140903E+01  0.65843378522E+01 -0.14233652255E+02  0.16083743205E+02  0.00000000000E+00 0. -1.
        -14    1    5    5    0    0 -0.14584226384E+03  0.78176340536E+02  0.96701078462E+02  0.19165751933E+03  0.00000000000E+00 0.  1.
          5    1    4    4  501    0  0.16233540337E+03 -0.19342340894E+03  0.14777465277E+03  0.29260932780E+03  0.41800000000E+01 0.  1.
         -5    1    4    4    0  501  0.21603113367E+03 -0.13077447522E+03  0.47594552508E+02  0.25700997629E+03  0.41800000000E+01 0.  1.
</event>
<event>
11    1  0.8039394E-009  0.1620839E+03  0.7561462E-02  0.1085134E+00
         22   -1    0    0    0    0  0.00000000000E+00  0.00000000000E+00  0.79932728277E+03  0.79932728277E+03  0.00000000000E+00 0.  1.
         22   -1    0    0    0    0 -0.00000000000E+00 -0.00000000000E+00 -0.23458141400E+03  0.23458141400E+03  0.00000000000E+00 0.  1.
         24    2    1    2    0    0 -0.48418119881E+02  0.15709488690E+01 -0.17504820398E+03  0.20111689657E+03  0.86367529546E+02 0.  0.
         25    2    1    2    0    0 -0.24613457778E+02 -0.80704477223E+02  0.10455239594E+03  0.18357108082E+03  0.12509237893E+03 0.  0.
        -24    2    1    2    0    0  0.73031577658E+02  0.79133528354E+02  0.63524167680E+03  0.64922071937E+03  0.79748528955E+02 0.  0.
        -13    1    3    3    0    0 -0.65208595240E+02 -0.21606681047E+02 -0.10531444333E+03  0.12573838528E+03  0.00000000000E+00 0.  1.
         14    1    3    3    0    0  0.16790475359E+02  0.23177629916E+02 -0.69733760642E+02  0.75378511292E+02  0.00000000000E+00 0. -1.
         13    1    5    5    0    0 -0.13361300655E+02  0.16804742418E+02  0.19923626865E+03  0.20038965659E+03  0.00000000000E+00 0. -1.
        -14    1    5    5    0    0  0.86392878314E+02  0.62328785936E+02  0.43600540815E+03  0.44883106278E+03  0.00000000000E+00 0.  1.
          5    1    4    4  501    0 -0.22132712295E+01 -0.49603066166E+02  0.12874685111E+03  0.13805284065E+03  0.41800000000E+01 0. -1.
         -5    1    4    4    0  501 -0.22400186548E+02 -0.31101411057E+02 -0.24194455162E+02  0.45518240165E+02  0.41800000000E+01 0. -1.
</event>
<event>
11    1  0.8039394E-009  0.1676602E+03  0.7561462E-02  0.1080086E+00
         22   -1    0    0    0    0  0.00000000000E+00  0.00000000000E+00  0.16135936766E+04  0.16135936766E+04  0.00000000000E+00 0. -1.
         22   -1    0    0    0    0 -0.00000000000E+00 -0.00000000000E+00 -0.17178383244E+04  0.17178383244E+04  0.00000000000E+00 0.  1.
        -24    2    1    2    0    0 -0.57341339654E+02 -0.95283702550E+02 -0.16665848740E+04  0.16722279960E+04  0.80463127680E+02 0.  0.
         25    2    1    2    0    0  0.94403914768E+02  0.10730584733E+03  0.14462801052E+03  0.23872916541E+03  0.12509080300E+03 0.  0.
         24    2    1    2    0    0 -0.37062575114E+02 -0.12022144779E+02  0.14177122158E+04  0.14204748397E+04  0.79515262540E+02 0.  0.
        -11    1    5    5    0    0  0.35625442345E+01 -0.33318597302E+02  0.30846696421E+03  0.31028162797E+03  0.00000000000E+00 0.  1.
         12    1    5    5    0    0 -0.40625119348E+02  0.21296452523E+02  0.11092452515E+04  0.11101932117E+04  0.00000000000E+00 0. -1.
         13    1    3    3    0    0 -0.56280722050E+02 -0.94398526613E+02 -0.10676870971E+04  0.10733286257E+04  0.00000000000E+00 0. -1.
        -14    1    3    3    0    0 -0.10606176047E+01 -0.88517593658E+00 -0.59889777693E+03  0.59889937023E+03  0.00000000000E+00 0.  1.
          5    1    4    4  501    0  0.47753229186E+02  0.81537651769E+02  0.15752271980E+03  0.18373796343E+03  0.41800000000E+01 0.  1.
         -5    1    4    4    0  501  0.46650685582E+02  0.25768195560E+02 -0.12894709274E+02  0.54991201978E+02  0.41800000000E+01 0.  1.
</event>
<event>
11    1  0.8039394E-009  0.1361326E+03  0.7561462E-02  0.1111955E+00
         22   -1    0    0    0    0  0.00000000000E+00  0.00000000000E+00  0.79920299770E+02  0.79920299770E+02  0.00000000000E+00 0.  1.
         22   -1    0    0    0    0 -0.00000000000E+00 -0.00000000000E+00 -0.73344406842E+03  0.73344406842E+03  0.00000000000E+00 0. -1.
         24    2    1    2    0    0  0.78862271052E+00  0.82285795057E+00 -0.53759004942E+03  0.54252901964E+03  0.73029972616E+02 0.  0.
         25    2    1    2    0    0  0.50542157229E+02 -0.17012703552E+02 -0.11838155129E+03  0.18029300729E+03  0.12508970802E+03 0.  0.
        -24    2    1    2    0    0 -0.51330779940E+02  0.16189845602E+02  0.24478320603E+01  0.90542341254E+02  0.72766500590E+02 0.  0.
        -13    1    3    3    0    0  0.42374259611E+01  0.32858938444E+02 -0.15066773694E+03  0.15426740605E+03  0.00000000000E+00 0.  1.
         14    1    3    3    0    0 -0.34488032506E+01 -0.32036080493E+02 -0.38692231248E+03  0.38826161359E+03  0.00000000000E+00 0. -1.
         13    1    5    5    0    0 -0.35088473851E+01  0.20044055917E+02  0.29215200085E+02  0.35603428256E+02  0.00000000000E+00 0. -1.
        -14    1    5    5    0    0 -0.47821932555E+02 -0.38542103150E+01 -0.26767368025E+02  0.54938912998E+02  0.00000000000E+00 0.  1.
          5    1    4    4  501    0 -0.38701811298E+02 -0.12978492237E+02 -0.62730029689E+02  0.74958658494E+02  0.41800000000E+01 0. -1.
         -5    1    4    4    0  501  0.89243968527E+02 -0.40342113151E+01 -0.55651521597E+02  0.10533434879E+03  0.41800000000E+01 0. -1.
</event>
<event>
11    1  0.8039394E-009  0.1667831E+03  0.7561462E-02  0.1080865E+00
         22   -1    0    0    0    0  0.00000000000E+00  0.00000000000E+00  0.16794562759E+04  0.16794562759E+04  0.00000000000E+00 0. -1.
         22   -1    0    0    0    0 -0.00000000000E+00 -0.00000000000E+00 -0.16954442742E+03  0.16954442742E+03  0.00000000000E+00 0. -1.
        -24    2    1    2    0    0 -0.59685606014E+02  0.90360127339E+02 -0.12218626422E+03  0.18117708629E+03  0.78538711823E+02 0.  0.
         25    2    1    2    0    0  0.48594115734E+02 -0.16239660474E+03  0.75111891988E+03  0.78010373580E+03  0.12509261161E+03 0.  0.
         24    2    1    2    0    0  0.11091490280E+02  0.72036477402E+02  0.88097919277E+03  0.88771988120E+03  0.81301747452E+02 0.  0.
        -11    1    5    5    0    0  0.20397754406E+02 -0.11246974019E+02  0.27308401005E+03  0.27407560883E+03  0.00000000000E+00 0.  1.
         12    1    5    5    0    0 -0.93062641253E+01  0.83283451421E+02  0.60789518272E+03  0.61364427237E+03  0.00000000000E+00 0. -1.
         11    1    3    3    0    0 -0.64767884549E+02  0.75528213137E+02 -0.58134994774E+02  0.11523483617E+03  0.00000000000E+00 0. -1.
        -12    1    3    3    0    0  0.50822785349E+01  0.14831914201E+02 -0.64051269445E+02  0.65942250125E+02  0.00000000000E+00 0.  1.
          5    1    4    4  501    0  0.84644331923E+02 -0.84865017300E+02  0.51968842532E+03  0.53334816574E+03  0.41800000000E+01 0. -1.
         -5    1    4    4    0  501 -0.36050216189E+02 -0.77531587441E+02  0.23143049456E+03  0.24675557005E+03  0.41800000000E+01 0. -1.
</event>
<event>
11    1  0.8039394E-009  0.1552905E+03  0.7561462E-02  0.1091592E+00
         22   -1    0    0    0    0  0.00000000000E+00  0.00000000000E+00  0.18006874108E+04  0.18006874108E+04  0.00000000000E+00 0.  1.
         22   -1    0    0    0    0 -0.00000000000E+00 -0.00000000000E+00 -0.14107552403E+04  0.14107552403E+04  0.00000000000E+00 0. -1.
         24    2    1    2    0    0  0.83789121735E+02 -0.40209405446E+02 -0.13759586581E+04  0.13814271891E+04  0.80258560912E+02 0.  0.
         25    2    1    2    0    0 -0.13729862226E+02  0.59407847100E+02  0.12951920631E+03  0.19010728506E+03  0.12509098134E+03 0.  0.
        -24    2    1    2    0    0 -0.70059259509E+02 -0.19198441654E+02  0.16363716223E+04  0.16399081769E+04  0.79434642142E+02 0.  0.
        -11    1    3    3    0    0  0.57572469488E+02  0.40049470542E+01 -0.40296253047E+03  0.40707423132E+03  0.00000000000E+00 0.  1.
         12    1    3    3    0    0  0.26216652248E+02 -0.44214352500E+02 -0.97299612767E+03  0.97435295775E+03  0.00000000000E+00 0. -1.
         13    1    5    5    0    0 -0.27192448944E+02 -0.22938522187E+02  0.21797538108E+03  0.22085939382E+03  0.00000000000E+00 0. -1.
        -14    1    5    5    0    0 -0.42866810565E+02  0.37400805329E+01  0.14183962412E+04  0.14190487831E+04  0.00000000000E+00 0.  1.
          5    1    4    4  501    0 -0.57449927770E+02  0.11319937465E+02  0.10542569940E+03  0.12066766625E+03  0.41800000000E+01 0. -1.
         -5    1    4    4    0  501  0.43720065543E+02  0.48087909635E+02  0.24093506915E+02  0.69439618804E+02  0.41800000000E+01 0. -1.
</event>
<event>
11    1  0.8039394E-009  0.1490994E+03  0.7561462E-02  0.1097803E+00
         22   -1    0    0    0    0  0.00000000000E+00  0.00000000000E+00  0.93335560203E+03  0.93335560203E+03  0.00000000000E+00 0. -1.
         22   -1    0    0    0    0 -0.00000000000E+00 -0.00000000000E+00 -0.50584832693E+03  0.50584832693E+03  0.00000000000E+00 0. -1.
         24    2    1    2    0    0 -0.21623661164E+02  0.22244794336E+02 -0.44230321639E+03  0.45057138842E+03  0.80125072499E+02 0.  0.
         25    2    1    2    0    0  0.56305781518E+01 -0.10058186720E+03  0.60836868985E+02  0.17174819043E+03  0.12509156993E+03 0.  0.
        -24    2    1    2    0    0  0.15993083012E+02  0.78337072861E+02  0.80897362249E+03  0.81688435011E+03  0.80431609889E+02 0.  0.
        -13    1    3    3    0    0 -0.38738610303E+02 -0.15309647603E+02 -0.16312784297E+03  0.16836198618E+03  0.00000000000E+00 0.  1.
         14    1    3    3    0    0  0.17114949139E+02  0.37554441939E+02 -0.27917537341E+03  0.28220940224E+03  0.00000000000E+00 0. -1.
         13    1    5    5    0    0  0.48837243142E+02  0.41836271092E+02  0.45981302774E+03  0.46428802523E+03  0.00000000000E+00 0. -1.
        -14    1    5    5    0    0 -0.32844160130E+02  0.36500801769E+02  0.34916059476E+03  0.35259632488E+03  0.00000000000E+00 0.  1.
          5    1    4    4  501    0  0.29753663740E+02 -0.12173101040E+03  0.60909392783E+02  0.13939564530E+03  0.41800000000E+01 0. -1.
         -5    1    4    4    0  501 -0.24123085589E+02  0.21149143205E+02 -0.72523797685E-01  0.32352545129E+02  0.41800000000E+01 0. -1.
</event>
<event>
11    1  0.8039394E-009  0.1397635E+03  0.7561462E-02  0.1107823E+00
         22   -1    0    0    0    0  0.00000000000E+00  0.00000000000E+00  0.30093679340E+03  0.30093679340E+03  0.00000000000E+00 0. -1.
         22   -1    0    0    0    0 -0.00000000000E+00 -0.00000000000E+00 -0.60023169534E+03  0.60023169534E+03  0.00000000000E+00 0.  1.
        -24    2    1    2    0    0  0.56705034751E+02  0.14977777057E+02 -0.52113966737E+03  0.53091565194E+03  0.82735009446E+02 0.  0.
         25    2    1    2    0    0 -0.10185453112E+03  0.14349798758E+02  0.51110961651E+02  0.16982793929E+03  0.12509570867E+03 0.  0.
         24    2    1    2    0    0  0.45149496369E+02 -0.29327575815E+02  0.17073380379E+03  0.20042489752E+03  0.90119498814E+02 0.  0.
        -13    1    5    5    0    0  0.14378669052E+02  0.20888937461E+02  0.12012672343E+03  0.12277427871E+03  0.00000000000E+00 0.  1.
         14    1    5    5    0    0  0.30770827317E+02 -0.50216513276E+02  0.50607080359E+02  0.77650618812E+02  0.00000000000E+00 0. -1.
         11    1    3    3    0    0  0.36985985931E+02 -0.23316165704E+02 -0.12469553852E+03  0.13213850334E+03  0.00000000000E+00 0. -1.
        -12    1    3    3    0    0  0.19719048820E+02  0.38293942760E+02 -0.39644412886E+03  0.39877714860E+03  0.00000000000E+00 0.  1.
          5    1    4    4  501    0  0.20990516796E+02 -0.86976938795E+01 -0.15805933544E+02  0.27991991880E+02  0.41800000000E+01 0. -1.
         -5    1    4    4    0  501 -0.12284504792E+03  0.23047492638E+02  0.66916895195E+02  0.14183594741E+03  0.41800000000E+01 0. -1.
</event>
<event>
11    1  0.8039394E-009  0.1272649E+03  0.7561462E-02  0.1122676E+00
         22   -1    0    0    0    0  0.00000000000E+00  0.00000000000E+00  0.50734648277E+03  0.50734648277E+03  0.00000000000E+00 0.  1.
         22   -1    0    0    0    0 -0.00000000000E+00 -0.00000000000E+00 -0.45335815283E+03  0.45335815283E+03  0.00000000000E+00 0. -1.
        -24    2    1    2    0    0 -0.16643308813E+00  0.12737997335E+02 -0.41756784880E+03  0.42526285491E+03  0.79519199785E+02 0.  0.
         25    2    1    2    0    0 -0.21823226435E+02 -0.18890277278E+02  0.12623435125E+03  0.18004319551E+03  0.12508934817E+03 0.  0.
         24    2    1    2    0    0  0.21989659523E+02  0.61522799430E+01  0.34532182749E+03  0.35539858518E+03  0.80867757056E+02 0.  0.
        -13    1    5    5    0    0  0.29756105990E+02 -0.28017624608E+02  0.25949676093E+03  0.26269560725E+03  0.00000000000E+00 0.  1.
         14    1    5    5    0    0 -0.77664464667E+01  0.34169904551E+02  0.85825066557E+02  0.92702977931E+02  0.00000000000E+00 0. -1.
         11    1    3    3    0    0  0.16638997606E+02  0.16087157899E+02 -0.40018529606E+03  0.40085399346E+03  0.00000000000E+00 0. -1.
        -12    1    3    3    0    0 -0.16805430695E+02 -0.33491605645E+01 -0.17382552744E+02  0.24408861449E+02  0.00000000000E+00 0.  1.
          5    1    4    4  501    0 -0.63974451256E+02  0.12127924081E+02  0.10455214487E+03  0.12324139058E+03  0.41800000000E+01 0. -1.
         -5    1    4    4    0  501  0.42151224821E+02 -0.31018201359E+02  0.21682206381E+02  0.56801804927E+02  0.41800000000E+01 0. -1.
</event>
<event>
11    1  0.8039394E-009  0.1777959E+03  0.7561462E-02  0.1071440E+00
         22   -1    0    0    0    0  0.00000000000E+00  0.00000000000E+00  0.17189564779E+03  0.17189564779E+03  0.00000000000E+00 0.  1.
         22   -1    0    0    0    0 -0.00000000000E+00 -0.00000000000E+00 -0.20905869889E+04  0.20905869889E+04  0.00000000000E+00 0.  1.
         24    2    1    2    0    0 -0.47780785672E+02 -0.29535591635E+02 -0.18066585334E+04  0.18093134052E+04  0.80278187820E+02 0.  0.
         25    2    1    2    0    0 -0.81723989811E+02 -0.60417651568E+01 -0.21755623444E+03  0.26399563033E+03  0.12509062417E+03 0.  0.
        -24    2    1    2    0    0  0.12950477548E+03  0.35577356792E+02  0.10552342671E+03  0.18917360113E+03  0.81327870927E+02 0.  0.
        -13    1    3    3    0    0  0.16334292942E+02 -0.26730863972E+02 -0.79853073890E+03  0.79914497382E+03  0.00000000000E+00 0.  1.
         14    1    3    3    0    0 -0.64115078614E+02 -0.28047276624E+01 -0.10081277945E+04  0.10101684314E+04  0.00000000000E+00 0. -1.
         13    1    5    5    0    0  0.99764091455E+02  0.25238432908E+02  0.29753673868E+02  0.10712204978E+03  0.00000000000E+00 0. -1.
        -14    1    5    5    0    0  0.29740684028E+02  0.10338923884E+02  0.75769752841E+02  0.82051551351E+02  0.00000000000E+00 0.  1.
          5    1    4    4  501    0 -0.88242043694E+02  0.42477241674E+02 -0.16597190972E+03  0.19275663815E+03  0.41800000000E+01 0. -1.
         -5    1    4    4    0  501  0.65180538826E+01 -0.48519006831E+02 -0.51584324717E+02  0.71238992180E+02  0.41800000000E+01 0. -1.
</event>
<event>
11    1  0.8039394E-009  0.2304127E+03  0.7561462E-02  0.1034884E+00
         22   -1    0    0    0    0  0.00000000000E+00  0.00000000000E+00  0.16890497477E+04  0.16890497477E+04  0.00000000000E+00 0.  1.
         22   -1    0    0    0    0 -0.00000000000E+00 -0.00000000000E+00 -0.16953042408E+03  0.16953042408E+03  0.00000000000E+00 0.  1.
         24    2    1    2    0    0  0.48762349481E+02  0.12012612467E+02 -0.51360513241E+01  0.97985232868E+02  0.83980100333E+02 0.  0.
         25    2    1    2    0    0 -0.23309526915E+03 -0.59770458516E+02  0.55339689890E+02  0.27679487820E+03  0.12508801344E+03 0.  0.
        -24    2    1    2    0    0  0.18433291967E+03  0.47757846049E+02  0.14693156850E+04  0.14838000607E+04  0.80713076210E+02 0.  0.
        -11    1    3    3    0    0  0.40280767643E+02  0.13720919220E+02 -0.42196744169E+02  0.59928032544E+02  0.00000000000E+00 0.  1.
         12    1    3    3    0    0  0.84815818380E+01 -0.17083067535E+01  0.37060692844E+02  0.38057200325E+02  0.00000000000E+00 0. -1.
         13    1    5    5    0    0  0.30429593507E+02  0.35951282209E+02  0.22002983909E+03  0.22501463273E+03  0.00000000000E+00 0. -1.
        -14    1    5    5    0    0  0.15390332617E+03  0.11806563841E+02  0.12492858459E+04  0.12587854279E+04  0.00000000000E+00 0.  1.
          5    1    4    4  501    0 -0.21410090132E+03 -0.37662409447E+02  0.86427152595E+02  0.23397602043E+03  0.41800000000E+01 0. -1.
         -5    1    4    4    0  501 -0.18994367833E+02 -0.22108049069E+02 -0.31087462705E+02  0.42818857767E+02  0.41800000000E+01 0. -1.
</event>
<event>
11    1  0.8039394E-009  0.1871431E+03  0.7561462E-02  0.1064007E+00
         22   -1    0    0    0    0  0.00000000000E+00  0.00000000000E+00  0.58907653819E+03  0.58907653819E+03  0.00000000000E+00 0. -1.
         22   -1    0    0    0    0 -0.00000000000E+00 -0.00000000000E+00 -0.51909307027E+03  0.51909307027E+03  0.00000000000E+00 0.  1.
         24    2    1    2    0    0 -0.11770892245E+02 -0.11357917096E+02 -0.39383458084E+03  0.40229810673E+03  0.80439625952E+02 0.  0.
         25    2    1    2    0    0  0.94179057078E+02 -0.10110117745E+03 -0.27529706863E+02  0.18840545689E+03  0.12509032158E+03 0.  0.
        -24    2    1    2    0    0 -0.82408164833E+02  0.11245909455E+03  0.49134775562E+03  0.51746604484E+03  0.83128436930E+02 0.  0.
        -11    1    3    3    0    0  0.91695483793E+01 -0.25111987510E+02 -0.35549345923E+03  0.35649725398E+03  0.00000000000E+00 0.  1.
         12    1    3    3    0    0 -0.20940440624E+02  0.13754070414E+02 -0.38341121608E+02  0.45800852750E+02  0.00000000000E+00 0. -1.
         13    1    5    5    0    0 -0.95769817887E+02  0.10723687407E+03  0.40120754253E+03  0.42619138583E+03  0.00000000000E+00 0. -1.
        -14    1    5    5    0    0  0.13361653054E+02  0.52222204714E+01  0.90140213095E+02  0.91274659001E+02  0.00000000000E+00 0.  1.
          5    1    4    4  501    0  0.46328685331E+02 -0.63605433084E+01 -0.61054953400E+02  0.77019369838E+02  0.41800000000E+01 0.  1.
         -5    1    4    4    0  501  0.47850371747E+02 -0.94740634142E+02  0.33525246537E+02  0.11138608705E+03  0.41800000000E+01 0.  1.
</event>
<event>
11    1  0.8039394E-009  0.1509831E+03  0.7561462E-02  0.1095878E+00
         22   -1    0    0    0    0  0.00000000000E+00  0.00000000000E+00  0.24627584725E+03  0.24627584725E+03  0.00000000000E+00 0.  1.
         22   -1    0    0    0    0 -0.00000000000E+00 -0.00000000000E+00 -0.19403206005E+04  0.19403206005E+04  0.00000000000E+00 0.  1.
        -24    2    1    2    0    0 -0.29513824199E+02 -0.24703001044E+02 -0.17601637335E+04  0.17624179501E+04  0.80370129700E+02 0.  0.
         25    2    1    2    0    0 -0.22338938942E+02  0.91262356554E+02 -0.12511880614E+03  0.20031616850E+03  0.12507600008E+03 0.  0.
         24    2    1    2    0    0  0.51852763141E+02 -0.66559355510E+02  0.19123778644E+03  0.22386232918E+03  0.80147330663E+02 0.  0.
        -13    1    5    5    0    0  0.61579870530E+02 -0.75216089327E+02  0.18591520942E+03  0.20979515161E+03  0.00000000000E+00 0.  1.
         14    1    5    5    0    0 -0.97271073882E+01  0.86567338169E+01  0.53225770217E+01  0.14067177566E+02  0.00000000000E+00 0. -1.
         13    1    3    3    0    0 -0.46244132321E+02 -0.45774476919E+01 -0.54653008970E+03  0.54850215291E+03  0.00000000000E+00 0. -1.
        -14    1    3    3    0    0  0.16730308122E+02 -0.20125553352E+02 -0.12136336438E+04  0.12139157972E+04  0.00000000000E+00 0.  1.
          5    1    4    4  501    0 -0.47556295513E+02  0.14569565318E+02  0.16776764325E+01  0.49941570607E+02  0.41800000000E+01 0.  1.
         -5    1    4    4    0  501  0.25217356570E+02  0.76692791236E+02 -0.12679648257E+03  0.15037459789E+03  0.41800000000E+01 0.  1.
</event>
<event>
11    1  0.8039394E-009  0.2255880E+03  0.7561462E-02  0.1037772E+00
         22   -1    0    0    0    0  0.00000000000E+00  0.00000000000E+00  0.27865802469E+04  0.27865802469E+04  0.00000000000E+00 0.  1.
         22   -1    0    0    0    0 -0.00000000000E+00 -0.00000000000E+00 -0.90962125722E+03  0.90962125722E+03  0.00000000000E+00 0.  1.
         24    2    1    2    0    0  0.11974922092E+02 -0.65527240085E+02 -0.88731220571E+03  0.89342237097E+03  0.80270571166E+02 0.  0.
         25    2    1    2    0    0 -0.90238870253E+02 -0.12338243572E+03  0.71565464501E+03  0.74241182653E+03  0.12508984809E+03 0.  0.
        -24    2    1    2    0    0  0.78263948161E+02  0.18890967581E+03  0.20486165504E+04  0.20603673066E+04  0.80445985006E+02 0.  0.
        -13    1    3    3    0    0 -0.27204777625E+02 -0.12187850203E+02 -0.46511665086E+03  0.46607096297E+03  0.00000000000E+00 0.  1.
         14    1    3    3    0    0  0.39179699717E+02 -0.53339389881E+02 -0.42219555485E+03  0.42735140800E+03  0.00000000000E+00 0. -1.
         13    1    5    5    0    0 -0.11125407705E+02  0.28032541198E+02  0.16105182901E+03  0.16385142565E+03  0.00000000000E+00 0. -1.
        -14    1    5    5    0    0  0.89389355867E+02  0.16087713461E+03  0.18875647214E+04  0.18965158810E+04  0.00000000000E+00 0.  1.
          5    1    4    4  501    0 -0.46335296505E+02 -0.20824084143E+02  0.46787907902E+03  0.47064732780E+03  0.41800000000E+01 0.  1.
         -5    1    4    4    0  501 -0.43903573748E+02 -0.10255835158E+03  0.24777556600E+03  0.27176449873E+03  0.41800000000E+01 0.  1.
</event>
<event>
11    1  0.8039394E-009  0.1478408E+03  0.7561462E-02  0.1099106E+00
         22   -1    0    0    0    0  0.00000000000E+00  0.00000000000E+00  0.84948070810E+03  0.84948070810E+03  0.00000000000E+00 0. -1.
         22   -1    0    0    0    0 -0.00000000000E+00 -0.00000000000E+00 -0.12275147388E+03  0.12275147388E+03  0.00000000000E+00 0. -1.
         24    2    1    2    0    0 -0.44280894371E+02  0.57270937907E+02 -0.57134921027E+02  0.12181008212E+03  0.79577251595E+02 0.  0.
         25    2    1    2    0    0  0.10850095495E+03 -0.15697893457E+02  0.22855176434E+03  0.28267145359E+03  0.12509340753E+03 0.  0.
        -24    2    1    2    0    0 -0.64220060577E+02 -0.41573044450E+02  0.55531239091E+03  0.56775064627E+03  0.90091124089E+02 0.  0.
        -11    1    3    3    0    0  0.16153648436E+01 -0.18726949386E+02 -0.97541076011E+01  0.21176653465E+02  0.00000000000E+00 0.  1.
         12    1    3    3    0    0 -0.45896259214E+02  0.75997887293E+02 -0.47380813426E+02  0.10063342866E+03  0.00000000000E+00 0. -1.
         13    1    5    5    0    0 -0.70123501010E+02 -0.37615445781E+02  0.55495846737E+03  0.56063457587E+03  0.00000000000E+00 0. -1.
        -14    1    5    5    0    0  0.59034404331E+01 -0.39575986691E+01  0.35392354502E+00  0.71160704078E+01  0.00000000000E+00 0.  1.
          5    1    4    4  501    0  0.60954804018E+02  0.48552193704E+02  0.15694231651E+03  0.17527454680E+03  0.41800000000E+01 0.  1.
         -5    1    4    4    0  501  0.47546150930E+02 -0.64250087161E+02  0.71609447830E+02  0.10739690678E+03  0.41800000000E+01 0.  1.
</event>
<event>
11    1  0.8039394E-009  0.1378620E+03  0.7561462E-02  0.1109970E+00
         22   -1    0    0    0    0  0.00000000000E+00  0.00000000000E+00  0.66562260225E+03  0.66562260225E+03  0.00000000000E+00 0.  1.
         22   -1    0    0    0    0 -0.00000000000E+00 -0.00000000000E+00 -0.17785493354E+04  0.17785493354E+04  0.00000000000E+00 0.  1.
         24    2    1    2    0    0 -0.25642808295E+02  0.13090498691E+02 -0.16928579375E+04  0.16950680395E+04  0.81601146944E+02 0.  0.
         25    2    1    2    0    0  0.59604539560E+02  0.33548273730E+02 -0.17373259963E+02  0.14363257097E+03  0.12510114897E+03 0.  0.
        -24    2    1    2    0    0 -0.33961731265E+02 -0.46638772421E+02  0.59730446430E+03  0.60547132719E+03  0.80587410254E+02 0.  0.
        -13    1    3    3    0    0  0.15483958899E+01  0.31972397073E+02 -0.13965167589E+04  0.13968835634E+04  0.00000000000E+00 0.  1.
         14    1    3    3    0    0 -0.27191204184E+02 -0.18881898382E+02 -0.29634117864E+03  0.29818447618E+03  0.00000000000E+00 0. -1.
         13    1    5    5    0    0  0.65025117320E+01 -0.24794086096E+01  0.21117074148E+01  0.72725122264E+01  0.00000000000E+00 0. -1.
        -14    1    5    5    0    0 -0.40464242997E+02 -0.44159363811E+02  0.59519275689E+03  0.59819881497E+03  0.00000000000E+00 0.  1.
          5    1    4    4  501    0 -0.83694946654E+01  0.56697449144E+02 -0.37893561082E+02  0.68833447915E+02  0.41800000000E+01 0.  1.
         -5    1    4    4    0  501  0.67974034225E+02 -0.23149175414E+02  0.20520301118E+02  0.74799123051E+02  0.41800000000E+01 0.  1.
</event>
<event>
11    1  0.8039394E-009  0.2131818E+03  0.7561462E-02  0.1045575E+00
         22   -1    0    0    0    0  0.00000000000E+00  0.00000000000E+00  0.27923423500E+04  0.27923423500E+04  0.00000000000E+00 0. -1.
         22   -1    0    0    0    0 -0.00000000000E+00 -0.00000000000E+00 -0.92252214145E+02  0.92252214145E+02  0.00000000000E+00 0. -1.
        -24    2    1    2    0    0  0.17542538211E+03 -0.22779886710E+00  0.31704019777E+02  0.19616936652E+03  0.81872821549E+02 0.  0.
         25    2    1    2    0    0 -0.14654705848E+03 -0.15127875873E+02  0.10438870067E+04  0.10616295445E+04  0.12510920799E+03 0.  0.
         24    2    1    2    0    0 -0.28878323630E+02  0.15355674740E+02  0.16244991093E+04  0.16267956531E+04  0.79981163394E+02 0.  0.
        -11    1    5    5    0    0 -0.38391048531E+02 -0.17153742753E+02  0.49310351864E+03  0.49489312340E+03  0.00000000000E+00 0.  1.
         12    1    5    5    0    0  0.95127249010E+01  0.32509417493E+02  0.11313955907E+04  0.11319025297E+04  0.00000000000E+00 0. -1.
         11    1    3    3    0    0  0.17514026514E+03 -0.11842173872E+01  0.11051336525E+02  0.17549258356E+03  0.00000000000E+00 0. -1.
        -12    1    3    3    0    0  0.28511697058E+00  0.95641852010E+00  0.20652683252E+02  0.20676782960E+02  0.00000000000E+00 0.  1.
          5    1    4    4  501    0 -0.15086662148E+03 -0.43991994965E+01  0.10361654585E+04  0.10471086000E+04  0.41800000000E+01 0. -1.
         -5    1    4    4    0  501  0.43195630018E+01 -0.10728676376E+02  0.77215482359E+01  0.14520944476E+02  0.41800000000E+01 0. -1.
</event>
<event>
11    1  0.8039394E-009  0.1340504E+03  0.7561462E-02  0.1114390E+00
         22   -1    0    0    0    0  0.00000000000E+00  0.00000000000E+00  0.50900135647E+03  0.50900135647E+03  0.00000000000E+00 0.  1.
         22   -1    0    0    0    0 -0.00000000000E+00 -0.00000000000E+00 -0.54529950407E+03  0.54529950407E+03  0.00000000000E+00 0. -1.
         24    2    1    2    0    0 -0.28926822211E+02 -0.41738125157E+02 -0.46702968836E+03  0.47655731588E+03  0.80070677391E+02 0.  0.
         25    2    1    2    0    0  0.24413472138E+02  0.23066882465E+01 -0.10192942720E+02  0.12787947266E+03  0.12509166644E+03 0.  0.
        -24    2    1    2    0    0  0.45133500733E+01  0.39431436911E+02  0.44092448348E+03  0.44986407201E+03  0.79925431505E+02 0.  0.
        -11    1    3    3    0    0  0.13436637147E+02 -0.22503478460E+02 -0.45825550321E+02  0.52791389665E+02  0.00000000000E+00 0.  1.
         12    1    3    3    0    0 -0.42363459358E+02 -0.19234646698E+02 -0.42120413804E+03  0.42376592622E+03  0.00000000000E+00 0. -1.
         13    1    5    5    0    0  0.19322299087E+02  0.41058881502E+02  0.11543708663E+03  0.12403589787E+03  0.00000000000E+00 0. -1.
        -14    1    5    5    0    0 -0.14808949014E+02 -0.16274445908E+01  0.32548739686E+03  0.32582817413E+03  0.00000000000E+00 0.  1.
          5    1    4    4  501    0  0.45582727611E+02 -0.25985455438E+02 -0.51308379771E+02  0.73505450040E+02  0.41800000000E+01 0.  1.
         -5    1    4    4    0  501 -0.21169255473E+02  0.28292143685E+02  0.41115437052E+02  0.54374022617E+02  0.41800000000E+01 0.  1.
</event>
<event>
11    1  0.8039394E-009  0.1632424E+03  0.7561462E-02  0.1084067E+00
         22   -1    0    0    0    0  0.00000000000E+00  0.00000000000E+00  0.14307420189E+03  0.14307420189E+03  0.00000000000E+00 0.  1.
         22   -1    0    0    0    0 -0.00000000000E+00 -0.00000000000E+00 -0.28820743100E+04  0.28820743100E+04  0.00000000000E+00 0.  1.
         24    2    1    2    0    0 -0.51021120630E+01  0.26456576431E+01 -0.27017875914E+04  0.27029653288E+04  0.79576056953E+02 0.  0.
         25    2    1    2    0    0  0.30584168073E+02 -0.10339016143E+03 -0.84311070487E+02  0.18542562384E+03  0.12509751617E+03 0.  0.
        -24    2    1    2    0    0 -0.25482056010E+02  0.10074450379E+03  0.47098553716E+02  0.13675755926E+03  0.75402692472E+02 0.  0.
        -13    1    3    3    0    0 -0.34270588822E+02  0.25506434616E+02 -0.14586136550E+04  0.14592391326E+04  0.00000000000E+00 0.  1.
         14    1    3    3    0    0  0.29168476759E+02 -0.22860776973E+02 -0.12431739363E+04  0.12437261962E+04  0.00000000000E+00 0. -1.
         11    1    5    5    0    0  0.50758180158E+01  0.49548484000E+02 -0.13644328417E+02  0.51642849391E+02  0.00000000000E+00 0. -1.
        -12    1    5    5    0    0 -0.30557874026E+02  0.51196019786E+02  0.60742882134E+02  0.85114709873E+02  0.00000000000E+00 0.  1.
          5    1    4    4  501    0  0.11363117968E+02 -0.21635551457E+02 -0.97239005225E+02  0.10034995802E+03  0.41800000000E+01 0.  1.
         -5    1    4    4    0  501  0.19221050106E+02 -0.81754609972E+02  0.12927934738E+02  0.85075665824E+02  0.41800000000E+01 0.  1.
</event>
<event>
11    1  0.8039394E-009  0.1562800E+03  0.7561462E-02  0.1090629E+00
         22   -1    0    0    0    0  0.00000000000E+00  0.00000000000E+00  0.12931711076E+04  0.12931711076E+04  0.00000000000E+00 0. -1.
         22   -1    0    0    0    0 -0.00000000000E+00 -0.00000000000E+00 -0.20718998090E+04  0.20718998090E+04  0.00000000000E+00 0. -1.
         24    2    1    2    0    0 -0.87970217617E+02 -0.33187951482E+02 -0.20304232418E+04  0.20340965131E+04  0.78037711315E+02 0.  0.
         25    2    1    2    0    0  0.24377830621E+01  0.82598948874E+02  0.11966794304E+03  0.19183341859E+03  0.12510441540E+03 0.  0.
        -24    2    1    2    0    0  0.85532434555E+02 -0.49410997393E+02  0.11320265973E+04  0.11391409850E+04  0.80004516557E+02 0.  0.
        -11    1    3    3    0    0 -0.75356678522E+01  0.93861660074E+01 -0.44801663272E+02  0.46390467062E+02  0.00000000000E+00 0.  1.
         12    1    3    3    0    0 -0.80434549765E+02 -0.42574117489E+02 -0.19856215785E+04  0.19877060460E+04  0.00000000000E+00 0. -1.
         13    1    5    5    0    0  0.38358092575E+02 -0.11251860711E+02  0.83625671352E+03  0.83721158529E+03  0.00000000000E+00 0. -1.
        -14    1    5    5    0    0  0.47174341980E+02 -0.38159136681E+02  0.29576988378E+03  0.30192939970E+03  0.00000000000E+00 0.  1.
          5    1    4    4  501    0 -0.52894531374E+02  0.42869159000E+02  0.99559258438E+02  0.12068601652E+03  0.41800000000E+01 0. -1.
         -5    1    4    4    0  501  0.55332314437E+02  0.39729789874E+02  0.20108684605E+02  0.71147402067E+02  0.41800000000E+01 0. -1.
</event>
<event>
11    1  0.8039394E-009  0.1523209E+03  0.7561462E-02  0.1094531E+00
         22   -1    0    0    0    0  0.00000000000E+00  0.00000000000E+00  0.45510280087E+03  0.45510280087E+03  0.00000000000E+00 0. -1.
         22   -1    0    0    0    0 -0.00000000000E+00 -0.00000000000E+00 -0.45670795155E+03  0.45670795155E+03  0.00000000000E+00 0. -1.
         24    2    1    2    0    0 -0.42603629041E+02  0.79696882634E+02 -0.40061021083E+03  0.41850082174E+03  0.80546473971E+02 0.  0.
         25    2    1    2    0    0 -0.29371424407E+02 -0.55208375906E+02  0.95304681768E+02  0.16923698785E+03  0.12509008893E+03 0.  0.
        -24    2    1    2    0    0  0.71975053447E+02 -0.24488506727E+02  0.30370037838E+03  0.32407294282E+03  0.83721306494E+02 0.  0.
        -11    1    3    3    0    0 -0.85110432346E+01 -0.59534778996E+01 -0.37004608132E+01  0.11026112927E+02  0.00000000000E+00 0.  1.
         12    1    3    3    0    0 -0.34092585806E+02  0.85650360533E+02 -0.39690975002E+03  0.40747470881E+03  0.00000000000E+00 0. -1.
         13    1    5    5    0    0  0.57871146661E+02 -0.10912570511E+02  0.29788609902E+03  0.30365157961E+03  0.00000000000E+00 0. -1.
        -14    1    5    5    0    0  0.14103906786E+02 -0.13575936217E+02  0.58142793550E+01  0.20421363207E+02  0.00000000000E+00 0.  1.
          5    1    4    4  501    0 -0.31543265896E+02 -0.94324878603E+02  0.76687841645E+02  0.12566088414E+03  0.41800000000E+01 0.  1.
         -5    1    4    4    0  501  0.21718414895E+01  0.39116502696E+02  0.18616840124E+02  0.43576103713E+02  0.41800000000E+01 0.  1.
</event>
<event>
11    1  0.8039394E-009  0.2002393E+03  0.7561462E-02  0.1054355E+00
         22   -1    0    0    0    0  0.00000000000E+00  0.00000000000E+00  0.67472666641E+03  0.67472666641E+03  0.00000000000E+00 0. -1.
         22   -1    0    0    0    0 -0.00000000000E+00 -0.00000000000E+00 -0.55156864082E+03  0.55156864082E+03  0.00000000000E+00 0.  1.
        -24    2    1    2    0    0  0.51705295775E+02 -0.15454293250E+02 -0.47453230824E+03  0.48425145826E+03  0.80039305825E+02 0.  0.
         25    2    1    2    0    0 -0.15934588234E+03  0.11282975961E+03  0.18561720462E+03  0.29702459476E+03  0.12509275906E+03 0.  0.
         24    2    1    2    0    0  0.10764058656E+03 -0.97375466363E+02  0.41207312921E+03  0.44501925421E+03  0.84672282834E+02 0.  0.
        -11    1    5    5    0    0  0.42749882295E+02 -0.86629647478E+02  0.18625508765E+03  0.20981707732E+03  0.00000000000E+00 0.  1.
         12    1    5    5    0    0  0.64890704265E+02 -0.10745818885E+02  0.22581804155E+03  0.23520217689E+03  0.00000000000E+00 0. -1.
         13    1    3    3    0    0  0.13035447015E+02 -0.75062311957E+01 -0.10041181661E+02  0.18085677062E+02  0.00000000000E+00 0. -1.
        -14    1    3    3    0    0  0.38669848760E+02 -0.79480620546E+01 -0.46449112658E+03  0.46616578120E+03  0.00000000000E+00 0.  1.
          5    1    4    4  501    0 -0.77137691485E+02 -0.16105572023E+02  0.62776069209E+02  0.10083610545E+03  0.41800000000E+01 0.  1.
         -5    1    4    4    0  501 -0.82208190850E+02  0.12893533164E+03  0.12284113542E+03  0.19618848931E+03  0.41800000000E+01 0.  1.
</event>
<event>
11    1  0.8039394E-009  0.1478479E+03  0.7561462E-02  0.1099098E+00
         22   -1    0    0    0    0  0.00000000000E+00  0.00000000000E+00  0.62138933563E+03  0.62138933563E+03  0.00000000000E+00 0.  1.
         22   -1    0    0    0    0 -0.00000000000E+00 -0.00000000000E+00 -0.28098269969E+03  0.28098269969E+03  0.00000000000E+00 0. -1.
        -24    2    1    2    0    0  0.41192894710E+02  0.18673787312E+00 -0.23682004920E+03  0.25336598519E+03  0.80085562376E+02 0.  0.
         25    2    1    2    0    0  0.25119716866E+02  0.54181967467E+02  0.14458242099E+03  0.20029658306E+03  0.12509180209E+03 0.  0.
         24    2    1    2    0    0 -0.66312611576E+02 -0.54368705340E+02  0.43264426416E+03  0.44870946708E+03  0.82497320966E+02 0.  0.
        -11    1    5    5    0    0 -0.76135230253E+02 -0.64221207039E+02  0.41161412283E+03  0.42349394663E+03  0.00000000000E+00 0.  1.
         12    1    5    5    0    0  0.98226186770E+01  0.98525016996E+01  0.21030141327E+02  0.25215520452E+02  0.00000000000E+00 0. -1.
         11    1    3    3    0    0  0.11507520848E+02 -0.68339432106E+00 -0.21778783669E+03  0.21809271394E+03  0.00000000000E+00 0. -1.
        -12    1    3    3    0    0  0.29685373861E+02  0.87013219418E+00 -0.19032212508E+02  0.35273271244E+02  0.00000000000E+00 0.  1.
          5    1    4    4  501    0  0.37007708476E+02 -0.17355804457E+02  0.11454569543E+03  0.12169216563E+03  0.41800000000E+01 0.  1.
         -5    1    4    4    0  501 -0.11887991609E+02  0.71537771924E+02  0.30036725563E+02  0.78604417426E+02  0.41800000000E+01 0.  1.
</event>
<event>
11    1  0.8039394E-009  0.1423208E+03  0.7561462E-02  0.1104994E+00
         22   -1    0    0    0    0  0.00000000000E+00  0.00000000000E+00  0.23755788026E+03  0.23755788026E+03  0.00000000000E+00 0.  1.
         22   -1    0    0    0    0 -0.00000000000E+00 -0.00000000000E+00 -0.55020508047E+03  0.55020508047E+03  0.00000000000E+00 0.  1.
         24    2    1    2    0    0  0.39124121095E+02  0.47379995652E+02 -0.29690300414E+03  0.31354427016E+03  0.79894021324E+02 0.  0.
         25    2    1    2    0    0  0.27842532872E+01 -0.99703765663E+02 -0.20374877050E+03  0.25907275292E+03  0.12512608391E+03 0.  0.
        -24    2    1    2    0    0 -0.41908374382E+02  0.52323770011E+02  0.18800457443E+03  0.21514593765E+03  0.80299226223E+02 0.  0.
        -13    1    3    3    0    0  0.38141564388E+02  0.69163693845E+02 -0.23222242249E+03  0.24528687080E+03  0.00000000000E+00 0.  1.
         14    1    3    3    0    0  0.98255670658E+00 -0.21783698193E+02 -0.64680581652E+02  0.68257399361E+02  0.00000000000E+00 0. -1.
         13    1    5    5    0    0 -0.25736111777E+02  0.35481272115E+02  0.24965811918E+02  0.50443630768E+02  0.00000000000E+00 0. -1.
        -14    1    5    5    0    0 -0.16172262604E+02  0.16842497896E+02  0.16303876251E+03  0.16470230689E+03  0.00000000000E+00 0.  1.
          5    1    4    4  501    0 -0.22336507539E+02 -0.92721687669E+01  0.92866269127E+01  0.26241313269E+02  0.41800000000E+01 0. -1.
         -5    1    4    4    0  501  0.25120760826E+02 -0.90431596896E+02 -0.21303539741E+03  0.23283143965E+03  0.41800000000E+01 0. -1.
</event>
<event>
11    1  0.8039394E-009  0.2029763E+03  0.7561462E-02  0.1052439E+00
         22   -1    0    0    0    0  0.00000000000E+00  0.00000000000E+00  0.13217944796E+04  0.13217944796E+04  0.00000000000E+00 0.  1.
         22   -1    0    0    0    0 -0.00000000000E+00 -0.00000000000E+00 -0.19028248965E+03  0.19028248965E+03  0.00000000000E+00 0.  1.
         24    2    1    2    0    0 -0.15382920475E+02  0.23112435328E+02 -0.11027091582E+03  0.14162568812E+03  0.84423585276E+02 0.  0.
         25    2    1    2    0    0  0.15908691578E+03  0.45738014599E+02  0.13347530551E+03  0.24670785036E+03  0.12509393869E+03 0.  0.
        -24    2    1    2    0    0 -0.14370399531E+03 -0.68850449927E+02  0.11083076003E+04  0.11237434308E+04  0.95196316516E+02 0.  0.
        -13    1    3    3    0    0 -0.30077347662E+02 -0.14335409798E+02 -0.91220772725E+02  0.97115293302E+02  0.00000000000E+00 0.  1.
         14    1    3    3    0    0  0.14694427187E+02  0.37447845126E+02 -0.19050143090E+02  0.44510394816E+02  0.00000000000E+00 0. -1.
         11    1    5    5    0    0  0.15551599058E+01  0.72288868747E-01  0.27843130707E+03  0.27843565954E+03  0.00000000000E+00 0. -1.
        -12    1    5    5    0    0 -0.14525915521E+03 -0.68922738796E+02  0.82987629319E+03  0.84530777122E+03  0.00000000000E+00 0.  1.
          5    1    4    4  501    0  0.16038614719E+03  0.20980786344E+02  0.66086855620E+02  0.17478230600E+03  0.41800000000E+01 0.  1.
         -5    1    4    4    0  501 -0.12992314053E+01  0.24757228255E+02  0.67388449887E+02  0.71925544359E+02  0.41800000000E+01 0.  1.
</event>
<event>
11    1  0.8039394E-009  0.1860461E+03  0.7561462E-02  0.1064855E+00
         22   -1    0    0    0    0  0.00000000000E+00  0.00000000000E+00  0.37514816497E+03  0.37514816497E+03  0.00000000000E+00 0.  1.
         22   -1    0    0    0    0 -0.00000000000E+00 -0.00000000000E+00 -0.12331824807E+04  0.12331824807E+04  0.00000000000E+00 0.  1.
         24    2    1    2    0    0  0.10511841851E+02 -0.14153368945E+03 -0.10818208995E+04  0.10939464095E+04  0.78993696563E+02 0.  0.
         25    2    1    2    0    0  0.15562817660E+02  0.10536253662E+03 -0.90795061680E+02  0.18770474072E+03  0.12508341636E+03 0.  0.
        -24    2    1    2    0    0 -0.26074659511E+02  0.36171152833E+02  0.31458164547E+03  0.32667949547E+03  0.75958152473E+02 0.  0.
        -13    1    3    3    0    0  0.37286406856E+00 -0.14951777594E+03 -0.99758771185E+03  0.10087303640E+04  0.00000000000E+00 0.  1.
         14    1    3    3    0    0  0.10138977782E+02  0.79840864868E+01 -0.84233187697E+02  0.85216045538E+02  0.00000000000E+00 0. -1.
         11    1    5    5    0    0  0.97702004833E+01  0.28854598254E+02  0.43303277403E+02  0.52945429375E+02  0.00000000000E+00 0. -1.
        -12    1    5    5    0    0 -0.35844859994E+02  0.73165545790E+01  0.27127836807E+03  0.27373406609E+03  0.00000000000E+00 0.  1.
          5    1    4    4  501    0  0.25325561548E+02  0.47694443930E+02 -0.11275548027E+03  0.12508962699E+03  0.41800000000E+01 0.  1.
         -5    1    4    4    0  501 -0.97627438882E+01  0.57668092690E+02  0.21960418592E+02  0.62615113730E+02  0.41800000000E+01 0.  1.
</event>
<event>
11    1  0.8039394E-009  0.2221344E+03  0.7561462E-02  0.1039889E+00
         22   -1    0    0    0    0  0.00000000000E+00  0.00000000000E+00  0.16318450379E+04  0.16318450379E+04  0.00000000000E+00 0. -1.
         22   -1    0    0    0    0 -0.00000000000E+00 -0.00000000000E+00 -0.14152784814E+04  0.14152784814E+04  0.00000000000E+00 0.  1.
         24    2    1    2    0    0 -0.14297783262E+03 -0.11222967649E+03 -0.13367249766E+04  0.13514408294E+04  0.80749558432E+02 0.  0.
         25    2    1    2    0    0  0.22593999848E+03  0.13065168811E+03  0.23690383186E+03  0.37401660688E+03  0.12508497175E+03 0.  0.
        -24    2    1    2    0    0 -0.82962165853E+02 -0.18422011618E+02  0.13163877013E+04  0.13216660830E+04  0.81869184119E+02 0.  0.
        -13    1    3    3    0    0 -0.10268423401E+03 -0.10097681989E+03 -0.78272931028E+03  0.79586779256E+03  0.00000000000E+00 0.  1.
         14    1    3    3    0    0 -0.40293598609E+02 -0.11252856599E+02 -0.55399566636E+03  0.55557303680E+03  0.00000000000E+00 0. -1.
         11    1    5    5    0    0 -0.84521405147E+02 -0.25829308505E+02  0.13050166641E+04  0.13080059307E+04  0.00000000000E+00 0. -1.
        -12    1    5    5    0    0  0.15592392941E+01  0.74072968876E+01  0.11371037249E+02  0.13660152359E+02  0.00000000000E+00 0.  1.
          5    1    4    4  501    0  0.60299277805E+02  0.67398310631E+02  0.18037040817E+02  0.92311117538E+02  0.41800000000E+01 0.  1.
         -5    1    4    4    0  501  0.16564072067E+03  0.63253377478E+02  0.21886679104E+03  0.28170548934E+03  0.41800000000E+01 0.  1.
</event>
<event>
11    1  0.8039394E-009  0.1297391E+03  0.7561462E-02  0.1119590E+00
         22   -1    0    0    0    0  0.00000000000E+00  0.00000000000E+00  0.12590625583E+04  0.12590625583E+04  0.00000000000E+00 0.  1.
         22   -1    0    0    0    0 -0.00000000000E+00 -0.00000000000E+00 -0.28228198368E+03  0.28228198368E+03  0.00000000000E+00 0. -1.
         24    2    1    2    0    0  0.33588006858E+01  0.11269068702E+02 -0.20265634869E+03  0.21775827015E+03  0.78808597901E+02 0.  0.
         25    2    1    2    0    0 -0.17271317508E+02  0.20433431036E+02 -0.12554783351E+02  0.12853098014E+03  0.12508703674E+03 0.  0.
        -24    2    1    2    0    0  0.13912516822E+02 -0.31702499738E+02  0.11919917066E+04  0.11950552917E+04  0.78194084508E+02 0.  0.
        -13    1    3    3    0    0  0.31592726776E+02 -0.11508795448E+02 -0.46132101139E+02  0.57085230256E+02  0.00000000000E+00 0.  1.
         14    1    3    3    0    0 -0.28233926091E+02  0.22777864150E+02 -0.15652424755E+03  0.16067303989E+03  0.00000000000E+00 0. -1.
         11    1    5    5    0    0 -0.15936163039E+02  0.19925506647E+02  0.40982163726E+03  0.41061510137E+03  0.00000000000E+00 0. -1.
        -12    1    5    5    0    0  0.29848679862E+02 -0.51628006385E+02  0.78217006939E+03  0.78444019032E+03  0.00000000000E+00 0.  1.
          5    1    4    4  501    0 -0.33896146532E+02 -0.46603120275E+02  0.20446106659E+01  0.57813946430E+02  0.41800000000E+01 0.  1.
         -5    1    4    4    0  501  0.16624829024E+02  0.67036551311E+02 -0.14599394016E+02  0.70717033714E+02  0.41800000000E+01 0.  1.
</event>
<event>
11    1  0.8039394E-009  0.1588575E+03  0.7561462E-02  0.1088157E+00
         22   -1    0    0    0    0  0.00000000000E+00  0.00000000000E+00  0.13951715746E+04  0.13951715746E+04  0.00000000000E+00 0.  1.
         22   -1    0    0    0    0 -0.00000000000E+00 -0.00000000000E+00 -0.33366836326E+03  0.33366836326E+03  0.00000000000E+00 0. -1.
        -24    2    1    2    0    0  0.20585097115E+02  0.51032921316E+00 -0.31304768564E+03  0.32355964592E+03  0.79170602664E+02 0.  0.
         25    2    1    2    0    0  0.21011545791E+02  0.91323578192E+02  0.59870708260E+03  0.61877247424E+03  0.12509085954E+03 0.  0.
         24    2    1    2    0    0 -0.41596642907E+02 -0.91833907405E+02  0.77584381436E+03  0.78650781768E+03  0.80605060200E+02 0.  0.
        -13    1    5    5    0    0 -0.44602300369E+02 -0.66448555067E+02  0.72688396774E+03  0.73127633506E+03  0.00000000000E+00 0.  1.
         14    1    5    5    0    0  0.30056574623E+01 -0.25385352338E+02  0.48959846625E+02  0.55231482613E+02  0.00000000000E+00 0. -1.
         11    1    3    3    0    0  0.44823926567E+02  0.40053996909E+01 -0.27249481786E+03  0.27618590366E+03  0.00000000000E+00 0. -1.
        -12    1    3    3    0    0 -0.24238829452E+02 -0.34950704777E+01 -0.40552867777E+02  0.47373742261E+02  0.00000000000E+00 0.  1.
          5    1    4    4  501    0  0.59149751523E+02  0.35026413223E+01  0.26505676977E+03  0.27163123017E+03  0.41800000000E+01 0. -1.
         -5    1    4    4    0  501 -0.38138205732E+02  0.87820936869E+02  0.33365031283E+03  0.34714124407E+03  0.41800000000E+01 0. -1.
</event>
<event>
11    1  0.8039394E-009  0.1356153E+03  0.7561462E-02  0.1112556E+00
         22   -1    0    0    0    0  0.00000000000E+00  0.00000000000E+00  0.54857691954E+03  0.54857691954E+03  0.00000000000E+00 0. -1.
         22   -1    0    0    0    0 -0.00000000000E+00 -0.00000000000E+00 -0.10043570572E+03  0.10043570572E+03  0.00000000000E+00 0. -1.
        -24    2    1    2    0    0  0.38093607957E+02  0.14359488919E+02 -0.30484082832E+01  0.92892668880E+02  0.83441220326E+02 0.  0.
         25    2    1    2    0    0 -0.83234390792E+02  0.49181573461E+01  0.74142858267E+02  0.16762112589E+03  0.12509007287E+03 0.  0.
         24    2    1    2    0    0  0.45140782835E+02 -0.19277646265E+02  0.37704676384E+03  0.38849883049E+03  0.79735570779E+02 0.  0.
        -11    1    5    5    0    0 -0.17641134730E+02  0.97748204796E+01  0.44857119547E+02  0.49182496114E+02  0.00000000000E+00 0.  1.
         12    1    5    5    0    0  0.62781917565E+02 -0.29052466745E+02  0.33218964429E+03  0.33931633437E+03  0.00000000000E+00 0. -1.
         13    1    3    3    0    0 -0.10082306407E+02  0.90541673029E+01 -0.33167757838E+02  0.35829192121E+02  0.00000000000E+00 0. -1.
        -14    1    3    3    0    0  0.48175914364E+02  0.53053216163E+01  0.30119349555E+02  0.57063476759E+02  0.00000000000E+00 0.  1.
          5    1    4    4  501    0 -0.59847340407E+02  0.19340326503E+02  0.10724580024E+03  0.12439809666E+03  0.41800000000E+01 0. -1.
         -5    1    4    4    0  501 -0.23387050385E+02 -0.14422169157E+02 -0.33102941974E+02  0.43223029235E+02  0.41800000000E+01 0. -1.
</event>
<event>
11    1  0.8039394E-009  0.2281399E+03  0.7561462E-02  0.1036235E+00
         22   -1    0    0    0    0  0.00000000000E+00  0.00000000000E+00  0.59005847903E+03  0.59005847903E+03  0.00000000000E+00 0.  1.
         22   -1    0    0    0    0 -0.00000000000E+00 -0.00000000000E+00 -0.39321801121E+03  0.39321801121E+03  0.00000000000E+00 0. -1.
         24    2    1    2    0    0  0.55954860516E+01  0.48703271238E+02 -0.28076382710E+03  0.29579930807E+03  0.79155454363E+02 0.  0.
         25    2    1    2    0    0  0.16340387021E+03 -0.12791485510E+03  0.10570744171E+03  0.26435759302E+03  0.12509132183E+03 0.  0.
        -24    2    1    2    0    0 -0.16899935626E+03  0.79211583861E+02  0.37189685321E+03  0.42311958915E+03  0.76731087958E+02 0.  0.
        -13    1    3    3    0    0 -0.44577872292E+01 -0.21170871144E+02 -0.50023259262E+02  0.54501413919E+02  0.00000000000E+00 0.  1.
         14    1    3    3    0    0  0.10053273281E+02  0.69874142381E+02 -0.23074056784E+03  0.24129789416E+03  0.00000000000E+00 0. -1.
         11    1    5    5    0    0 -0.16128633479E+02 -0.15119580476E+02  0.37631522200E+02  0.43644770532E+02  0.00000000000E+00 0. -1.
        -12    1    5    5    0    0 -0.15287072279E+03  0.94331164337E+02  0.33426533101E+03  0.37947481862E+03  0.00000000000E+00 0.  1.
          5    1    4    4  501    0  0.13234637223E+03 -0.86007713204E+02  0.13669739767E+02  0.15848414166E+03  0.41800000000E+01 0. -1.
         -5    1    4    4    0  501  0.31057497983E+02 -0.41907141895E+02  0.92037701942E+02  0.10587345135E+03  0.41800000000E+01 0. -1.
</event>
<event>
11    1  0.8039394E-009  0.1577931E+03  0.7561462E-02  0.1089171E+00
         22   -1    0    0    0    0  0.00000000000E+00  0.00000000000E+00  0.24676878619E+04  0.24676878619E+04  0.00000000000E+00 0. -1.
         22   -1    0    0    0    0 -0.00000000000E+00 -0.00000000000E+00 -0.17937487653E+03  0.17937487653E+03  0.00000000000E+00 0. -1.
        -24    2    1    2    0    0  0.69276941675E+02 -0.65609822707E+02 -0.14337295862E+03  0.18947684970E+03  0.79004606354E+02 0.  0.
         25    2    1    2    0    0 -0.54351142902E+02  0.11520572215E+03  0.67310556313E+03  0.69637977473E+03  0.12508911375E+03 0.  0.
         24    2    1    2    0    0 -0.14925798773E+02 -0.49595899438E+02  0.17585803809E+04  0.17612061140E+04  0.80990662230E+02 0.  0.
        -11    1    5    5    0    0 -0.39741889654E+02 -0.27566094489E+02  0.53662290616E+03  0.53879815402E+03  0.00000000000E+00 0.  1.
         12    1    5    5    0    0  0.24816090881E+02 -0.22029804949E+02  0.12219574747E+04  0.12224079600E+04  0.00000000000E+00 0. -1.
         13    1    3    3    0    0  0.75526380587E+02 -0.78878297941E+02 -0.12585614874E+03  0.16663070013E+03  0.00000000000E+00 0. -1.
        -14    1    3    3    0    0 -0.62494389116E+01  0.13268475233E+02 -0.17516809880E+02  0.22846149568E+02  0.00000000000E+00 0.  1.
          5    1    4    4  501    0 -0.37762907515E+02  0.60957290671E+02  0.11641636705E+03  0.13679207356E+03  0.41800000000E+01 0. -1.
         -5    1    4    4    0  501 -0.16588235388E+02  0.54248431474E+02  0.55668919608E+03  0.55958770117E+03  0.41800000000E+01 0. -1.
</event>
<event>
11    1  0.8039394E-009  0.1365310E+03  0.7561462E-02  0.1111495E+00
         22   -1    0    0    0    0  0.00000000000E+00  0.00000000000E+00  0.25940324624E+03  0.25940324624E+03  0.00000000000E+00 0. -1.
         22   -1    0    0    0    0 -0.00000000000E+00 -0.00000000000E+00 -0.12602610708E+04  0.12602610708E+04  0.00000000000E+00 0. -1.
        -24    2    1    2    0    0 -0.41395550502E+02 -0.36585492760E+02 -0.11244161719E+04  0.11285440983E+04  0.79044066006E+02 0.  0.
         25    2    1    2    0    0  0.13632028469E+02  0.51701783434E+02 -0.87358364619E+02  0.16167556582E+03  0.12509435681E+03 0.  0.
         24    2    1    2    0    0  0.27763522032E+02 -0.15116290673E+02  0.21091671201E+03  0.22944465283E+03  0.84614856310E+02 0.  0.
        -11    1    5    5    0    0  0.55498375894E+02  0.35071038096E+01  0.11212806042E+03  0.12516018312E+03  0.00000000000E+00 0.  1.
         12    1    5    5    0    0 -0.27734853862E+02 -0.18623394483E+02  0.98788651590E+02  0.10428446972E+03  0.00000000000E+00 0. -1.
         13    1    3    3    0    0 -0.50589625776E+02 -0.10438309912E+02 -0.98753267969E+03  0.98888273420E+03  0.00000000000E+00 0. -1.
        -14    1    3    3    0    0  0.91940752743E+01 -0.26147182848E+02 -0.13688349222E+03  0.13966136414E+03  0.00000000000E+00 0.  1.
          5    1    4    4  501    0 -0.12470606937E+02 -0.27580120061E+02 -0.69916638662E+02  0.76301951625E+02  0.41800000000E+01 0. -1.
         -5    1    4    4    0  501  0.26102635407E+02  0.79281903495E+02 -0.17441725957E+02  0.85373614198E+02  0.41800000000E+01 0. -1.
</event>
<event>
11    1  0.8039394E-009  0.1448783E+03  0.7561462E-02  0.1102230E+00
         22   -1    0    0    0    0  0.00000000000E+00  0.00000000000E+00  0.93060462220E+03  0.93060462220E+03  0.00000000000E+00 0. -1.
         22   -1    0    0    0    0 -0.00000000000E+00 -0.00000000000E+00 -0.12946817525E+03  0.12946817525E+03  0.00000000000E+00 0.  1.
         24    2    1    2    0    0  0.68301007772E+02  0.78953497213E+01 -0.73009347266E+02  0.12885660979E+03  0.80909189144E+02 0.  0.
         25    2    1    2    0    0 -0.12798897360E+03  0.16579665911E+02  0.31554009535E+03  0.36313822827E+03  0.12509100036E+03 0.  0.
        -24    2    1    2    0    0  0.59687965826E+02 -0.24475015632E+02  0.55860569886E+03  0.56807795940E+03  0.80688050542E+02 0.  0.
        -13    1    3    3    0    0  0.77930962152E+02  0.19096066605E+02 -0.79291127000E+02  0.11280504174E+03  0.00000000000E+00 0.  1.
         14    1    3    3    0    0 -0.96299543798E+01 -0.11200716883E+02  0.62817797343E+01  0.16051568045E+02  0.00000000000E+00 0. -1.
         13    1    5    5    0    0  0.60786766174E+02 -0.44431712131E+02  0.50992574727E+03  0.51545463012E+03  0.00000000000E+00 0. -1.
        -14    1    5    5    0    0 -0.10988003480E+01  0.19956696499E+02  0.48679951592E+02  0.52623329279E+02  0.00000000000E+00 0.  1.
          5    1    4    4  501    0 -0.15041883930E+03  0.29737360543E+02  0.27045495319E+03  0.31092361109E+03  0.41800000000E+01 0.  1.
         -5    1    4    4    0  501  0.22429865701E+02 -0.13157694632E+02  0.45085142158E+02  0.52214617176E+02  0.41800000000E+01 0.  1.
</event>
<event>
11    1  0.8039394E-009  0.3010705E+03  0.7561462E-02  0.9997392E-01
         22   -1    0    0    0    0  0.00000000000E+00  0.00000000000E+00  0.38661279816E+03  0.38661279816E+03  0.00000000000E+00 0.  1.
         22   -1    0    0    0    0 -0.00000000000E+00 -0.00000000000E+00 -0.71715334955E+03  0.71715334955E+03  0.00000000000E+00 0. -1.
         24    2    1    2    0    0  0.22136104769E+03 -0.15583632900E+03 -0.53494996552E+03  0.60488586746E+03  0.80185860149E+02 0.  0.
         25    2    1    2    0    0 -0.23054000762E+03  0.17631305935E+03  0.41563984902E+02  0.31876186843E+03  0.12508626590E+03 0.  0.
        -24    2    1    2    0    0  0.91789599330E+01 -0.20476730348E+02  0.16284542923E+03  0.18011841182E+03  0.73623764249E+02 0.  0.
        -11    1    3    3    0    0  0.51083406505E+02 -0.45521195979E+02 -0.71465290153E+02  0.98939281381E+02  0.00000000000E+00 0.  1.
         12    1    3    3    0    0  0.17027764118E+03 -0.11031513302E+03 -0.46348467537E+03  0.50594658608E+03  0.00000000000E+00 0. -1.
         13    1    5    5    0    0 -0.25536601792E+02  0.81566318583E+01  0.94966685165E+02  0.98677859551E+02  0.00000000000E+00 0. -1.
        -14    1    5    5    0    0  0.34715561725E+02 -0.28633362207E+02  0.67878744068E+02  0.81440552266E+02  0.00000000000E+00 0.  1.
          5    1    4    4  501    0 -0.63447878492E+02  0.13078291469E+02  0.54519295927E+02  0.84773232929E+02  0.41800000000E+01 0.  1.
         -5    1    4    4    0  501 -0.16709212913E+03  0.16323476788E+03 -0.12955311026E+02  0.23398863551E+03  0.41800000000E+01 0.  1.
</event>
<event>
11    1  0.8039394E-009  0.1427866E+03  0.7561462E-02  0.1104486E+00
         22   -1    0    0    0    0  0.00000000000E+00  0.00000000000E+00  0.41097962303E+03  0.41097962303E+03  0.00000000000E+00 0.  1.
         22   -1    0    0    0    0 -0.00000000000E+00 -0.00000000000E+00 -0.23487455771E+03  0.23487455771E+03  0.00000000000E+00 0. -1.
        -24    2    1    2    0    0 -0.34753476413E+02 -0.54435005484E+02 -0.16481473734E+03  0.19538544741E+03  0.82707928694E+02 0.  0.
         25    2    1    2    0    0  0.99204275994E+02  0.82802796081E+02  0.15663455220E+03  0.23849558289E+03  0.12509184107E+03 0.  0.
         24    2    1    2    0    0 -0.64450799581E+02 -0.28367790596E+02  0.18428525046E+03  0.21197315044E+03  0.77543058102E+02 0.  0.
        -13    1    5    5    0    0 -0.32478448936E+02  0.14327407092E+02  0.13416092676E+03  0.13877780265E+03  0.00000000000E+00 0.  1.
         14    1    5    5    0    0 -0.31972350646E+02 -0.42695197688E+02  0.50124323699E+02  0.73195347787E+02  0.00000000000E+00 0. -1.
         13    1    3    3    0    0 -0.57435150137E+01 -0.51725073475E+02 -0.15673532782E+03  0.16514973260E+03  0.00000000000E+00 0. -1.
        -14    1    3    3    0    0 -0.29009961399E+02 -0.27099320092E+01 -0.80794095247E+01  0.30235714811E+02  0.00000000000E+00 0.  1.
          5    1    4    4  501    0  0.61889739049E+02  0.43042241888E+02  0.16659766292E+03  0.18290770371E+03  0.41800000000E+01 0. -1.
         -5    1    4    4    0  501  0.37314536946E+02  0.39760554193E+02 -0.99631107197E+01  0.55587879186E+02  0.41800000000E+01 0. -1.
</event>
<event>
11    1  0.8039394E-009  0.1373511E+03  0.7561462E-02  0.1110553E+00
         22   -1    0    0    0    0  0.00000000000E+00  0.00000000000E+00  0.30319496290E+03  0.30319496290E+03  0.00000000000E+00 0.  1.
         22   -1    0    0    0    0 -0.00000000000E+00 -0.00000000000E+00 -0.89022541678E+03  0.89022541678E+03  0.00000000000E+00 0.  1.
         24    2    1    2    0    0  0.37381422188E+02  0.37952651691E+02 -0.69248375421E+03  0.70072065637E+03  0.92940378318E+02 0.  0.
         25    2    1    2    0    0 -0.63918783550E+02 -0.52295197954E+02 -0.15629473321E+03  0.21654860713E+03  0.12507940279E+03 0.  0.
        -24    2    1    2    0    0  0.26537361362E+02  0.14342546263E+02  0.26174803353E+03  0.27615111618E+03  0.82688969814E+02 0.  0.
        -13    1    3    3    0    0  0.26824803481E+02  0.93464597284E+01 -0.63513246434E+03  0.63576738958E+03  0.00000000000E+00 0.  1.
         14    1    3    3    0    0  0.10556618707E+02  0.28606191963E+02 -0.57351289869E+02  0.64953266790E+02  0.00000000000E+00 0. -1.
         11    1    5    5    0    0  0.73314644202E+01 -0.18801073462E+02  0.11991279905E+02  0.23473847738E+02  0.00000000000E+00 0. -1.
        -12    1    5    5    0    0  0.19205896942E+02  0.33143619725E+02  0.24975675363E+03  0.25267726844E+03  0.00000000000E+00 0.  1.
          5    1    4    4  501    0 -0.32590138183E+02  0.11583523090E+02  0.94773057504E+01  0.36105218989E+02  0.41800000000E+01 0.  1.
         -5    1    4    4    0  501 -0.31328645367E+02 -0.63878721045E+02 -0.16577203896E+03  0.18044338814E+03  0.41800000000E+01 0.  1.
</event>
<event>
11    1  0.8039394E-009  0.1276458E+03  0.7561462E-02  0.1122196E+00
         22   -1    0    0    0    0  0.00000000000E+00  0.00000000000E+00  0.69881769585E+03  0.69881769585E+03  0.00000000000E+00 0. -1.
         22   -1    0    0    0    0 -0.00000000000E+00 -0.00000000000E+00 -0.52170754277E+03  0.52170754277E+03  0.00000000000E+00 0.  1.
        -24    2    1    2    0    0  0.22024569517E+02  0.12783735637E+02 -0.48409762840E+03  0.49133304986E+03  0.80057145223E+02 0.  0.
         25    2    1    2    0    0 -0.26728724731E+02 -0.36036059081E+02  0.11307783441E+03  0.17448984056E+03  0.12508831098E+03 0.  0.
         24    2    1    2    0    0  0.47041552139E+01  0.23252323443E+02  0.54812994707E+03  0.55470234820E+03  0.81764641556E+02 0.  0.
        -13    1    5    5    0    0  0.38177606239E+02 -0.81516984136E+01  0.27096419593E+03  0.27376189523E+03  0.00000000000E+00 0.  1.
         14    1    5    5    0    0 -0.33473451025E+02  0.31404021857E+02  0.27716575113E+03  0.28094045297E+03  0.00000000000E+00 0. -1.
         11    1    3    3    0    0  0.50450296128E+02  0.81846889312E+01 -0.23007419151E+03  0.23568274249E+03  0.00000000000E+00 0. -1.
        -12    1    3    3    0    0 -0.28425726611E+02  0.45990467062E+01 -0.25402343689E+03  0.25565030736E+03  0.00000000000E+00 0.  1.
          5    1    4    4  501    0 -0.63566318941E+02  0.18396049098E+02  0.47619590354E+02  0.81634486043E+02  0.41800000000E+01 0. -1.
         -5    1    4    4    0  501  0.36837594210E+02 -0.54432108179E+02  0.65458244058E+02  0.92855354521E+02  0.41800000000E+01 0. -1.
</event>
<event>
11    1  0.8039394E-009  0.1728773E+03  0.7561462E-02  0.1075554E+00
         22   -1    0    0    0    0  0.00000000000E+00  0.00000000000E+00  0.59828917074E+03  0.59828917074E+03  0.00000000000E+00 0.  1.
         22   -1    0    0    0    0 -0.00000000000E+00 -0.00000000000E+00 -0.46164256804E+03  0.46164256804E+03  0.00000000000E+00 0. -1.
        -24    2    1    2    0    0 -0.83802392205E+02 -0.78453859284E+02 -0.36947499582E+03  0.39516467525E+03  0.80408326978E+02 0.  0.
         25    2    1    2    0    0  0.14172528419E+03  0.11008525865E+03  0.97426390976E+02  0.23946625986E+03  0.12508943841E+03 0.  0.
         24    2    1    2    0    0 -0.57922891986E+02 -0.31631399365E+02  0.40869520755E+03  0.42530080368E+03  0.97434049964E+02 0.  0.
        -11    1    5    5    0    0 -0.83381162300E+02 -0.36879374773E+02  0.33358283202E+03  0.34581788896E+03  0.00000000000E+00 0.  1.
         12    1    5    5    0    0  0.25458270314E+02  0.52479754083E+01  0.75112375529E+02  0.79482914711E+02  0.00000000000E+00 0. -1.
         13    1    3    3    0    0 -0.21573201378E+02 -0.72211937921E+02 -0.16627393701E+03  0.18255681068E+03  0.00000000000E+00 0. -1.
        -14    1    3    3    0    0 -0.62229190827E+02 -0.62419213636E+01 -0.20320105882E+03  0.21260786457E+03  0.00000000000E+00 0.  1.
          5    1    4    4  501    0  0.16130024240E+03  0.88817285081E+02  0.63785064405E+02  0.19491609777E+03  0.41800000000E+01 0.  1.
         -5    1    4    4    0  501 -0.19574958212E+02  0.21267973568E+02  0.33641326571E+02  0.44550162089E+02  0.41800000000E+01 0.  1.
</event>
<event>
11    1  0.8039394E-009  0.1976865E+03  0.7561462E-02  0.1056172E+00
         22   -1    0    0    0    0  0.00000000000E+00  0.00000000000E+00  0.48689351755E+03  0.48689351755E+03  0.00000000000E+00 0. -1.
         22   -1    0    0    0    0 -0.00000000000E+00 -0.00000000000E+00 -0.15135214752E+04  0.15135214752E+04  0.00000000000E+00 0. -1.
        -24    2    1    2    0    0  0.48500672129E+02 -0.21367400598E+02 -0.10808266770E+04  0.10851135619E+04  0.80475184847E+02 0.  0.
         25    2    1    2    0    0 -0.14466890294E+03  0.13814800047E+03 -0.38068345899E+03  0.44786425539E+03  0.12509409977E+03 0.  0.
         24    2    1    2    0    0  0.96168230812E+02 -0.11678059987E+03  0.43488217841E+03  0.46743717544E+03  0.80554123195E+02 0.  0.
        -11    1    5    5    0    0  0.77879746048E+02 -0.85449792337E+02  0.21067631206E+03  0.24031527275E+03  0.00000000000E+00 0.  1.
         12    1    5    5    0    0  0.18288484763E+02 -0.31330807535E+02  0.22420586635E+03  0.22712190269E+03  0.00000000000E+00 0. -1.
         13    1    3    3    0    0  0.22967788656E+02 -0.51593637479E+02 -0.59161040852E+03  0.59429983865E+03  0.00000000000E+00 0. -1.
        -14    1    3    3    0    0  0.25532883473E+02  0.30226236881E+02 -0.48921626852E+03  0.49081372324E+03  0.00000000000E+00 0.  1.
          5    1    4    4  501    0 -0.12694438111E+03  0.89918748653E+02 -0.16791449993E+03  0.22893887600E+03  0.41800000000E+01 0. -1.
         -5    1    4    4    0  501 -0.17724521828E+02  0.48229251818E+02 -0.21276895906E+03  0.21892537940E+03  0.41800000000E+01 0. -1.
</event>
<event>
11    1  0.8039394E-009  0.2455021E+03  0.7561462E-02  0.1026323E+00
         22   -1    0    0    0    0  0.00000000000E+00  0.00000000000E+00  0.57133623714E+03  0.57133623714E+03  0.00000000000E+00 0. -1.
         22   -1    0    0    0    0 -0.00000000000E+00 -0.00000000000E+00 -0.70357623568E+03  0.70357623568E+03  0.00000000000E+00 0.  1.
        -24    2    1    2    0    0  0.10903789350E+03 -0.17329319307E+03 -0.56817311402E+03  0.60931530033E+03  0.80775334976E+02 0.  0.
         25    2    1    2    0    0 -0.21490020973E+03  0.24308942490E+03  0.26007130820E+03  0.43424432345E+03  0.12512585049E+03 0.  0.
         24    2    1    2    0    0  0.10586231623E+03 -0.69796231829E+02  0.17586180729E+03  0.23135284904E+03  0.80736742083E+02 0.  0.
        -13    1    5    5    0    0  0.22423358931E+02  0.47013181028E+01  0.82596181435E+02  0.85714868053E+02  0.00000000000E+00 0.  1.
         14    1    5    5    0    0  0.83438957298E+02 -0.74497549932E+02  0.93265625855E+02  0.14563798099E+03  0.00000000000E+00 0. -1.
         11    1    3    3    0    0  0.54090059392E+02 -0.20708197400E+02 -0.15136520109E+03  0.16206785019E+03  0.00000000000E+00 0. -1.
        -12    1    3    3    0    0  0.54947834107E+02 -0.15258499567E+03 -0.41680791294E+03  0.44724745015E+03  0.00000000000E+00 0.  1.
          5    1    4    4  501    0 -0.97607495334E+02  0.14234935455E+03  0.63139506156E+02  0.18383316220E+03  0.41800000000E+01 0.  1.
         -5    1    4    4    0  501 -0.11729271439E+03  0.10074007035E+03  0.19693180204E+03  0.25041116125E+03  0.41800000000E+01 0.  1.
</event>
<event>
11    1  0.8039394E-009  0.2180197E+03  0.7561462E-02  0.1042465E+00
         22   -1    0    0    0    0  0.00000000000E+00  0.00000000000E+00  0.53226338489E+03  0.53226338489E+03  0.00000000000E+00 0.  1.
         22   -1    0    0    0    0 -0.00000000000E+00 -0.00000000000E+00 -0.36909399794E+04  0.36909399794E+04  0.00000000000E+00 0. -1.
         24    2    1    2    0    0 -0.16731333571E+03  0.59393750043E+02 -0.35282915532E+04  0.35336637000E+04  0.80102997877E+02 0.  0.
         25    2    1    2    0    0  0.18647572151E+03 -0.13671496184E+03 -0.38572497316E+02  0.26570558548E+03  0.12508974819E+03 0.  0.
        -24    2    1    2    0    0 -0.19162385805E+02  0.77321211795E+02  0.40818745600E+03  0.42383407884E+03  0.81685741258E+02 0.  0.
        -11    1    3    3    0    0 -0.51248683728E+02 -0.18637886255E+02 -0.10929520780E+04  0.10943116755E+04  0.00000000000E+00 0.  1.
         12    1    3    3    0    0 -0.11606465198E+03  0.78031636298E+02 -0.24353394752E+04  0.24393520245E+04  0.00000000000E+00 0. -1.
         13    1    5    5    0    0 -0.31027901633E+01  0.43550230958E+02  0.63134893441E+02  0.76761088405E+02  0.00000000000E+00 0. -1.
        -14    1    5    5    0    0 -0.16059595641E+02  0.33770980836E+02  0.34505256256E+03  0.34707299044E+03  0.00000000000E+00 0.  1.
          5    1    4    4  501    0  0.16637889910E+03 -0.10163861392E+03  0.18228550733E+02  0.19586244756E+03  0.41800000000E+01 0. -1.
         -5    1    4    4    0  501  0.20096822416E+02 -0.35076347921E+02 -0.56801048049E+02  0.69843137917E+02  0.41800000000E+01 0. -1.
</event>
<event>
11    1  0.8039394E-009  0.1904272E+03  0.7561462E-02  0.1061507E+00
         22   -1    0    0    0    0  0.00000000000E+00  0.00000000000E+00  0.17210114299E+03  0.17210114299E+03  0.00000000000E+00 0.  1.
         22   -1    0    0    0    0 -0.00000000000E+00 -0.00000000000E+00 -0.19336488992E+04  0.19336488992E+04  0.00000000000E+00 0.  1.
         24    2    1    2    0    0 -0.38633484160E+02 -0.13919437517E+03 -0.17124790777E+04  0.17205211161E+04  0.82101761369E+02 0.  0.
         25    2    1    2    0    0  0.40220936648E+02  0.12861009239E+03 -0.16300417426E+03  0.24570895784E+03  0.12507698241E+03 0.  0.
        -24    2    1    2    0    0 -0.15874524883E+01  0.10584282783E+02  0.11393549567E+03  0.13951996831E+03  0.79812137779E+02 0.  0.
        -13    1    3    3    0    0  0.19929130714E+02 -0.70360784560E+02 -0.92109421038E+03  0.92399261612E+03  0.00000000000E+00 0.  1.
         14    1    3    3    0    0 -0.58562614874E+02 -0.68833590611E+02 -0.79138486728E+03  0.79652849994E+03  0.00000000000E+00 0. -1.
         13    1    5    5    0    0  0.23724906291E+01 -0.32524744947E+02  0.26751471454E+02  0.42179722268E+02  0.00000000000E+00 0. -1.
        -14    1    5    5    0    0 -0.39599431174E+01  0.43109027730E+02  0.87184024219E+02  0.97340246047E+02  0.00000000000E+00 0.  1.
          5    1    4    4  501    0  0.83357501252E+01  0.12036376774E+03 -0.17307211649E+03  0.21101741924E+03  0.41800000000E+01 0. -1.
         -5    1    4    4    0  501  0.31885186523E+02  0.82463246448E+01  0.10067942232E+02  0.34691538601E+02  0.41800000000E+01 0. -1.
</event>
<event>
11    1  0.8039394E-009  0.1408751E+03  0.7561462E-02  0.1106585E+00
         22   -1    0    0    0    0  0.00000000000E+00  0.00000000000E+00  0.26073043087E+03  0.26073043087E+03  0.00000000000E+00 0. -1.
         22   -1    0    0    0    0 -0.00000000000E+00 -0.00000000000E+00 -0.13528086335E+04  0.13528086335E+04  0.00000000000E+00 0. -1.
         24    2    1    2    0    0  0.27545732248E+02  0.32153825494E+02 -0.11885494105E+04  0.11936977112E+04  0.10233224692E+03 0.  0.
         25    2    1    2    0    0 -0.36807408975E+02  0.34413885592E+02 -0.11649033518E+03  0.17820801024E+03  0.12509594656E+03 0.  0.
        -24    2    1    2    0    0  0.92616767269E+01 -0.66567711087E+02  0.21296154302E+03  0.24163334293E+03  0.92287674118E+02 0.  0.
        -13    1    3    3    0    0  0.46577927016E+01  0.29610932613E+02 -0.89096735847E+02  0.94003886630E+02  0.00000000000E+00 0.  1.
         14    1    3    3    0    0  0.22887939546E+02  0.25428928816E+01 -0.10994526746E+04  0.10996938246E+04  0.00000000000E+00 0. -1.
         11    1    5    5    0    0 -0.36315610891E+02 -0.56093386170E+02  0.13705194139E+03  0.15247467398E+03  0.00000000000E+00 0. -1.
        -12    1    5    5    0    0  0.45577287618E+02 -0.10474324917E+02  0.75909601631E+02  0.89158668950E+02  0.00000000000E+00 0.  1.
          5    1    4    4  501    0  0.27347520041E+02 -0.16035275624E+00 -0.99478670023E+02  0.10325401084E+03  0.41800000000E+01 0.  1.
         -5    1    4    4    0  501 -0.64154929015E+02  0.34574238349E+02 -0.17011665154E+02  0.74953999397E+02  0.41800000000E+01 0.  1.
</event>
<event>
11    1  0.8039394E-009  0.1556435E+03  0.7561462E-02  0.1091248E+00
         22   -1    0    0    0    0  0.00000000000E+00  0.00000000000E+00  0.32670868852E+04  0.32670868852E+04  0.00000000000E+00 0. -1.
         22   -1    0    0    0    0 -0.00000000000E+00 -0.00000000000E+00 -0.59846476550E+02  0.59846476550E+02  0.00000000000E+00 0.  1.
        -24    2    1    2    0    0 -0.75923128108E+02  0.53230390073E+02  0.13004430827E+02  0.12303460819E+03  0.79816062186E+02 0.  0.
         25    2    1    2    0    0  0.96439136612E+02 -0.17660009399E+02  0.19635652788E+04  0.19699869674E+04  0.12509062540E+03 0.  0.
         24    2    1    2    0    0 -0.20516008504E+02 -0.35570380674E+02  0.12306706990E+04  0.12339117861E+04  0.79383676111E+02 0.  0.
        -11    1    5    5    0    0  0.25936332343E+02 -0.30082890941E+02  0.72319483218E+03  0.72428477752E+03  0.00000000000E+00 0.  1.
         12    1    5    5    0    0 -0.46452340847E+02 -0.54874897326E+01  0.50747586682E+03  0.50962700862E+03  0.00000000000E+00 0. -1.
         11    1    3    3    0    0 -0.13329649124E+02 -0.18453193568E+02  0.15995855635E+02  0.27822064915E+02  0.00000000000E+00 0. -1.
        -12    1    3    3    0    0 -0.62593478984E+02  0.71683583641E+02 -0.29914248081E+01  0.95212543277E+02  0.00000000000E+00 0.  1.
          5    1    4    4  501    0  0.67030989833E+02 -0.27663146064E+02  0.18680303953E+04  0.18694420112E+04  0.41800000000E+01 0. -1.
         -5    1    4    4    0  501  0.29408146779E+02  0.10003136665E+02  0.95534883520E+02  0.10054495616E+03  0.41800000000E+01 0. -1.
</event>
<event>
11    1  0.8039394E-009  0.1737035E+03  0.7561462E-02  0.1074853E+00
         22   -1    0    0    0    0  0.00000000000E+00  0.00000000000E+00  0.91784408118E+02  0.91784408118E+02  0.00000000000E+00 0. -1.
         22   -1    0    0    0    0 -0.00000000000E+00 -0.00000000000E+00 -0.37300949623E+04  0.37300949623E+04  0.00000000000E+00 0. -1.
         24    2    1    2    0    0  0.77895810585E+02  0.32985165019E+02 -0.33001447011E+04  0.33022188313E+04  0.80860271550E+02 0.  0.
         25    2    1    2    0    0 -0.11640518910E+02  0.82418356529E+02 -0.33020808208E+03  0.36278496400E+03  0.12508903013E+03 0.  0.
        -24    2    1    2    0    0 -0.66255291676E+02 -0.11540352155E+03 -0.79577709951E+01  0.15687557506E+03  0.82697542110E+02 0.  0.
        -13    1    3    3    0    0  0.43868740802E+02  0.16591538684E+02 -0.60699931990E+03  0.60880860699E+03  0.00000000000E+00 0.  1.
         14    1    3    3    0    0  0.34027069784E+02  0.16393626335E+02 -0.26931453812E+04  0.26934102243E+04  0.00000000000E+00 0. -1.
         11    1    5    5    0    0  0.10754567847E+02 -0.33208775118E+02  0.20792040876E+02  0.40629945092E+02  0.00000000000E+00 0. -1.
        -12    1    5    5    0    0 -0.77009859523E+02 -0.82194746430E+02 -0.28749811871E+02  0.11624562997E+03  0.00000000000E+00 0.  1.
          5    1    4    4  501    0  0.32234919077E+02 -0.20363737748E+02 -0.88925371701E+02  0.96845061594E+02  0.41800000000E+01 0.  1.
         -5    1    4    4    0  501 -0.43875437987E+02  0.10278209428E+03 -0.24128271038E+03  0.26593990241E+03  0.41800000000E+01 0.  1.
</event>
<event>
11    1  0.8039394E-009  0.1927381E+03  0.7561462E-02  0.1059781E+00
         22   -1    0    0    0    0  0.00000000000E+00  0.00000000000E+00  0.71089062060E+03  0.71089062060E+03  0.00000000000E+00 0. -1.
         22   -1    0    0    0    0 -0.00000000000E+00 -0.00000000000E+00 -0.40586510137E+03  0.40586510137E+03  0.00000000000E+00 0. -1.
         24    2    1    2    0    0  0.27854073542E+02 -0.13838471028E+03 -0.23029662256E+03  0.28223913235E+03  0.81830410085E+02 0.  0.
         25    2    1    2    0    0  0.25897869190E+02  0.16808399663E+03 -0.69481019795E+02  0.22226970622E+03  0.12511307143E+03 0.  0.
        -24    2    1    2    0    0 -0.53751942732E+02 -0.29699286351E+02  0.60480316159E+03  0.61224688339E+03  0.72719069009E+02 0.  0.
        -11    1    3    3    0    0  0.92142583186E+01 -0.11893744733E+03 -0.12195572328E+03  0.17059958199E+03  0.00000000000E+00 0.  1.
         12    1    3    3    0    0  0.18639815223E+02 -0.19447262947E+02 -0.10834089928E+03  0.11163955036E+03  0.00000000000E+00 0. -1.
         11    1    5    5    0    0 -0.68047482507E+01 -0.36273620034E+02  0.41404612478E+03  0.41568771158E+03  0.00000000000E+00 0. -1.
        -12    1    5    5    0    0 -0.46947194482E+02  0.65743336834E+01  0.19075703681E+03  0.19655917182E+03  0.00000000000E+00 0.  1.
          5    1    4    4  501    0  0.29844111921E+02 -0.27156782908E+01 -0.37871824397E+02  0.48474667694E+02  0.41800000000E+01 0.  1.
         -5    1    4    4    0  501 -0.39462427306E+01  0.17079967492E+03 -0.31609195399E+02  0.17379503853E+03  0.41800000000E+01 0.  1.
</event>
<event>
11    1  0.8039394E-009  0.1801540E+03  0.7561462E-02  0.1069518E+00
         22   -1    0    0    0    0  0.00000000000E+00  0.00000000000E+00  0.67059906877E+03  0.67059906877E+03  0.00000000000E+00 0. -1.
         22   -1    0    0    0    0 -0.00000000000E+00 -0.00000000000E+00 -0.73512895905E+03  0.73512895905E+03  0.00000000000E+00 0. -1.
        -24    2    1    2    0    0  0.68689566423E+02  0.57075033985E+02 -0.61418511628E+03  0.62972493088E+03  0.10655663035E+03 0.  0.
         25    2    1    2    0    0  0.22259801690E+02 -0.15006157632E+03 -0.37460624250E+01  0.19666189464E+03  0.12509153592E+03 0.  0.
         24    2    1    2    0    0 -0.90949368113E+02  0.92986542338E+02  0.55340128843E+03  0.57934120230E+03  0.11164657646E+03 0.  0.
        -13    1    5    5    0    0 -0.26332021825E+02 -0.10883194279E+02  0.28223515650E+02  0.40104689586E+02  0.00000000000E+00 0.  1.
         14    1    5    5    0    0 -0.64617346288E+02  0.10386973662E+03  0.52517777278E+03  0.53923651272E+03  0.00000000000E+00 0. -1.
         13    1    3    3    0    0  0.30507812776E+02  0.11175777576E+01 -0.46359790010E+03  0.46460196792E+03  0.00000000000E+00 0. -1.
        -14    1    3    3    0    0  0.38181753647E+02  0.55957456227E+02 -0.15058721618E+03  0.16512296296E+03  0.00000000000E+00 0.  1.
          5    1    4    4  501    0 -0.46247377513E+02 -0.99486784757E+02 -0.14449380937E+02  0.11073706370E+03  0.41800000000E+01 0. -1.
         -5    1    4    4    0  501  0.68507179203E+02 -0.50574791566E+02  0.10703318512E+02  0.85924830937E+02  0.41800000000E+01 0. -1.
</event>
<event>
11    1  0.8039394E-009  0.2415670E+03  0.7561462E-02  0.1028490E+00
         22   -1    0    0    0    0  0.00000000000E+00  0.00000000000E+00  0.10990016384E+04  0.10990016384E+04  0.00000000000E+00 0.  1.
         22   -1    0    0    0    0 -0.00000000000E+00 -0.00000000000E+00 -0.63962807947E+03  0.63962807947E+03  0.00000000000E+00 0.  1.
        -24    2    1    2    0    0 -0.52183298501E+02  0.14469491232E+02 -0.56227361870E+03  0.57060029323E+03  0.80626357520E+02 0.  0.
         25    2    1    2    0    0  0.16485165209E+03 -0.17703111004E+03  0.26296863024E+03  0.37856372805E+03  0.12506764003E+03 0.  0.
         24    2    1    2    0    0 -0.11266835359E+03  0.16256161881E+03  0.75867854734E+03  0.78946569655E+03  0.92425700009E+02 0.  0.
        -13    1    5    5    0    0 -0.10903589774E+03  0.16754852558E+03  0.75717028902E+03  0.78311441181E+03  0.00000000000E+00 0.  1.
         14    1    5    5    0    0 -0.36324558473E+01 -0.49869067713E+01  0.15082583252E+01  0.63512847365E+01  0.00000000000E+00 0. -1.
         11    1    3    3    0    0  0.17526710247E+02  0.21668977817E+01 -0.42419305856E+02  0.45948650986E+02  0.00000000000E+00 0. -1.
        -12    1    3    3    0    0 -0.69710008748E+02  0.12302593450E+02 -0.51985431284E+03  0.52465164224E+03  0.00000000000E+00 0.  1.
          5    1    4    4  501    0  0.12269787653E+03 -0.42059254478E+02  0.10901562541E+03  0.16948636752E+03  0.41800000000E+01 0.  1.
         -5    1    4    4    0  501  0.42153775560E+02 -0.13497185556E+03  0.15395300483E+03  0.20907736052E+03  0.41800000000E+01 0.  1.
</event>
<event>
11    1  0.8039394E-009  0.1456962E+03  0.7561462E-02  0.1101359E+00
         22   -1    0    0    0    0  0.00000000000E+00  0.00000000000E+00  0.18229259274E+04  0.18229259274E+04  0.00000000000E+00 0. -1.
         22   -1    0    0    0    0 -0.00000000000E+00 -0.00000000000E+00 -0.42541100341E+03  0.42541100341E+03  0.00000000000E+00 0.  1.
        -24    2    1    2    0    0 -0.42427859405E+02 -0.60142817337E+02 -0.38610498770E+03  0.40162653588E+03  0.82519882824E+02 0.  0.
         25    2    1    2    0    0  0.65188270361E+02  0.83917063055E+02  0.19215154961E+03  0.25270761050E+03  0.12508930539E+03 0.  0.
         24    2    1    2    0    0 -0.22760410956E+02 -0.23774245718E+02  0.15914683621E+04  0.15940027844E+04  0.83606687341E+02 0.  0.
        -13    1    5    5    0    0 -0.72482041360E+01 -0.11468787596E+02  0.37011160230E+02  0.39419481652E+02  0.00000000000E+00 0.  1.
         14    1    5    5    0    0 -0.15512206820E+02 -0.12305458122E+02  0.15544572018E+04  0.15545833027E+04  0.00000000000E+00 0. -1.
         11    1    3    3    0    0  0.50898671465E+01  0.17368910225E+02 -0.92989887947E+02  0.94734919910E+02  0.00000000000E+00 0. -1.
        -12    1    3    3    0    0 -0.47517726552E+02 -0.77511727562E+02 -0.29311509976E+03  0.30689161597E+03  0.00000000000E+00 0.  1.
          5    1    4    4  501    0  0.53511599344E+01 -0.21911459307E+02  0.92955875315E+02  0.95744525259E+02  0.41800000000E+01 0.  1.
         -5    1    4    4    0  501  0.59837110427E+02  0.10582852236E+03  0.99195674291E+02  0.15696308524E+03  0.41800000000E+01 0.  1.
</event>
<event>
11    1  0.8039394E-009  0.1454469E+03  0.7561462E-02  0.1101624E+00
         22   -1    0    0    0    0  0.00000000000E+00  0.00000000000E+00  0.24901234015E+03  0.24901234015E+03  0.00000000000E+00 0.  1.
         22   -1    0    0    0    0 -0.00000000000E+00 -0.00000000000E+00 -0.41236806184E+03  0.41236806184E+03  0.00000000000E+00 0. -1.
         24    2    1    2    0    0  0.54173675175E+01  0.67131764005E+01 -0.32685186145E+03  0.33659538379E+03  0.79936840362E+02 0.  0.
         25    2    1    2    0    0  0.50541933560E+02 -0.55309225480E+02  0.23532777221E+02  0.14769768009E+03  0.12508883096E+03 0.  0.
        -24    2    1    2    0    0 -0.55959301077E+02  0.48596049080E+02  0.13996336254E+03  0.17708733811E+03  0.79228549798E+02 0.  0.
        -13    1    3    3    0    0  0.39762008288E+02  0.28251605562E+00 -0.11042357251E+03  0.11736465603E+03  0.00000000000E+00 0.  1.
         14    1    3    3    0    0 -0.34344640770E+02  0.64306603448E+01 -0.21642828894E+03  0.21923072777E+03  0.00000000000E+00 0. -1.
         11    1    5    5    0    0 -0.17793599986E+02  0.61660811121E+02  0.10795867473E+03  0.12559356384E+03  0.00000000000E+00 0. -1.
        -12    1    5    5    0    0 -0.38165701091E+02 -0.13064762041E+02  0.32004687805E+02  0.51493774269E+02  0.00000000000E+00 0.  1.
          5    1    4    4  501    0  0.84090674142E+02 -0.22201393598E+02  0.42286538676E+02  0.96797557348E+02  0.41800000000E+01 0. -1.
         -5    1    4    4    0  501 -0.33548740583E+02 -0.33107831882E+02 -0.18753761455E+02  0.50900122744E+02  0.41800000000E+01 0. -1.
</event>
<event>
11    1  0.8039394E-009  0.1317874E+03  0.7561462E-02  0.1117092E+00
         22   -1    0    0    0    0  0.00000000000E+00  0.00000000000E+00  0.95091222062E+02  0.95091222062E+02  0.00000000000E+00 0.  1.
         22   -1    0    0    0    0 -0.00000000000E+00 -0.00000000000E+00 -0.53350280124E+03  0.53350280124E+03  0.00000000000E+00 0. -1.
        -24    2    1    2    0    0  0.44095123861E+02  0.37320844133E+02 -0.36939048899E+03  0.38227232477E+03  0.79659095958E+02 0.  0.
         25    2    1    2    0    0 -0.56251881415E+01  0.59978693093E+01 -0.77049397933E+02  0.14714647695E+03  0.12509140170E+03 0.  0.
         24    2    1    2    0    0 -0.38469935719E+02 -0.43318713442E+02  0.80283077471E+01  0.99175221583E+02  0.80092596176E+02 0.  0.
        -11    1    5    5    0    0 -0.37151769096E+02 -0.58550578076E+00  0.32972658679E+02  0.49676885816E+02  0.00000000000E+00 0.  1.
         12    1    5    5    0    0 -0.13181666230E+01 -0.42733207661E+02 -0.24944350932E+02  0.49498335767E+02  0.00000000000E+00 0. -1.
         13    1    3    3    0    0  0.59995138104E+02  0.42389519274E+02 -0.34490146973E+03  0.35263764938E+03  0.00000000000E+00 0. -1.
        -14    1    3    3    0    0 -0.15900014243E+02 -0.50686751406E+01 -0.24489019262E+02  0.29634675382E+02  0.00000000000E+00 0.  1.
          5    1    4    4  501    0  0.77602398664E+01 -0.47588802389E+02 -0.77944437286E+02  0.91748150605E+02  0.41800000000E+01 0. -1.
         -5    1    4    4    0  501 -0.13385428008E+02  0.53586671699E+02  0.89503935312E+00  0.55398326348E+02  0.41800000000E+01 0. -1.
</event>
<event>
11    1  0.8039394E-009  0.5279757E+03  0.7561462E-02  0.9333093E-01
         22   -1    0    0    0    0  0.00000000000E+00  0.00000000000E+00  0.45478219637E+03  0.45478219637E+03  0.00000000000E+00 0.  1.
         22   -1    0    0    0    0 -0.00000000000E+00 -0.00000000000E+00 -0.15323727422E+03  0.15323727422E+03  0.00000000000E+00 0.  1.
        -24    2    1    2    0    0 -0.41419872488E+02 -0.21054026885E+02 -0.78074245858E+01  0.92858673430E+02  0.80018119620E+02 0.  0.
         25    2    1    2    0    0  0.18666979368E+03  0.38630277594E+02  0.24923315314E+03  0.33779141919E+03  0.12509183839E+03 0.  0.
         24    2    1    2    0    0 -0.14524992119E+03 -0.17576250710E+02  0.60119193602E+02  0.17736937797E+03  0.80244093917E+02 0.  0.
        -11    1    5    5    0    0 -0.14172678134E+03 -0.34694070936E+02  0.41206862494E+02  0.15161848378E+03  0.00000000000E+00 0.  1.
         12    1    5    5    0    0 -0.35231398471E+01  0.17117820226E+02  0.18912331108E+02  0.25750894191E+02  0.00000000000E+00 0. -1.
         13    1    3    3    0    0 -0.63374667307E+02 -0.12502900149E+02 -0.18194036794E+02  0.67109566704E+02  0.00000000000E+00 0. -1.
        -14    1    3    3    0    0  0.21954794819E+02 -0.85511267355E+01  0.10386612208E+02  0.25749106725E+02  0.00000000000E+00 0.  1.
          5    1    4    4  501    0  0.43158707745E+02 -0.36408152996E+02  0.26860350300E+02  0.62667204158E+02  0.41800000000E+01 0.  1.
         -5    1    4    4    0  501  0.14351108594E+03  0.75038430590E+02  0.22237280284E+03  0.27512421503E+03  0.41800000000E+01 0.  1.
</event>
<event>
11    1  0.8039394E-009  0.1617015E+03  0.7561462E-02  0.1085488E+00
         22   -1    0    0    0    0  0.00000000000E+00  0.00000000000E+00  0.16412076469E+04  0.16412076469E+04  0.00000000000E+00 0. -1.
         22   -1    0    0    0    0 -0.00000000000E+00 -0.00000000000E+00 -0.47467817271E+03  0.47467817271E+03  0.00000000000E+00 0.  1.
         24    2    1    2    0    0 -0.68793514081E+02 -0.11380641552E+02 -0.44121605224E+03  0.45519583241E+03  0.87576106903E+02 0.  0.
         25    2    1    2    0    0  0.15258673752E+03 -0.34993409383E+02  0.40768144285E+03  0.45426756816E+03  0.12509042118E+03 0.  0.
        -24    2    1    2    0    0 -0.83793223434E+02  0.46374050935E+02  0.12000640836E+04  0.12064224191E+04  0.78290430887E+02 0.  0.
        -11    1    3    3    0    0 -0.86599307241E+02 -0.86625534187E+01 -0.41018201193E+03  0.41931344214E+03  0.00000000000E+00 0.  1.
         12    1    3    3    0    0  0.17805793160E+02 -0.27180881334E+01 -0.31034040311E+02  0.35882390266E+02  0.00000000000E+00 0. -1.
         11    1    5    5    0    0 -0.29615454344E+02  0.47358909900E+02  0.33176312776E+03  0.33643233260E+03  0.00000000000E+00 0. -1.
        -12    1    5    5    0    0 -0.54177769090E+02 -0.98485896518E+00  0.86830095585E+03  0.86999008646E+03  0.00000000000E+00 0.  1.
          5    1    4    4  501    0  0.61148400368E+02 -0.71662781843E+02  0.26109826807E+03  0.27760486155E+03  0.41800000000E+01 0. -1.
         -5    1    4    4    0  501  0.91438337147E+02  0.36669372460E+02  0.14658317478E+03  0.17666270661E+03  0.41800000000E+01 0. -1.
</event>
<event>
11    1  0.8039394E-009  0.1429281E+03  0.7561462E-02  0.1104332E+00
         22   -1    0    0    0    0  0.00000000000E+00  0.00000000000E+00  0.35200825908E+03  0.35200825908E+03  0.00000000000E+00 0. -1.
         22   -1    0    0    0    0 -0.00000000000E+00 -0.00000000000E+00 -0.25293679405E+03  0.25293679405E+03  0.00000000000E+00 0.  1.
        -24    2    1    2    0    0 -0.71094830234E+02  0.44953563214E+01 -0.15762321268E+03  0.19092687213E+03  0.80828894659E+02 0.  0.
         25    2    1    2    0    0  0.61015127291E+02  0.22452751527E+02 -0.22429504573E+01  0.14099313151E+03  0.12508821087E+03 0.  0.
         24    2    1    2    0    0  0.10079702943E+02 -0.26948107848E+02  0.25893762817E+03  0.27302504948E+03  0.81646686598E+02 0.  0.
        -11    1    5    5    0    0 -0.34429228154E+02 -0.18936367055E+02  0.91343312245E+02  0.99436202866E+02  0.00000000000E+00 0.  1.
         12    1    5    5    0    0  0.44508931097E+02 -0.80117407930E+01  0.16759431592E+03  0.17358884661E+03  0.00000000000E+00 0. -1.
         11    1    3    3    0    0 -0.21429101867E+02 -0.26167235906E+01  0.37699547937E+01  0.21914976804E+02  0.00000000000E+00 0. -1.
        -12    1    3    3    0    0 -0.49665728368E+02  0.71120799120E+01 -0.16139316747E+03  0.16901189533E+03  0.00000000000E+00 0.  1.
          5    1    4    4  501    0  0.14775837457E+02  0.68436029557E+02  0.18316485004E+02  0.72489871961E+02  0.41800000000E+01 0.  1.
         -5    1    4    4    0  501  0.46239289834E+02 -0.45983278030E+02 -0.20559435461E+02  0.68503259552E+02  0.41800000000E+01 0.  1.
</event>
<event>
11    1  0.8039394E-009  0.1315789E+03  0.7561462E-02  0.1117344E+00
         22   -1    0    0    0    0  0.00000000000E+00  0.00000000000E+00  0.55753713970E+03  0.55753713970E+03  0.00000000000E+00 0. -1.
         22   -1    0    0    0    0 -0.00000000000E+00 -0.00000000000E+00 -0.31353185492E+03  0.31353185492E+03  0.00000000000E+00 0. -1.
        -24    2    1    2    0    0  0.13790394455E+02 -0.37016041609E+02 -0.26689221102E+03  0.28999442392E+03  0.10632474447E+03 0.  0.
         25    2    1    2    0    0  0.45399288853E+02  0.92640909216E+02  0.26726481619E+03  0.31260460004E+03  0.12509084900E+03 0.  0.
         24    2    1    2    0    0 -0.59189683307E+02 -0.55624867608E+02  0.24363267962E+03  0.26846997067E+03  0.78241281078E+02 0.  0.
        -13    1    5    5    0    0 -0.35814129670E+02 -0.25785442148E+02  0.34734751876E+02  0.56160875160E+02  0.00000000000E+00 0.  1.
         14    1    5    5    0    0 -0.23375553638E+02 -0.29839425459E+02  0.20889792774E+03  0.21230909551E+03  0.00000000000E+00 0. -1.
         13    1    3    3    0    0 -0.78535398357E-01 -0.53441227675E+02 -0.26271454606E+03  0.26809495276E+03  0.00000000000E+00 0. -1.
        -14    1    3    3    0    0  0.13868929853E+02  0.16425186066E+02 -0.41776649577E+01  0.21899471159E+02  0.00000000000E+00 0.  1.
          5    1    4    4  501    0  0.37459733667E+02 -0.23870743897E+02  0.61599874232E+02  0.76059588258E+02  0.41800000000E+01 0. -1.
         -5    1    4    4    0  501  0.79395551857E+01  0.11651165311E+03  0.20566494195E+03  0.23654501178E+03  0.41800000000E+01 0. -1.
</event>
<event>
11    1  0.8039394E-009  0.1263723E+03  0.7561462E-02  0.1123808E+00
         22   -1    0    0    0    0  0.00000000000E+00  0.00000000000E+00  0.26428508199E+04  0.26428508199E+04  0.00000000000E+00 0.  1.
         22   -1    0    0    0    0 -0.00000000000E+00 -0.00000000000E+00 -0.85070231892E+02  0.85070231892E+02  0.00000000000E+00 0. -1.
        -24    2    1    2    0    0  0.11728822739E+02 -0.14237912543E+02 -0.56204106806E+02  0.99329678144E+02  0.79794736054E+02 0.  0.
         25    2    1    2    0    0  0.70318948313E+01  0.80802009912E+01  0.60564485144E+03  0.61852131785E+03  0.12509275506E+03 0.  0.
         24    2    1    2    0    0 -0.18760717570E+02  0.61577115520E+01  0.20083398434E+04  0.20100700558E+04  0.81011238627E+02 0.  0.
        -11    1    5    5    0    0  0.15121561112E+02  0.23350381507E+02  0.15199385521E+04  0.15201931141E+04  0.00000000000E+00 0.  1.
         12    1    5    5    0    0 -0.33882278682E+02 -0.17192669955E+02  0.48840129133E+03  0.48987694177E+03  0.00000000000E+00 0. -1.
         11    1    3    3    0    0 -0.23455042996E+02 -0.12656911753E+01 -0.57181329926E+02  0.61817841342E+02  0.00000000000E+00 0. -1.
        -12    1    3    3    0    0  0.35183865735E+02 -0.12972221368E+02  0.97722311959E+00  0.37511836802E+02  0.00000000000E+00 0.  1.
          5    1    4    4  501    0  0.27379304117E+02  0.52231983890E+02  0.48175195508E+03  0.48536607324E+03  0.41800000000E+01 0. -1.
         -5    1    4    4    0  501 -0.20347409286E+02 -0.44151782899E+02  0.12389289636E+03  0.13315524461E+03  0.41800000000E+01 0. -1.
</event>
<event>
11    1  0.8039394E-009  0.1803700E+03  0.7561462E-02  0.1069344E+00
         22   -1    0    0    0    0  0.00000000000E+00  0.00000000000E+00  0.38193890742E+03  0.38193890742E+03  0.00000000000E+00 0. -1.
         22   -1    0    0    0    0 -0.00000000000E+00 -0.00000000000E+00 -0.29367169050E+04  0.29367169050E+04  0.00000000000E+00 0.  1.
        -24    2    1    2    0    0 -0.22796843835E+02 -0.14788922530E+02 -0.26447919357E+04  0.26461563217E+04  0.80501474315E+02 0.  0.
         25    2    1    2    0    0 -0.22999928190E+02 -0.10814914297E+03 -0.24920756336E+03  0.29996143049E+03  0.12508883374E+03 0.  0.
         24    2    1    2    0    0  0.45796772026E+02  0.12293806550E+03  0.33922150149E+03  0.37253806023E+03  0.80636635414E+02 0.  0.
        -11    1    5    5    0    0  0.12746030161E+02 -0.10059720568E+02  0.26079341694E+02  0.30721186923E+02  0.00000000000E+00 0.  1.
         12    1    5    5    0    0  0.33050741865E+02  0.13299778607E+03  0.31314215980E+03  0.34181687331E+03  0.00000000000E+00 0. -1.
         13    1    3    3    0    0 -0.19048710345E+02  0.27411438508E+02 -0.17936877165E+04  0.17939982900E+04  0.00000000000E+00 0. -1.
        -14    1    3    3    0    0 -0.37481334903E+01 -0.42200361038E+02 -0.85110421923E+03  0.85215803168E+03  0.00000000000E+00 0.  1.
          5    1    4    4  501    0 -0.36007293573E+02 -0.13248856916E+03 -0.18943729285E+03  0.23399509925E+03  0.41800000000E+01 0.  1.
         -5    1    4    4    0  501  0.13007365382E+02  0.24339426193E+02 -0.59770270502E+02  0.65966331242E+02  0.41800000000E+01 0.  1.
</event>
<event>
11    1  0.8039394E-009  0.1782708E+03  0.7561462E-02  0.1071050E+00
         22   -1    0    0    0    0  0.00000000000E+00  0.00000000000E+00  0.28562924612E+03  0.28562924612E+03  0.00000000000E+00 0.  1.
         22   -1    0    0    0    0 -0.00000000000E+00 -0.00000000000E+00 -0.29066032841E+03  0.29066032841E+03  0.00000000000E+00 0.  1.
         24    2    1    2    0    0 -0.84245633677E+02 -0.10474922332E+03 -0.14847038804E+03  0.21507237822E+03  0.78376942830E+02 0.  0.
         25    2    1    2    0    0 -0.11068548589E+02  0.13234192697E+03  0.19554076103E+02  0.18348903045E+03  0.12509581928E+03 0.  0.
        -24    2    1    2    0    0  0.95314182266E+02 -0.27592703646E+02  0.12388522965E+03  0.17772816587E+03  0.79959991139E+02 0.  0.
        -13    1    3    3    0    0 -0.54086085929E+02 -0.11198508470E+03 -0.12334520746E+03  0.17515708404E+03  0.00000000000E+00 0.  1.
         14    1    3    3    0    0 -0.30159547748E+02  0.72358613746E+01 -0.25125180580E+02  0.39915294178E+02  0.00000000000E+00 0. -1.
         11    1    5    5    0    0  0.14074594844E+02  0.12919185591E+02  0.69111226751E+02  0.71703286113E+02  0.00000000000E+00 0. -1.
        -12    1    5    5    0    0  0.81239587422E+02 -0.40511889237E+02  0.54774002896E+02  0.10602487976E+03  0.00000000000E+00 0.  1.
          5    1    4    4  501    0 -0.50936590000E+02  0.83473798882E+01  0.10672400979E+02  0.52873315524E+02  0.41800000000E+01 0. -1.
         -5    1    4    4    0  501  0.39868041411E+02  0.12399454708E+03  0.88816751235E+01  0.13061571492E+03  0.41800000000E+01 0. -1.
</event>
<event>
11    1  0.8039394E-009  0.1484793E+03  0.7561462E-02  0.1098443E+00
         22   -1    0    0    0    0  0.00000000000E+00  0.00000000000E+00  0.26586661446E+03  0.26586661446E+03  0.00000000000E+00 0.  1.
         22   -1    0    0    0    0 -0.00000000000E+00 -0.00000000000E+00 -0.18292888408E+04  0.18292888408E+04  0.00000000000E+00 0. -1.
        -24    2    1    2    0    0  0.48431973062E+01 -0.36245490594E+02 -0.16931841055E+04  0.16955304230E+04  0.81325322769E+02 0.  0.
         25    2    1    2    0    0  0.74422965540E+02  0.46001736206E+02 -0.71776999312E+02  0.16871697145E+03  0.12513409324E+03 0.  0.
         24    2    1    2    0    0 -0.79266162846E+02 -0.97562456116E+01  0.20153887843E+03  0.23090806083E+03  0.79512918029E+02 0.  0.
        -11    1    5    5    0    0 -0.58837964703E+02 -0.43197723182E+02  0.14139498737E+03  0.15912413969E+03  0.00000000000E+00 0.  1.
         12    1    5    5    0    0 -0.20428198143E+02  0.33441477571E+02  0.60143891059E+02  0.71783921133E+02  0.00000000000E+00 0. -1.
         11    1    3    3    0    0 -0.31241354769E+02 -0.23101044291E+02 -0.42702410151E+03  0.42878813389E+03  0.00000000000E+00 0. -1.
        -12    1    3    3    0    0  0.36084552075E+02 -0.13144446304E+02 -0.12661600040E+04  0.12667422891E+04  0.00000000000E+00 0.  1.
          5    1    4    4  501    0  0.59547716911E+02  0.74859209832E+02 -0.89869638718E+02  0.13131586442E+03  0.41800000000E+01 0. -1.
         -5    1    4    4    0  501  0.14875248629E+02 -0.28857473626E+02  0.18092639406E+02  0.37401107023E+02  0.41800000000E+01 0. -1.
</event>
<event>
11    1  0.8039394E-009  0.1389805E+03  0.7561462E-02  0.1108702E+00
         22   -1    0    0    0    0  0.00000000000E+00  0.00000000000E+00  0.59167920825E+03  0.59167920825E+03  0.00000000000E+00 0.  1.
         22   -1    0    0    0    0 -0.00000000000E+00 -0.00000000000E+00 -0.68767201410E+03  0.68767201410E+03  0.00000000000E+00 0.  1.
        -24    2    1    2    0    0  0.18811846541E+02  0.57962950884E+02 -0.65570988061E+03  0.66376157751E+03  0.83128785713E+02 0.  0.
         25    2    1    2    0    0 -0.20261575546E+01 -0.44662429017E+02  0.16393723151E+03  0.21100172104E+03  0.12508985782E+03 0.  0.
         24    2    1    2    0    0 -0.16785688986E+02 -0.13300521868E+02  0.39577984325E+03  0.40458792379E+03  0.81185223537E+02 0.  0.
        -13    1    5    5    0    0 -0.42039392712E+01  0.32784695959E+02  0.21843182156E+03  0.22091846927E+03  0.00000000000E+00 0.  1.
         14    1    5    5    0    0 -0.12581749715E+02 -0.46085217827E+02  0.17734802169E+03  0.18366945452E+03  0.00000000000E+00 0. -1.
         11    1    3    3    0    0 -0.21614326304E+02  0.35296279638E+02 -0.14044677099E+03  0.14641824319E+03  0.00000000000E+00 0. -1.
        -12    1    3    3    0    0  0.40426172845E+02  0.22666671247E+02 -0.51526310962E+03  0.51734333432E+03  0.00000000000E+00 0.  1.
          5    1    4    4  501    0  0.18013977455E+02  0.28119106174E+02  0.37434444436E+01  0.33862564759E+02  0.41800000000E+01 0. -1.
         -5    1    4    4    0  501 -0.20040135009E+02 -0.72781535190E+02  0.16019378706E+03  0.17713915629E+03  0.41800000000E+01 0. -1.
</event>
<event>
11    1  0.8039394E-009  0.1567293E+03  0.7561462E-02  0.1090194E+00
         22   -1    0    0    0    0  0.00000000000E+00  0.00000000000E+00  0.22659036749E+04  0.22659036749E+04  0.00000000000E+00 0. -1.
         22   -1    0    0    0    0 -0.00000000000E+00 -0.00000000000E+00 -0.26369410858E+03  0.26369410858E+03  0.00000000000E+00 0. -1.
         24    2    1    2    0    0  0.83684421763E+02  0.37571492365E+02 -0.16859149016E+03  0.20806971435E+03  0.80344358785E+02 0.  0.
         25    2    1    2    0    0 -0.17611835537E+03 -0.35061869580E+02  0.89185803428E+02  0.23631641831E+03  0.12507730502E+03 0.  0.
        -24    2    1    2    0    0  0.92433933610E+02 -0.25096227844E+01  0.20816152531E+04  0.20852116508E+04  0.80219926939E+02 0.  0.
        -13    1    3    3    0    0 -0.13445227374E+02 -0.41176690718E+01 -0.91559904845E+01  0.16779794381E+02  0.00000000000E+00 0.  1.
         14    1    3    3    0    0  0.97129649137E+02  0.41689161436E+02 -0.15943549968E+03  0.19128991997E+03  0.00000000000E+00 0. -1.
         13    1    5    5    0    0  0.90791886598E+02 -0.24987878945E+02  0.13662122298E+04  0.13694536931E+04  0.00000000000E+00 0. -1.
        -14    1    5    5    0    0  0.16420470121E+01  0.22478256160E+02  0.71540302327E+03  0.71575795771E+03  0.00000000000E+00 0.  1.
          5    1    4    4  501    0 -0.42237912395E+02 -0.37073217032E+02  0.85379594979E+02  0.10230157527E+03  0.41800000000E+01 0. -1.
         -5    1    4    4    0  501 -0.13388044298E+03  0.20113474521E+01  0.38062084496E+01  0.13401484303E+03  0.41800000000E+01 0. -1.
</event>
<event>
11    1  0.8039394E-009  0.2219214E+03  0.7561462E-02  0.1040020E+00
         22   -1    0    0    0    0  0.00000000000E+00  0.00000000000E+00  0.21156988254E+03  0.21156988254E+03  0.00000000000E+00 0. -1.
         22   -1    0    0    0    0 -0.00000000000E+00 -0.00000000000E+00 -0.10446265145E+04  0.10446265145E+04  0.00000000000E+00 0. -1.
         24    2    1    2    0    0 -0.13768685911E+02 -0.18829454142E+03 -0.78132657670E+03  0.80746848535E+03  0.76744539503E+02 0.  0.
         25    2    1    2    0    0  0.95784154137E+02  0.15068604858E+03 -0.17244762394E+03  0.27796849073E+03  0.12508960556E+03 0.  0.
        -24    2    1    2    0    0 -0.82015468226E+02  0.37608492838E+02  0.12071756868E+03  0.17075942096E+03  0.80281459234E+02 0.  0.
        -11    1    3    3    0    0 -0.24415320175E+02 -0.16198077283E+02 -0.78199041118E+02  0.83507937339E+02  0.00000000000E+00 0.  1.
         12    1    3    3    0    0  0.10646634263E+02 -0.17209646413E+03 -0.70312753558E+03  0.72396054801E+03  0.00000000000E+00 0. -1.
         11    1    5    5    0    0 -0.94613916194E+02  0.24877284301E+02  0.11692068585E+03  0.15245038272E+03  0.00000000000E+00 0. -1.
        -12    1    5    5    0    0  0.12598447968E+02  0.12731208536E+02  0.37968828265E+01  0.18309038238E+02  0.00000000000E+00 0.  1.
          5    1    4    4  501    0  0.44932412116E+00  0.11181102021E+03 -0.66418388319E+02  0.13011833399E+03  0.41800000000E+01 0. -1.
         -5    1    4    4    0  501  0.95334830016E+02  0.38875028370E+02 -0.10602923562E+03  0.14785015675E+03  0.41800000000E+01 0. -1.
</event>
<event>
11    1  0.8039394E-009  0.1460947E+03  0.7561462E-02  0.1100937E+00
         22   -1    0    0    0    0  0.00000000000E+00  0.00000000000E+00  0.24876552655E+04  0.24876552655E+04  0.00000000000E+00 0. -1.
         22   -1    0    0    0    0 -0.00000000000E+00 -0.00000000000E+00 -0.62507835974E+03  0.62507835974E+03  0.00000000000E+00 0.  1.
         24    2    1    2    0    0  0.51356841648E+02 -0.53503333748E+02 -0.57325632480E+03  0.58371317319E+03  0.81228829394E+02 0.  0.
         25    2    1    2    0    0 -0.10333668670E+03  0.63005943276E+02  0.12054238403E+03  0.21172080058E+03  0.12508801439E+03 0.  0.
        -24    2    1    2    0    0  0.51979845055E+02 -0.95026095279E+01  0.23152908466E+04  0.23172996515E+04  0.80707910429E+02 0.  0.
        -11    1    3    3    0    0 -0.41758069087E+01 -0.37424035731E+01 -0.31131376186E+03  0.31136425818E+03  0.00000000000E+00 0.  1.
         12    1    3    3    0    0  0.55532648557E+02 -0.49760930175E+02 -0.26194256294E+03  0.27234891501E+03  0.00000000000E+00 0. -1.
         11    1    5    5    0    0  0.44731730818E+02 -0.38403508068E+02  0.19123988041E+04  0.19133073310E+04  0.00000000000E+00 0. -1.
        -12    1    5    5    0    0  0.72481142370E+01  0.28900898541E+02  0.40289204249E+03  0.40399232047E+03  0.00000000000E+00 0.  1.
          5    1    4    4  501    0  0.22106666730E+02  0.38895534072E+02  0.43206616933E+02  0.62336597850E+02  0.41800000000E+01 0. -1.
         -5    1    4    4    0  501 -0.12544335343E+03  0.24110409204E+02  0.77335767100E+02  0.14938420273E+03  0.41800000000E+01 0. -1.
</event>
<event>
11    1  0.8039394E-009  0.1363092E+03  0.7561462E-02  0.1111751E+00
         22   -1    0    0    0    0  0.00000000000E+00  0.00000000000E+00  0.32205766129E+03  0.32205766129E+03  0.00000000000E+00 0.  1.
         22   -1    0    0    0    0 -0.00000000000E+00 -0.00000000000E+00 -0.51619877876E+03  0.51619877876E+03  0.00000000000E+00 0.  1.
        -24    2    1    2    0    0  0.50578056974E+02  0.18780947932E+02 -0.41990557986E+03  0.43105067540E+03  0.81074810612E+02 0.  0.
         25    2    1    2    0    0 -0.48327588525E+02 -0.31115521349E+02 -0.28125053402E+02  0.14050464406E+03  0.12508718916E+03 0.  0.
         24    2    1    2    0    0 -0.22504684491E+01  0.12334573416E+02  0.25388951579E+03  0.26670112059E+03  0.80699412561E+02 0.  0.
        -11    1    5    5    0    0  0.27010576523E+01  0.28353063608E+02  0.24689821341E+03  0.24853555020E+03  0.00000000000E+00 0.  1.
         12    1    5    5    0    0 -0.49515261013E+01 -0.16018490191E+02  0.69913023815E+01  0.18165570394E+02  0.00000000000E+00 0. -1.
         13    1    3    3    0    0  0.44882994875E+01  0.44336310427E+02 -0.18166812227E+03  0.18705389572E+03  0.00000000000E+00 0. -1.
        -14    1    3    3    0    0  0.46089757486E+02 -0.25555362495E+02 -0.23823745758E+03  0.24399677968E+03  0.00000000000E+00 0.  1.
          5    1    4    4  501    0 -0.34554828989E+02  0.28283328237E+02  0.31746188182E+02  0.54947936510E+02  0.41800000000E+01 0.  1.
         -5    1    4    4    0  501 -0.13772759536E+02 -0.59398849585E+02 -0.59871241584E+02  0.85556707546E+02  0.41800000000E+01 0.  1.
</event>
<event>
11    1  0.8039394E-009  0.1383749E+03  0.7561462E-02  0.1109387E+00
         22   -1    0    0    0    0  0.00000000000E+00  0.00000000000E+00  0.17600308957E+04  0.17600308957E+04  0.00000000000E+00 0.  1.
         22   -1    0    0    0    0 -0.00000000000E+00 -0.00000000000E+00 -0.11128650939E+04  0.11128650939E+04  0.00000000000E+00 0.  1.
         24    2    1    2    0    0  0.88256649683E+00 -0.21486804294E+02 -0.10986497825E+04  0.11018777222E+04  0.81490541909E+02 0.  0.
         25    2    1    2    0    0 -0.98324381607E+01  0.76694328710E+02  0.49479568382E+03  0.51618736620E+03  0.12509169197E+03 0.  0.
        -24    2    1    2    0    0  0.89498716639E+01 -0.55207524416E+02  0.12510199005E+04  0.12548309011E+04  0.80136308090E+02 0.  0.
        -13    1    3    3    0    0 -0.11229246535E+02 -0.27091216602E+02 -0.10685460176E+04  0.10689483719E+04  0.00000000000E+00 0.  1.
         14    1    3    3    0    0  0.12111813031E+02  0.56044123083E+01 -0.30103764890E+02  0.32929350324E+02  0.00000000000E+00 0. -1.
         11    1    5    5    0    0 -0.29593439324E+02 -0.45383346968E+02  0.88480970392E+03  0.88646693789E+03  0.00000000000E+00 0. -1.
        -12    1    5    5    0    0  0.38543310988E+02 -0.98241774481E+01  0.36621019659E+03  0.36836396318E+03  0.00000000000E+00 0.  1.
          5    1    4    4  501    0 -0.46277274863E+02  0.13397943226E+02  0.69643185273E+02  0.84786418172E+02  0.41800000000E+01 0.  1.
         -5    1    4    4    0  501  0.36444836702E+02  0.63296385484E+02  0.42515249855E+03  0.43140094803E+03  0.41800000000E+01 0.  1.
</event>
<event>
11    1  0.8039394E-009  0.1659381E+03  0.7561462E-02  0.1081622E+00
         22   -1    0    0    0    0  0.00000000000E+00  0.00000000000E+00  0.14761767211E+03  0.14761767211E+03  0.00000000000E+00 0.  1.
         22   -1    0    0    0    0 -0.00000000000E+00 -0.00000000000E+00 -0.14253515883E+04  0.14253515883E+04  0.00000000000E+00 0.  1.
         24    2    1    2    0    0 -0.10566015456E+03  0.21654744309E+02 -0.10932157914E+04  0.11015914450E+04  0.82158072235E+02 0.  0.
         25    2    1    2    0    0  0.11203510243E+03 -0.28534961700E+02 -0.29141822151E+03  0.33754742430E+03  0.12509026984E+03 0.  0.
        -24    2    1    2    0    0 -0.63749478708E+01  0.68802173906E+01  0.10690009678E+03  0.13383039108E+03  0.79968528392E+02 0.  0.
        -13    1    3    3    0    0 -0.40789622672E+01 -0.26927594399E+00 -0.45127605883E+03  0.45129457311E+03  0.00000000000E+00 0.  1.
         14    1    3    3    0    0 -0.10158119230E+03  0.21924020253E+02 -0.64193973259E+03  0.65029687188E+03  0.00000000000E+00 0. -1.
         13    1    5    5    0    0  0.53196441208E+01 -0.23855265938E+01 -0.12346614325E+02  0.13653872564E+02  0.00000000000E+00 0. -1.
        -14    1    5    5    0    0 -0.11694591992E+02  0.92657439844E+01  0.11924671110E+03  0.12017651852E+03  0.00000000000E+00 0.  1.
          5    1    4    4  501    0  0.11766994646E+03 -0.35599656673E+02 -0.30010356321E+03  0.32433497022E+03  0.41800000000E+01 0. -1.
         -5    1    4    4    0  501 -0.56348440280E+01  0.70646949729E+01  0.86853417057E+01  0.13212454080E+02  0.41800000000E+01 0. -1.
</event>
<event>
11    1  0.8039394E-009  0.1388982E+03  0.7561462E-02  0.1108795E+00
         22   -1    0    0    0    0  0.00000000000E+00  0.00000000000E+00  0.24003503608E+04  0.24003503608E+04  0.00000000000E+00 0. -1.
         22   -1    0    0    0    0 -0.00000000000E+00 -0.00000000000E+00 -0.10672122316E+04  0.10672122316E+04  0.00000000000E+00 0.  1.
         24    2    1    2    0    0  0.17649596627E+02 -0.57683877191E+02 -0.10529795317E+04  0.10576065821E+04  0.78274199729E+02 0.  0.
         25    2    1    2    0    0 -0.37646275368E+02  0.63143931682E+02  0.46947308316E+03  0.49138247810E+03  0.12508943127E+03 0.  0.
        -24    2    1    2    0    0  0.19996678742E+02 -0.54600544906E+01  0.19166445778E+04  0.19185735323E+04  0.83476235276E+02 0.  0.
        -11    1    3    3    0    0 -0.30521771202E+02 -0.30820916435E+02 -0.50414336035E+03  0.50600596359E+03  0.00000000000E+00 0.  1.
         12    1    3    3    0    0  0.48171367828E+02 -0.26862960757E+02 -0.54883617134E+03  0.55160061848E+03  0.00000000000E+00 0. -1.
         11    1    5    5    0    0  0.49467010049E+02 -0.19491714835E+02  0.12503794525E+04  0.12515093636E+04  0.00000000000E+00 0. -1.
        -12    1    5    5    0    0 -0.29470331308E+02  0.14031660344E+02  0.66626512528E+03  0.66706416864E+03  0.00000000000E+00 0.  1.
          5    1    4    4  501    0 -0.30631854758E+02  0.15292958024E+02  0.42226025570E+03  0.42366659183E+03  0.41800000000E+01 0.  1.
         -5    1    4    4    0  501 -0.70144206107E+01  0.47850973658E+02  0.47212827465E+02  0.67715886273E+02  0.41800000000E+01 0.  1.
</event>
<event>
11    1  0.8039394E-009  0.1318429E+03  0.7561462E-02  0.1117025E+00
         22   -1    0    0    0    0  0.00000000000E+00  0.00000000000E+00  0.61986589182E+02  0.61986589182E+02  0.00000000000E+00 0. -1.
         22   -1    0    0    0    0 -0.00000000000E+00 -0.00000000000E+00 -0.13786879539E+04  0.13786879539E+04  0.00000000000E+00 0. -1.
        -24    2    1    2    0    0 -0.32476649237E+02  0.13973127504E+02 -0.99958427912E+03  0.10034377435E+04  0.80427563204E+02 0.  0.
         25    2    1    2    0    0  0.45551212554E+02  0.25741989071E+02 -0.31769465110E+03  0.34542003862E+03  0.12509016260E+03 0.  0.
         24    2    1    2    0    0 -0.13074563317E+02 -0.39715116575E+02  0.57756552274E+00  0.91816760964E+02  0.81741967932E+02 0.  0.
        -11    1    5    5    0    0  0.36409974320E+01  0.11533975928E+02 -0.28218499942E+02  0.30701355052E+02  0.00000000000E+00 0.  1.
         12    1    5    5    0    0 -0.16715560749E+02 -0.51249092503E+02  0.28796065465E+02  0.61115405912E+02  0.00000000000E+00 0. -1.
         11    1    3    3    0    0 -0.29340712773E+02  0.14163334123E+02 -0.99976038688E+03  0.10002911119E+04  0.00000000000E+00 0. -1.
        -12    1    3    3    0    0 -0.31359364639E+01 -0.19020661917E+00  0.17610775524E+00  0.31466315331E+01  0.00000000000E+00 0.  1.
          5    1    4    4  501    0  0.31038580795E+02 -0.79381380969E+01 -0.30451829763E+03  0.30622748656E+03  0.41800000000E+01 0.  1.
         -5    1    4    4    0  501  0.14512631759E+02  0.33680127168E+02 -0.13176353473E+02  0.39192552066E+02  0.41800000000E+01 0.  1.
</event>
<event>
11    1  0.8039394E-009  0.1590096E+03  0.7561462E-02  0.1088012E+00
         22   -1    0    0    0    0  0.00000000000E+00  0.00000000000E+00  0.15494575986E+03  0.15494575986E+03  0.00000000000E+00 0. -1.
         22   -1    0    0    0    0 -0.00000000000E+00 -0.00000000000E+00 -0.13476699762E+04  0.13476699762E+04  0.00000000000E+00 0.  1.
         24    2    1    2    0    0  0.76386407496E+02 -0.62808164848E+02 -0.12129565405E+04  0.12196047867E+04  0.79953222584E+02 0.  0.
         25    2    1    2    0    0 -0.59730178418E+02  0.64547492546E+02 -0.66084906316E+02  0.16657988053E+03  0.12509024241E+03 0.  0.
        -24    2    1    2    0    0 -0.16656229078E+02 -0.17393276974E+01  0.86317230493E+02  0.11643106880E+03  0.76322174201E+02 0.  0.
        -13    1    3    3    0    0  0.51181790379E+02 -0.77731646305E+02 -0.75540295759E+03  0.76111458588E+03  0.00000000000E+00 0.  1.
         14    1    3    3    0    0  0.25204617117E+02  0.14923481457E+02 -0.45755358294E+03  0.45849020086E+03  0.00000000000E+00 0. -1.
         11    1    5    5    0    0  0.20765999082E+01  0.20324786364E+02  0.85039275098E+02  0.87459061949E+02  0.00000000000E+00 0. -1.
        -12    1    5    5    0    0 -0.18732828987E+02 -0.22064114062E+02  0.12779553953E+01  0.28972006854E+02  0.00000000000E+00 0.  1.
          5    1    4    4  501    0 -0.53983343064E+01 -0.36881050716E+02 -0.12088215821E+02  0.39407502800E+02  0.41800000000E+01 0.  1.
         -5    1    4    4    0  501 -0.54331844111E+02  0.10142854326E+03 -0.53996690495E+02  0.12717237773E+03  0.41800000000E+01 0.  1.
</event>
<event>
11    1  0.8039394E-009  0.1466453E+03  0.7561462E-02  0.1100357E+00
         22   -1    0    0    0    0  0.00000000000E+00  0.00000000000E+00  0.11972858667E+04  0.11972858667E+04  0.00000000000E+00 0.  1.
         22   -1    0    0    0    0 -0.00000000000E+00 -0.00000000000E+00 -0.15340392839E+04  0.15340392839E+04  0.00000000000E+00 0.  1.
         24    2    1    2    0    0  0.64890585712E+02  0.16302250060E+02 -0.88965676268E+03  0.89591351241E+03  0.81824903653E+02 0.  0.
         25    2    1    2    0    0 -0.98436922318E+02 -0.57237202855E+02 -0.62806233782E+03  0.65044614446E+03  0.12510779986E+03 0.  0.
        -24    2    1    2    0    0  0.33546336606E+02  0.40934952795E+02  0.11809656833E+04  0.11849654937E+04  0.81622602171E+02 0.  0.
        -13    1    3    3    0    0  0.59949296744E+02  0.33969605082E+02 -0.84251492447E+03  0.84532789509E+03  0.00000000000E+00 0.  1.
         14    1    3    3    0    0  0.49412889685E+01 -0.17667355022E+02 -0.47141838206E+02  0.50585617320E+02  0.00000000000E+00 0. -1.
         11    1    5    5    0    0 -0.18453269470E+02  0.41271837135E+02  0.52698398321E+03  0.52891965954E+03  0.00000000000E+00 0. -1.
        -12    1    5    5    0    0  0.51999606075E+02 -0.33688434009E+00  0.65398170007E+03  0.65604583418E+03  0.00000000000E+00 0.  1.
          5    1    4    4  501    0 -0.10411588024E+03 -0.22541520097E+02 -0.26469370851E+03  0.28535673879E+03  0.41800000000E+01 0. -1.
         -5    1    4    4    0  501  0.56789579258E+01 -0.34695682758E+02 -0.36336862930E+03  0.36508940566E+03  0.41800000000E+01 0. -1.
</event>
<event>
11    1  0.8039394E-009  0.1450050E+03  0.7561462E-02  0.1102095E+00
         22   -1    0    0    0    0  0.00000000000E+00  0.00000000000E+00  0.16304017493E+04  0.16304017493E+04  0.00000000000E+00 0. -1.
         22   -1    0    0    0    0 -0.00000000000E+00 -0.00000000000E+00 -0.16003778118E+04  0.16003778118E+04  0.00000000000E+00 0. -1.
        -24    2    1    2    0    0  0.47471970776E+02 -0.14414074537E+02 -0.14168262225E+04  0.14199847247E+04  0.80614639748E+02 0.  0.
         25    2    1    2    0    0 -0.72664609798E+02  0.82960418527E+02 -0.14153827867E+03  0.21873388427E+03  0.12509536858E+03 0.  0.
         24    2    1    2    0    0  0.25192639022E+02 -0.68546343990E+02  0.15883884386E+04  0.15920609521E+04  0.79667892126E+02 0.  0.
        -11    1    5    5    0    0  0.14350575657E+02  0.93165109679E+01  0.69774598779E+03  0.69795572916E+03  0.00000000000E+00 0.  1.
         12    1    5    5    0    0  0.10842063365E+02 -0.77862854958E+02  0.89064245081E+03  0.89410522295E+03  0.00000000000E+00 0. -1.
         11    1    3    3    0    0  0.52152775859E+02 -0.33034933861E+02 -0.13095141618E+04  0.13109685575E+04  0.00000000000E+00 0. -1.
        -12    1    3    3    0    0 -0.46808050829E+01  0.18620859324E+02 -0.10731206072E+03  0.10901616722E+03  0.00000000000E+00 0.  1.
          5    1    4    4  501    0 -0.97890177742E+01 -0.31448427814E+02 -0.13534335166E+02  0.35853578752E+02  0.41800000000E+01 0.  1.
         -5    1    4    4    0  501 -0.62875592024E+02  0.11440884634E+03 -0.12800394350E+03  0.18288030551E+03  0.41800000000E+01 0.  1.
</event>
<event>
11    1  0.8039394E-009  0.1367178E+03  0.7561462E-02  0.1111280E+00
         22   -1    0    0    0    0  0.00000000000E+00  0.00000000000E+00  0.36713072301E+03  0.36713072301E+03  0.00000000000E+00 0. -1.
         22   -1    0    0    0    0 -0.00000000000E+00 -0.00000000000E+00 -0.73257030255E+02  0.73257030255E+02  0.00000000000E+00 0.  1.
        -24    2    1    2    0    0 -0.37237135911E+02 -0.23196175041E+01  0.30758743614E+02  0.87469608556E+02  0.72889280392E+02 0.  0.
         25    2    1    2    0    0 -0.30061320450E+02 -0.15512765886E+02  0.12799472387E+03  0.18214041518E+03  0.12509257616E+03 0.  0.
         24    2    1    2    0    0  0.67298456361E+02  0.17832383390E+02  0.13512022527E+03  0.17077772953E+03  0.77849094403E+02 0.  0.
        -11    1    5    5    0    0  0.20960891099E+02 -0.23059812206E+02  0.12716781696E+02  0.33657546425E+02  0.00000000000E+00 0.  1.
         12    1    5    5    0    0  0.46337565262E+02  0.40892195597E+02  0.12240344357E+03  0.13712018310E+03  0.00000000000E+00 0. -1.
         13    1    3    3    0    0  0.12644709166E+02 -0.22922606065E+02  0.18693849709E+02  0.32168222762E+02  0.00000000000E+00 0. -1.
        -14    1    3    3    0    0 -0.49881845077E+02  0.20602988560E+02  0.12064893905E+02  0.55301385795E+02  0.00000000000E+00 0.  1.
          5    1    4    4  501    0 -0.19824818072E+02 -0.46562850701E+02  0.84368635689E+00  0.50786875113E+02  0.41800000000E+01 0. -1.
         -5    1    4    4    0  501 -0.10236502378E+02  0.31050084815E+02  0.12715103751E+03  0.13135354007E+03  0.41800000000E+01 0. -1.
</event>
<event>
11    1  0.8039394E-009  0.2296303E+03  0.7561462E-02  0.1035347E+00
         22   -1    0    0    0    0  0.00000000000E+00  0.00000000000E+00  0.36662140395E+03  0.36662140395E+03  0.00000000000E+00 0. -1.
         22   -1    0    0    0    0 -0.00000000000E+00 -0.00000000000E+00 -0.20925385910E+04  0.20925385910E+04  0.00000000000E+00 0.  1.
        -24    2    1    2    0    0 -0.20713269527E+01 -0.79180550254E+02 -0.19078527646E+04  0.19112034581E+04  0.80762844315E+02 0.  0.
         25    2    1    2    0    0  0.63852561045E+02  0.24355948371E+03 -0.23502038426E+01  0.28116211052E+03  0.12509291457E+03 0.  0.
         24    2    1    2    0    0 -0.61781234093E+02 -0.16437893346E+03  0.18428578134E+03  0.26679442636E+03  0.79879046565E+02 0.  0.
        -11    1    5    5    0    0 -0.24052820718E+02 -0.95635440980E+01  0.57862451409E+02  0.63388191670E+02  0.00000000000E+00 0.  1.
         12    1    5    5    0    0 -0.37728413375E+02 -0.15481538936E+03  0.12642332993E+03  0.20340623469E+03  0.00000000000E+00 0. -1.
         13    1    3    3    0    0 -0.15896712334E+02  0.78590779583E+01 -0.13475714319E+03  0.13591893985E+03  0.00000000000E+00 0. -1.
        -14    1    3    3    0    0  0.13825385381E+02 -0.87039628212E+02 -0.17730956214E+04  0.17752845183E+04  0.00000000000E+00 0.  1.
          5    1    4    4  501    0 -0.31116407404E+02  0.45951212955E+02  0.23398195637E+02  0.60371290700E+02  0.41800000000E+01 0.  1.
         -5    1    4    4    0  501  0.94968968449E+02  0.19760827076E+03 -0.25748399479E+02  0.22079081982E+03  0.41800000000E+01 0.  1.
</event>
<event>
11    1  0.8039394E-009  0.2010193E+03  0.7561462E-02  0.1053805E+00
         22   -1    0    0    0    0  0.00000000000E+00  0.00000000000E+00  0.26723103701E+04  0.26723103701E+04  0.00000000000E+00 0.  1.
         22   -1    0    0    0    0 -0.00000000000E+00 -0.00000000000E+00 -0.42702300442E+03  0.42702300442E+03  0.00000000000E+00 0.  1.
        -24    2    1    2    0    0  0.21486964696E+02 -0.13404882520E+02 -0.40612718154E+03  0.41504024231E+03  0.81717407133E+02 0.  0.
         25    2    1    2    0    0 -0.75474582091E+02 -0.13572427720E+03  0.80552627856E+03  0.82984227363E+03  0.12509245252E+03 0.  0.
         24    2    1    2    0    0  0.53987617395E+02  0.14912915972E+03  0.18458882686E+04  0.18544508585E+04  0.80810379254E+02 0.  0.
        -11    1    5    5    0    0  0.64960222762E+02  0.75385178121E+02  0.12414083681E+04  0.12453904978E+04  0.00000000000E+00 0.  1.
         12    1    5    5    0    0 -0.10972605367E+02  0.73743981598E+02  0.60447990051E+03  0.60906036073E+03  0.00000000000E+00 0. -1.
         11    1    3    3    0    0 -0.53856307327E+01  0.11434429260E+02 -0.74181016351E+01  0.14655354747E+02  0.00000000000E+00 0. -1.
        -12    1    3    3    0    0  0.26872595429E+02 -0.24839311780E+02 -0.39870907990E+03  0.40038488757E+03  0.00000000000E+00 0.  1.
          5    1    4    4  501    0  0.24190864504E+02  0.64665704294E+01  0.11978460228E+03  0.12244524410E+03  0.41800000000E+01 0. -1.
         -5    1    4    4    0  501 -0.99665446595E+02 -0.14219084763E+03  0.68574167629E+03  0.70739702953E+03  0.41800000000E+01 0. -1.
</event>
<event>
11    1  0.8039394E-009  0.1762988E+03  0.7561462E-02  0.1072677E+00
         22   -1    0    0    0    0  0.00000000000E+00  0.00000000000E+00  0.45660401445E+04  0.45660401445E+04  0.00000000000E+00 0.  1.
         22   -1    0    0    0    0 -0.00000000000E+00 -0.00000000000E+00 -0.62033075233E+03  0.62033075233E+03  0.00000000000E+00 0.  1.
        -24    2    1    2    0    0 -0.10201177550E+03 -0.10280717521E+02 -0.58722947017E+03  0.60155110378E+03  0.80704301859E+02 0.  0.
         25    2    1    2    0    0  0.19382055652E+03  0.87402707559E+02  0.59314566623E+03  0.64239854209E+03  0.12509382119E+03 0.  0.
         24    2    1    2    0    0 -0.91808781017E+02 -0.77121990037E+02  0.39397931961E+04  0.39424212510E+04  0.79613053376E+02 0.  0.
        -13    1    5    5    0    0 -0.59664344249E+02 -0.73803873241E+02  0.35571908629E+04  0.35584566431E+04  0.00000000000E+00 0.  1.
         14    1    5    5    0    0 -0.32144436768E+02 -0.33181167967E+01  0.38260233324E+03  0.38396460789E+03  0.00000000000E+00 0. -1.
         11    1    3    3    0    0  0.69855977496E+01 -0.14497045286E+02 -0.33306660416E+02  0.36990492373E+02  0.00000000000E+00 0. -1.
        -12    1    3    3    0    0 -0.10899737325E+03  0.42163277641E+01 -0.55392280975E+03  0.56456061141E+03  0.00000000000E+00 0.  1.
          5    1    4    4  501    0  0.20730121037E+03  0.91386708818E+02  0.51143574787E+03  0.55938298059E+03  0.41800000000E+01 0. -1.
         -5    1    4    4    0  501 -0.13480653852E+02 -0.39840012589E+01  0.81709918356E+02  0.83015561505E+02  0.41800000000E+01 0. -1.
</event>
<event>
11    1  0.8039394E-009  0.1602053E+03  0.7561462E-02  0.1086884E+00
         22   -1    0    0    0    0  0.00000000000E+00  0.00000000000E+00  0.90722479069E+03  0.90722479069E+03  0.00000000000E+00 0.  1.
         22   -1    0    0    0    0 -0.00000000000E+00 -0.00000000000E+00 -0.22632039949E+03  0.22632039949E+03  0.00000000000E+00 0. -1.
        -24    2    1    2    0    0  0.91278677871E+02 -0.42929716964E+02 -0.18695857203E+03  0.22638085596E+03  0.78230599258E+02 0.  0.
         25    2    1    2    0    0 -0.60506314028E+02  0.68702574948E+02  0.38026794616E+03  0.41065041509E+03  0.12509594196E+03 0.  0.
         24    2    1    2    0    0 -0.30772363843E+02 -0.25772857985E+02  0.48759501707E+03  0.49651391913E+03  0.84652186188E+02 0.  0.
        -11    1    5    5    0    0 -0.19726933764E+02 -0.80019213493E+01  0.46585263316E+03  0.46633878080E+03  0.00000000000E+00 0.  1.
         12    1    5    5    0    0 -0.11045430079E+02 -0.17770936635E+02  0.21742383917E+02  0.30175138325E+02  0.00000000000E+00 0. -1.
         11    1    3    3    0    0  0.56958315040E+02 -0.56969383289E+02 -0.16413463439E+03  0.18283855854E+03  0.00000000000E+00 0. -1.
        -12    1    3    3    0    0  0.34320362832E+02  0.14039666325E+02 -0.22823937641E+02  0.43542297423E+02  0.00000000000E+00 0.  1.
          5    1    4    4  501    0 -0.22828401074E+02 -0.27311727876E+02  0.19767736424E+03  0.20090017200E+03  0.41800000000E+01 0. -1.
         -5    1    4    4    0  501 -0.37677912955E+02  0.96014302824E+02  0.18259058192E+03  0.20975024309E+03  0.41800000000E+01 0. -1.
</event>
<event>
11    1  0.8039394E-009  0.1859546E+03  0.7561462E-02  0.1064925E+00
         22   -1    0    0    0    0  0.00000000000E+00  0.00000000000E+00  0.25892161724E+03  0.25892161724E+03  0.00000000000E+00 0. -1.
         22   -1    0    0    0    0 -0.00000000000E+00 -0.00000000000E+00 -0.64128023549E+03  0.64128023549E+03  0.00000000000E+00 0. -1.
         24    2    1    2    0    0  0.12362724190E+03  0.51007428627E+02 -0.40480895494E+03  0.43353932463E+03  0.78743909539E+02 0.  0.
         25    2    1    2    0    0 -0.12715388926E+03 -0.82761321174E+02 -0.16719278565E+03  0.25810562517E+03  0.12509012085E+03 0.  0.
        -24    2    1    2    0    0  0.35266473568E+01  0.31753892547E+02  0.18964312234E+03  0.20855690292E+03  0.80689038712E+02 0.  0.
        -11    1    3    3    0    0  0.92831381466E+01  0.18188474384E+02 -0.13333398510E+02  0.24388045639E+02  0.00000000000E+00 0.  1.
         12    1    3    3    0    0  0.11434410376E+03  0.32818954243E+02 -0.39147555643E+03  0.40915127899E+03  0.00000000000E+00 0. -1.
         13    1    5    5    0    0  0.12884036090E+02  0.30791500888E+02  0.19492944036E+03  0.19776653314E+03  0.00000000000E+00 0. -1.
        -14    1    5    5    0    0 -0.93573887332E+01  0.96239165927E+00 -0.52863180175E+01  0.10790369771E+02  0.00000000000E+00 0.  1.
          5    1    4    4  501    0 -0.40654792772E+02 -0.99851161251E+02 -0.83018045146E+02  0.13613425285E+03  0.41800000000E+01 0. -1.
         -5    1    4    4    0  501 -0.86499096487E+02  0.17089840076E+02 -0.84174740509E+02  0.12197137232E+03  0.41800000000E+01 0. -1.
</event>
<event>
11    1  0.8039394E-009  0.1375597E+03  0.7561462E-02  0.1110314E+00
         22   -1    0    0    0    0  0.00000000000E+00  0.00000000000E+00  0.10498193793E+04  0.10498193793E+04  0.00000000000E+00 0.  1.
         22   -1    0    0    0    0 -0.00000000000E+00 -0.00000000000E+00 -0.50465658367E+03  0.50465658367E+03  0.00000000000E+00 0.  1.
        -24    2    1    2    0    0 -0.50890168674E+02  0.25987413043E+02 -0.46384762465E+03  0.47404732393E+03  0.79379414989E+02 0.  0.
         25    2    1    2    0    0  0.76468171723E+02  0.19472024931E+02  0.13230374197E+03  0.19844071100E+03  0.12509154488E+03 0.  0.
         24    2    1    2    0    0 -0.25578003049E+02 -0.45459437974E+02  0.87670667833E+03  0.88198792807E+03  0.81038945495E+02 0.  0.
        -11    1    5    5    0    0  0.10596261865E+02 -0.65436767840E+01  0.60537230277E+03  0.60550039260E+03  0.00000000000E+00 0.  1.
         12    1    5    5    0    0 -0.36174264914E+02 -0.38915761190E+02  0.27133437556E+03  0.27648753547E+03  0.00000000000E+00 0. -1.
         11    1    3    3    0    0  0.16902107470E+02 -0.96283163397E+01 -0.13542646492E+03  0.13681634813E+03  0.00000000000E+00 0. -1.
        -12    1    3    3    0    0 -0.67792276144E+02  0.35615729382E+02 -0.32842115972E+03  0.33723097580E+03  0.00000000000E+00 0.  1.
          5    1    4    4  501    0  0.28813321094E+02  0.43936806470E+02  0.13471181135E+03  0.14465612657E+03  0.41800000000E+01 0.  1.
         -5    1    4    4    0  501  0.47654850629E+02 -0.24464781538E+02 -0.24080693813E+01  0.53784584430E+02  0.41800000000E+01 0.  1.
</event>
<event>
11    1  0.8039394E-009  0.2315947E+03  0.7561462E-02  0.1034188E+00
         22   -1    0    0    0    0  0.00000000000E+00  0.00000000000E+00  0.20519558625E+03  0.20519558625E+03  0.00000000000E+00 0.  1.
         22   -1    0    0    0    0 -0.00000000000E+00 -0.00000000000E+00 -0.12724148215E+04  0.12724148215E+04  0.00000000000E+00 0. -1.
         24    2    1    2    0    0  0.37656008177E+02  0.31788914217E+02 -0.68432463807E+03  0.69067572372E+03  0.79399213122E+02 0.  0.
         25    2    1    2    0    0 -0.17778384677E+03 -0.15944076237E+03 -0.48655261668E+03  0.55624756008E+03  0.12509774748E+03 0.  0.
        -24    2    1    2    0    0  0.14012783859E+03  0.12765184815E+03  0.10365801954E+03  0.23068712392E+03  0.80874956839E+02 0.  0.
        -11    1    3    3    0    0 -0.45750698558E+01 -0.15107003764E+02 -0.36274141613E+02  0.39559653394E+02  0.00000000000E+00 0.  1.
         12    1    3    3    0    0  0.42231078033E+02  0.46895917982E+02 -0.64805049646E+03  0.65111607032E+03  0.00000000000E+00 0. -1.
         11    1    5    5    0    0  0.35991647068E+02  0.15388357649E+02  0.59679654021E+02  0.71371291945E+02  0.00000000000E+00 0. -1.
        -12    1    5    5    0    0  0.10413619152E+03  0.11226349050E+03  0.43978365517E+02  0.15931583197E+03  0.00000000000E+00 0.  1.
          5    1    4    4  501    0 -0.64538393869E+02 -0.40193006437E+02 -0.53665476508E+02  0.93156523220E+02  0.41800000000E+01 0.  1.
         -5    1    4    4    0  501 -0.11324545290E+03 -0.11924775593E+03 -0.43288714017E+03  0.46309103686E+03  0.41800000000E+01 0.  1.
</event>
<event>
11    1  0.8039394E-009  0.2744977E+03  0.7561462E-02  0.1011602E+00
         22   -1    0    0    0    0  0.00000000000E+00  0.00000000000E+00  0.54219926391E+02  0.54219926391E+02  0.00000000000E+00 0.  1.
         22   -1    0    0    0    0 -0.00000000000E+00 -0.00000000000E+00 -0.22160897364E+04  0.22160897364E+04  0.00000000000E+00 0. -1.
         24    2    1    2    0    0 -0.10014833549E+03  0.21875082236E+03 -0.14312002136E+04  0.14535991553E+04  0.82066080509E+02 0.  0.
         25    2    1    2    0    0  0.11557900894E+03 -0.22789396004E+03 -0.58462318445E+03  0.65016839352E+03  0.12506201584E+03 0.  0.
        -24    2    1    2    0    0 -0.15430673447E+02  0.91431376769E+01 -0.14604641199E+03  0.16654211398E+03  0.78006529362E+02 0.  0.
        -13    1    3    3    0    0 -0.63129654055E+02  0.16312733513E+03 -0.12084574063E+04  0.12210508521E+04  0.00000000000E+00 0.  1.
         14    1    3    3    0    0 -0.37018681436E+02  0.55623487231E+02 -0.22274280726E+03  0.23254830314E+03  0.00000000000E+00 0. -1.
         13    1    5    5    0    0  0.25831713766E+02 -0.36606972759E+01 -0.10022435263E+03  0.10356446784E+03  0.00000000000E+00 0. -1.
        -14    1    5    5    0    0 -0.41262387213E+02  0.12803834953E+02 -0.45822059365E+02  0.62977646133E+02  0.00000000000E+00 0.  1.
          5    1    4    4  501    0 -0.15984291866E+02 -0.74151012591E+02 -0.10509473315E+03  0.12967746755E+03  0.41800000000E+01 0.  1.
         -5    1    4    4    0  501  0.13156330080E+03 -0.15374294745E+03 -0.47952845130E+03  0.52049092596E+03  0.41800000000E+01 0.  1.
</event>
<event>
11    1  0.8039394E-009  0.1445014E+03  0.7561462E-02  0.1102633E+00
         22   -1    0    0    0    0  0.00000000000E+00  0.00000000000E+00  0.78604526569E+03  0.78604526569E+03  0.00000000000E+00 0.  1.
         22   -1    0    0    0    0 -0.00000000000E+00 -0.00000000000E+00 -0.82764647801E+03  0.82764647801E+03  0.00000000000E+00 0. -1.
        -24    2    1    2    0    0 -0.28339762845E+02  0.39313620869E+02 -0.80098423382E+03  0.80649230718E+03  0.80656033662E+02 0.  0.
         25    2    1    2    0    0  0.33353510752E+02  0.42154880452E+02  0.24394115216E+03  0.27936365753E+03  0.12508907550E+03 0.  0.
         24    2    1    2    0    0 -0.50137479074E+01 -0.81468501321E+02  0.51544186935E+03  0.52783577898E+03  0.79170919648E+02 0.  0.
        -11    1    5    5    0    0  0.14614337395E+01 -0.57118567253E+02  0.48484335351E+03  0.48819846780E+03  0.00000000000E+00 0.  1.
         12    1    5    5    0    0 -0.64751816469E+01 -0.24349934069E+02  0.30598515839E+02  0.39637311186E+02  0.00000000000E+00 0. -1.
         13    1    3    3    0    0 -0.40589738275E+02  0.55835967999E+02 -0.70248471803E+03  0.70586823221E+03  0.00000000000E+00 0. -1.
        -14    1    3    3    0    0  0.12249975430E+02 -0.16522347130E+02 -0.98499515792E+02  0.10062407497E+03  0.00000000000E+00 0.  1.
          5    1    4    4  501    0  0.47285846159E+02  0.72043913868E+02  0.10206307024E+03  0.13364362865E+03  0.41800000000E+01 0.  1.
         -5    1    4    4    0  501 -0.13932335407E+02 -0.29889033416E+02  0.14187808192E+03  0.14572002888E+03  0.41800000000E+01 0.  1.
</event>
<event>
11    1  0.8039394E-009  0.1003297E+04  0.7561462E-02  0.8675885E-01
         22   -1    0    0    0    0  0.00000000000E+00  0.00000000000E+00  0.24269697287E+03  0.24269697287E+03  0.00000000000E+00 0.  1.
         22   -1    0    0    0    0 -0.00000000000E+00 -0.00000000000E+00 -0.10368937582E+04  0.10368937582E+04  0.00000000000E+00 0.  1.
        -24    2    1    2    0    0 -0.73814723599E+02 -0.21630955546E+03 -0.18509298578E+03  0.30453512728E+03  0.79017676240E+02 0.  0.
         25    2    1    2    0    0  0.19881207310E+03  0.36774771171E+03 -0.62452566853E+03  0.76186876392E+03  0.12508830044E+03 0.  0.
         24    2    1    2    0    0 -0.12499734950E+03 -0.15143815625E+03  0.15421869027E+02  0.21318683982E+03  0.81565569201E+02 0.  0.
        -13    1    5    5    0    0 -0.20130050657E+02 -0.38270165501E+01  0.24439474952E+02  0.31892835105E+02  0.00000000000E+00 0.  1.
         14    1    5    5    0    0 -0.10486729884E+03 -0.14761113970E+03 -0.90176059249E+01  0.18129400472E+03  0.00000000000E+00 0. -1.
         13    1    3    3    0    0 -0.33441239437E+01 -0.19709050895E+02  0.65974629387E+01  0.21051279518E+02  0.00000000000E+00 0. -1.
        -14    1    3    3    0    0 -0.70470599655E+02 -0.19660050457E+03 -0.19169044872E+03  0.28348384776E+03  0.00000000000E+00 0.  1.
          5    1    4    4  501    0  0.19322854932E+03  0.23876556702E+03 -0.43807394956E+03  0.53504441493E+03  0.41800000000E+01 0.  1.
         -5    1    4    4    0  501  0.55835237741E+01  0.12898214469E+03 -0.18645171897E+03  0.22682434899E+03  0.41800000000E+01 0.  1.
</event>
<event>
11    1  0.8039394E-009  0.1723541E+03  0.7561462E-02  0.1076001E+00
         22   -1    0    0    0    0  0.00000000000E+00  0.00000000000E+00  0.72049941357E+03  0.72049941357E+03  0.00000000000E+00 0.  1.
         22   -1    0    0    0    0 -0.00000000000E+00 -0.00000000000E+00 -0.35131451865E+03  0.35131451865E+03  0.00000000000E+00 0.  1.
         24    2    1    2    0    0  0.33886244348E+02  0.11001807808E+03 -0.26600737792E+03  0.29838884932E+03  0.70878242263E+02 0.  0.
         25    2    1    2    0    0 -0.80694517901E+02 -0.13262853188E+03  0.87957923033E+02  0.21791623467E+03  0.12509578899E+03 0.  0.
        -24    2    1    2    0    0  0.46808273553E+02  0.22610453798E+02  0.54723434981E+03  0.55550884823E+03  0.80139876182E+02 0.  0.
        -13    1    3    3    0    0 -0.16599090673E+02  0.66001429994E+02 -0.14114895993E+03  0.15669954519E+03  0.00000000000E+00 0.  1.
         14    1    3    3    0    0  0.50485335021E+02  0.44016648087E+02 -0.12485841799E+03  0.14168930413E+03  0.00000000000E+00 0. -1.
         11    1    5    5    0    0 -0.88520163409E+01  0.23427683600E+02  0.58782062037E+02  0.63894799237E+02  0.00000000000E+00 0. -1.
        -12    1    5    5    0    0  0.55660289894E+02 -0.81722980229E+00  0.48845228777E+03  0.49161404899E+03  0.00000000000E+00 0.  1.
          5    1    4    4  501    0 -0.19066555762E+02 -0.47911159957E+02 -0.30235290131E+02  0.59922099148E+02  0.41800000000E+01 0.  1.
         -5    1    4    4    0  501 -0.61627962139E+02 -0.84717371921E+02  0.11819321316E+03  0.15799413553E+03  0.41800000000E+01 0.  1.
</event>
<event>
11    1  0.8660112E-009  0.1482024E+03  0.7561462E-02  0.1098730E+00
         22   -1    0    0    0    0  0.00000000000E+00  0.00000000000E+00  0.15163407312E+04  0.15163407312E+04  0.00000000000E+00 0.  1.
         22   -1    0    0    0    0 -0.00000000000E+00 -0.00000000000E+00 -0.12351081491E+04  0.12351081491E+04  0.00000000000E+00 0.  1.
         24    2    1    2    0    0  0.91679188107E+01  0.19617573122E+02 -0.11433945334E+04  0.11463760622E+04  0.79737802807E+02 0.  0.
         25    2    1    2    0    0  0.65860728926E+02  0.76898415686E+01 -0.31147531870E+02  0.14496348078E+03  0.12508985866E+03 0.  0.
        -24    2    1    2    0    0 -0.75028647736E+02 -0.27307414690E+02  0.14557746474E+04  0.14601093373E+04  0.79148342242E+02 0.  0.
        -13    1    3    3    0    0 -0.20719289124E+02 -0.97108614907E+01 -0.81519330653E+03  0.81551438784E+03  0.00000000000E+00 0.  1.
         14    1    3    3    0    0  0.29887207935E+02  0.29328434612E+02 -0.32820122685E+03  0.33086167439E+03  0.00000000000E+00 0. -1.
         13    1    5    5    0    0 -0.50789561480E+02 -0.53551918109E+02  0.11229295695E+04  0.11253524805E+04  0.00000000000E+00 0. -1.
        -14    1    5    5    0    0 -0.24239086257E+02  0.26244503418E+02  0.33284507792E+03  0.33475685677E+03  0.00000000000E+00 0.  1.
          5    1    4    4  501    0 -0.10036867707E+02 -0.45106207573E+02  0.25561052011E+01  0.46468427441E+02  0.41800000000E+01 0.  1.
         -5    1    4    4    0  501  0.75897596633E+02  0.52796049142E+02 -0.33703637071E+02  0.98495053335E+02  0.41800000000E+01 0.  1.
</event>
<event>
11    1  0.8039394E-009  0.1271891E+03  0.7561462E-02  0.1122772E+00
         22   -1    0    0    0    0  0.00000000000E+00  0.00000000000E+00  0.19416527139E+03  0.19416527139E+03  0.00000000000E+00 0.  1.
         22   -1    0    0    0    0 -0.00000000000E+00 -0.00000000000E+00 -0.48339008236E+03  0.48339008236E+03  0.00000000000E+00 0.  1.
         24    2    1    2    0    0 -0.51935746068E+00  0.10008665021E+02 -0.25243696730E+03  0.26462402555E+03  0.78746487739E+02 0.  0.
         25    2    1    2    0    0 -0.12621981497E+02  0.93262957242E+01 -0.19638891619E+03  0.23337311508E+03  0.12509240678E+03 0.  0.
        -24    2    1    2    0    0  0.13141338958E+02 -0.19334960745E+02  0.15960107252E+03  0.17955821311E+03  0.78880378106E+02 0.  0.
        -11    1    3    3    0    0  0.12417637288E+01  0.40949762352E+02 -0.19601846644E+03  0.20025399920E+03  0.00000000000E+00 0.  1.
         12    1    3    3    0    0 -0.17611211895E+01 -0.30941097331E+02 -0.56418500864E+02  0.64370026345E+02  0.00000000000E+00 0. -1.
         13    1    5    5    0    0  0.40817880160E+02 -0.12813126133E+02  0.47583293408E+02  0.63987853173E+02  0.00000000000E+00 0. -1.
        -14    1    5    5    0    0 -0.27676541202E+02 -0.65218346119E+01  0.11201777911E+03  0.11557035994E+03  0.00000000000E+00 0.  1.
          5    1    4    4  501    0  0.38633758780E+02 -0.39055475110E+02 -0.77266097353E+02  0.94896889589E+02  0.41800000000E+01 0. -1.
         -5    1    4    4    0  501 -0.51255740277E+02  0.48381770834E+02 -0.11912281883E+03  0.13847622549E+03  0.41800000000E+01 0. -1.
</event>
<event>
11    1  0.8039394E-009  0.1575636E+03  0.7561462E-02  0.1089391E+00
         22   -1    0    0    0    0  0.00000000000E+00  0.00000000000E+00  0.24893747745E+03  0.24893747745E+03  0.00000000000E+00 0. -1.
         22   -1    0    0    0    0 -0.00000000000E+00 -0.00000000000E+00 -0.56814013259E+03  0.56814013259E+03  0.00000000000E+00 0. -1.
         24    2    1    2    0    0  0.47261389374E+02  0.75518468229E+02 -0.38246594436E+03  0.40092007311E+03  0.80746693161E+02 0.  0.
         25    2    1    2    0    0 -0.54729075981E+02 -0.12199912409E+03 -0.11432171430E+03  0.21586460066E+03  0.12509601680E+03 0.  0.
        -24    2    1    2    0    0  0.74676866076E+01  0.46480655865E+02  0.17758500352E+03  0.20029293628E+03  0.79778500468E+02 0.  0.
        -13    1    3    3    0    0 -0.97900328728E+00 -0.53023823710E+01 -0.15034933598E+03  0.15044599209E+03  0.00000000000E+00 0.  1.
         14    1    3    3    0    0  0.48240392661E+02  0.80820850600E+02 -0.23211660837E+03  0.25047408101E+03  0.00000000000E+00 0. -1.
         13    1    5    5    0    0 -0.22932259695E+02  0.34249915520E+00  0.11297367573E+03  0.11527817334E+03  0.00000000000E+00 0. -1.
        -14    1    5    5    0    0  0.30399946302E+02  0.46138156709E+02  0.64611327788E+02  0.85014762943E+02  0.00000000000E+00 0.  1.
          5    1    4    4  501    0 -0.65371148115E+02 -0.12933635114E+02 -0.72330233676E+02  0.98436786959E+02  0.41800000000E+01 0. -1.
         -5    1    4    4    0  501  0.10642072133E+02 -0.10906548898E+03 -0.41991480622E+02  0.11742781370E+03  0.41800000000E+01 0. -1.
</event>
<event>
11    1  0.8039394E-009  0.1353359E+03  0.7561462E-02  0.1112881E+00
         22   -1    0    0    0    0  0.00000000000E+00  0.00000000000E+00  0.87364208814E+03  0.87364208814E+03  0.00000000000E+00 0.  1.
         22   -1    0    0    0    0 -0.00000000000E+00 -0.00000000000E+00 -0.27730437286E+03  0.27730437286E+03  0.00000000000E+00 0.  1.
         24    2    1    2    0    0 -0.38153996360E+02 -0.20334953535E+02 -0.19468032187E+03  0.21516792280E+03  0.80793375399E+02 0.  0.
         25    2    1    2    0    0  0.61305496157E+02  0.64772252637E+02  0.15937668392E+02  0.15445149599E+03  0.12508975485E+03 0.  0.
        -24    2    1    2    0    0 -0.23151499797E+02 -0.44437299102E+02  0.77508036875E+03  0.78132704220E+03  0.84921748403E+02 0.  0.
        -11    1    3    3    0    0 -0.57186275716E+02  0.76587773877E+01 -0.12715812251E+03  0.13963565133E+03  0.00000000000E+00 0.  1.
         12    1    3    3    0    0  0.19032279357E+02 -0.27993730923E+02 -0.67522199356E+02  0.75532271476E+02  0.00000000000E+00 0. -1.
         13    1    5    5    0    0 -0.12095064883E+02 -0.13248088843E+02  0.26413516069E+02  0.31929238695E+02  0.00000000000E+00 0. -1.
        -14    1    5    5    0    0 -0.11056434914E+02 -0.31189210259E+02  0.74866685269E+03  0.74939780351E+03  0.00000000000E+00 0.  1.
          5    1    4    4  501    0 -0.32140916145E+02  0.37638441388E+02  0.26821221736E+02  0.56449456120E+02  0.41800000000E+01 0.  1.
         -5    1    4    4    0  501  0.93446412302E+02  0.27133811249E+02 -0.10883553344E+02  0.98002039869E+02  0.41800000000E+01 0.  1.
</event>
<event>
11    1  0.8039394E-009  0.1515753E+03  0.7561462E-02  0.1095280E+00
         22   -1    0    0    0    0  0.00000000000E+00  0.00000000000E+00  0.50222988107E+03  0.50222988107E+03  0.00000000000E+00 0. -1.
         22   -1    0    0    0    0 -0.00000000000E+00 -0.00000000000E+00 -0.23175309769E+03  0.23175309769E+03  0.00000000000E+00 0. -1.
         24    2    1    2    0    0 -0.29208105862E+02 -0.76893544994E+02 -0.16273613061E+03  0.19931261780E+03  0.80478200158E+02 0.  0.
         25    2    1    2    0    0  0.10094746393E+03  0.94448671122E+02  0.17933307313E+03  0.25868357538E+03  0.12508356848E+03 0.  0.
        -24    2    1    2    0    0 -0.71739358066E+02 -0.17555126128E+02  0.25387984085E+03  0.27598678558E+03  0.79113932241E+02 0.  0.
        -11    1    3    3    0    0 -0.79181276681E+01  0.16572028325E+02 -0.35915326776E+02  0.40339057574E+02  0.00000000000E+00 0.  1.
         12    1    3    3    0    0 -0.21289978194E+02 -0.93465573319E+02 -0.12682080383E+03  0.15897356023E+03  0.00000000000E+00 0. -1.
         11    1    5    5    0    0 -0.29263744901E+01 -0.36348556065E+02  0.97850633998E+02  0.10442474692E+03  0.00000000000E+00 0. -1.
        -12    1    5    5    0    0 -0.68812983576E+02  0.18793429937E+02  0.15602920685E+03  0.17156203866E+03  0.00000000000E+00 0.  1.
          5    1    4    4  501    0  0.64321941270E+02 -0.17498493713E+02  0.48185719710E+02  0.82358031757E+02  0.41800000000E+01 0. -1.
         -5    1    4    4    0  501  0.36625522658E+02  0.11194716483E+03  0.13114735342E+03  0.17632554362E+03  0.41800000000E+01 0. -1.
</event>
<event>
11    1  0.8039394E-009  0.1492080E+03  0.7561462E-02  0.1097691E+00
         22   -1    0    0    0    0  0.00000000000E+00  0.00000000000E+00  0.59723338389E+03  0.59723338389E+03  0.00000000000E+00 0.  1.
         22   -1    0    0    0    0 -0.00000000000E+00 -0.00000000000E+00 -0.60889256661E+03  0.60889256661E+03  0.00000000000E+00 0. -1.
         24    2    1    2    0    0 -0.45729537827E+02  0.66856305065E+02 -0.55751860536E+03  0.56916643884E+03  0.81009157606E+02 0.  0.
         25    2    1    2    0    0  0.95984527670E+02 -0.44868863756E+02  0.12806431182E+03  0.20801424822E+03  0.12507283883E+03 0.  0.
        -24    2    1    2    0    0 -0.50254989842E+02 -0.21987441309E+02  0.41779511082E+03  0.42894526345E+03  0.80201451551E+02 0.  0.
        -11    1    3    3    0    0 -0.33108134912E+01  0.57163381001E+02 -0.17381247754E+03  0.18300106820E+03  0.00000000000E+00 0.  1.
         12    1    3    3    0    0 -0.42418724336E+02  0.96929240637E+01 -0.38370612782E+03  0.38616537064E+03  0.00000000000E+00 0. -1.
         13    1    5    5    0    0 -0.54892808320E+02 -0.39900985647E+02  0.21857203898E+03  0.22886468771E+03  0.00000000000E+00 0. -1.
        -14    1    5    5    0    0  0.46378184779E+01  0.17913544338E+02  0.19922307184E+03  0.20008057573E+03  0.00000000000E+00 0.  1.
          5    1    4    4  501    0  0.12265198793E+03 -0.54963971709E+02  0.11211258911E+03  0.17507499354E+03  0.41800000000E+01 0. -1.
         -5    1    4    4    0  501 -0.26667460256E+02  0.10095107953E+02  0.15951722710E+02  0.32939254674E+02  0.41800000000E+01 0. -1.
</event>
<event>
11    1  0.8039394E-009  0.1670787E+03  0.7561462E-02  0.1080602E+00
         22   -1    0    0    0    0  0.00000000000E+00  0.00000000000E+00  0.51060248245E+03  0.51060248245E+03  0.00000000000E+00 0.  1.
         22   -1    0    0    0    0 -0.00000000000E+00 -0.00000000000E+00 -0.25212728814E+03  0.25212728814E+03  0.00000000000E+00 0.  1.
        -24    2    1    2    0    0 -0.44745339955E+02  0.84340704389E+02 -0.78189310596E+02  0.14739494559E+03  0.80599018789E+02 0.  0.
         25    2    1    2    0    0  0.48890170201E+02 -0.13173447105E+03 -0.68293737946E+02  0.20015133732E+03  0.12510916666E+03 0.  0.
         24    2    1    2    0    0 -0.41448302454E+01  0.47393766665E+02  0.40495824285E+03  0.41518348768E+03  0.78248330675E+02 0.  0.
        -13    1    5    5    0    0 -0.25302294595E+01 -0.20042750301E+02  0.51010317897E+02  0.54864983666E+02  0.00000000000E+00 0.  1.
         14    1    5    5    0    0 -0.16146007859E+01  0.67436516966E+02  0.35394792496E+03  0.36031850402E+03  0.00000000000E+00 0. -1.
         13    1    3    3    0    0 -0.89982958784E+01 -0.48179401852E+01  0.11916360862E+02  0.15690173120E+02  0.00000000000E+00 0. -1.
        -14    1    3    3    0    0 -0.35747044077E+02  0.89158644574E+02 -0.90105671459E+02  0.13170477247E+03  0.00000000000E+00 0.  1.
          5    1    4    4  501    0 -0.31733018540E+01  0.23331941287E+02 -0.14210435001E+02  0.27818306775E+02  0.41800000000E+01 0. -1.
         -5    1    4    4    0  501  0.52063472055E+02 -0.15506641234E+03 -0.54083302945E+02  0.17233303054E+03  0.41800000000E+01 0. -1.
</event>
<event>
11    1  0.8039394E-009  0.1306263E+03  0.7561462E-02  0.1118502E+00
         22   -1    0    0    0    0  0.00000000000E+00  0.00000000000E+00  0.65377993277E+02  0.65377993277E+02  0.00000000000E+00 0.  1.
         22   -1    0    0    0    0 -0.00000000000E+00 -0.00000000000E+00 -0.20461804118E+04  0.20461804118E+04  0.00000000000E+00 0.  1.
        -24    2    1    2    0    0  0.32135773848E+02  0.19808894776E+02 -0.16584011746E+04  0.16607956292E+04  0.80762405157E+02 0.  0.
         25    2    1    2    0    0 -0.30464078393E+02 -0.21582312109E+02 -0.34402453919E+03  0.36795135261E+03  0.12506581488E+03 0.  0.
         24    2    1    2    0    0 -0.16716954546E+01  0.17734173326E+01  0.21623295185E+02  0.82811423259E+02  0.79901347628E+02 0.  0.
        -11    1    5    5    0    0 -0.21815214058E+02  0.84919866081E+01  0.45309978139E+02  0.51000112940E+02  0.00000000000E+00 0.  1.
         12    1    5    5    0    0  0.20143518604E+02 -0.67185692755E+01 -0.23686682954E+02  0.31811310319E+02  0.00000000000E+00 0. -1.
         11    1    3    3    0    0 -0.42511237968E+01 -0.26546311038E+02 -0.33233158553E+03  0.33341724824E+03  0.00000000000E+00 0. -1.
        -12    1    3    3    0    0  0.36386897645E+02  0.46355205814E+02 -0.13260695890E+04  0.13273783810E+04  0.00000000000E+00 0.  1.
          5    1    4    4  501    0  0.42916315221E+01  0.49636046284E+02 -0.15757587962E+03  0.16531722666E+03  0.41800000000E+01 0.  1.
         -5    1    4    4    0  501 -0.34755709915E+02 -0.71218358393E+02 -0.18644865957E+03  0.20263412595E+03  0.41800000000E+01 0.  1.
</event>
<event>
11    1  0.8039394E-009  0.1354759E+03  0.7561462E-02  0.1112718E+00
         22   -1    0    0    0    0  0.00000000000E+00  0.00000000000E+00  0.11816213587E+03  0.11816213587E+03  0.00000000000E+00 0. -1.
         22   -1    0    0    0    0 -0.00000000000E+00 -0.00000000000E+00 -0.10538544327E+04  0.10538544327E+04  0.00000000000E+00 0. -1.
         24    2    1    2    0    0 -0.20543699701E+02  0.45817740052E+02 -0.88155517925E+03  0.88690850461E+03  0.83341781817E+02 0.  0.
         25    2    1    2    0    0  0.55228561997E+02 -0.59864135645E+02 -0.10784165297E+03  0.18415296764E+03  0.12509430274E+03 0.  0.
        -24    2    1    2    0    0 -0.34684862297E+02  0.14046395593E+02  0.53704535371E+02  0.10095509634E+03  0.76859699816E+02 0.  0.
        -11    1    3    3    0    0 -0.31553028711E+02 -0.24324976974E+01 -0.13276608592E+03  0.13648569242E+03  0.00000000000E+00 0.  1.
         12    1    3    3    0    0  0.11009329011E+02  0.48250237750E+02 -0.74878909333E+03  0.75042281219E+03  0.00000000000E+00 0. -1.
         13    1    5    5    0    0 -0.54918698366E+02 -0.22168340793E+01  0.20171568702E+02  0.58548014206E+02  0.00000000000E+00 0. -1.
        -14    1    5    5    0    0  0.20233836069E+02  0.16263229672E+02  0.33532966669E+02  0.42407082133E+02  0.00000000000E+00 0.  1.
          5    1    4    4  501    0  0.14624412014E+02 -0.48577033463E+02 -0.12763082514E+03  0.13740706507E+03  0.41800000000E+01 0. -1.
         -5    1    4    4    0  501  0.40604149983E+02 -0.11287102182E+02  0.19789172167E+02  0.46745902564E+02  0.41800000000E+01 0. -1.
</event>
<event>
11    1  0.8039394E-009  0.1272305E+03  0.7561462E-02  0.1122719E+00
         22   -1    0    0    0    0  0.00000000000E+00  0.00000000000E+00  0.52017629707E+03  0.52017629707E+03  0.00000000000E+00 0. -1.
         22   -1    0    0    0    0 -0.00000000000E+00 -0.00000000000E+00 -0.40310706024E+03  0.40310706024E+03  0.00000000000E+00 0. -1.
         24    2    1    2    0    0  0.11563205473E+02 -0.20073081234E+02 -0.30847731744E+03  0.31931331163E+03  0.79158696891E+02 0.  0.
         25    2    1    2    0    0 -0.16356500144E+02  0.18283305255E+02 -0.38447094248E+02  0.13314160210E+03  0.12508674113E+03 0.  0.
        -24    2    1    2    0    0  0.47932946712E+01  0.17897759791E+01  0.46399364851E+03  0.47082844358E+03  0.79769282619E+02 0.  0.
        -13    1    3    3    0    0 -0.18966908548E+02  0.21599829208E+02 -0.78290030015E+02  0.83400389935E+02  0.00000000000E+00 0.  1.
         14    1    3    3    0    0  0.30530114021E+02 -0.41672910442E+02 -0.23018728743E+03  0.23591292169E+03  0.00000000000E+00 0. -1.
         11    1    5    5    0    0  0.14728040358E+02  0.27303019261E+02  0.40028997707E+03  0.40149026860E+03  0.00000000000E+00 0. -1.
        -12    1    5    5    0    0 -0.99347456869E+01 -0.25513243282E+02  0.63703671442E+02  0.69338174982E+02  0.00000000000E+00 0.  1.
          5    1    4    4  501    0  0.37075372205E+02  0.51833583124E+02 -0.14222393667E+02  0.65429751988E+02  0.41800000000E+01 0.  1.
         -5    1    4    4    0  501 -0.53431872350E+02 -0.33550277868E+02 -0.24224700581E+02  0.67711850116E+02  0.41800000000E+01 0.  1.
</event>
<event>
11    1  0.8039394E-009  0.1796642E+03  0.7561462E-02  0.1069915E+00
         22   -1    0    0    0    0  0.00000000000E+00  0.00000000000E+00  0.19896295002E+04  0.19896295002E+04  0.00000000000E+00 0.  1.
         22   -1    0    0    0    0 -0.00000000000E+00 -0.00000000000E+00 -0.11990290322E+03  0.11990290322E+03  0.00000000000E+00 0. -1.
         24    2    1    2    0    0 -0.72238855467E+02  0.96156788617E+02 -0.22900959479E+02  0.14760720142E+03  0.82455149806E+02 0.  0.
         25    2    1    2    0    0  0.13751383094E+03 -0.12335199747E+03  0.34685728495E+03  0.41241072616E+03  0.12508741725E+03 0.  0.
        -24    2    1    2    0    0 -0.65274975470E+02  0.27195208850E+02  0.15457702715E+04  0.15495144759E+04  0.81172512110E+02 0.  0.
        -13    1    3    3    0    0 -0.44614282240E+02  0.39378716541E+02  0.28696147456E+02  0.66065016272E+02  0.00000000000E+00 0.  1.
         14    1    3    3    0    0 -0.27624573227E+02  0.56778072077E+02 -0.51597106934E+02  0.81542185148E+02  0.00000000000E+00 0. -1.
         11    1    5    5    0    0  0.10626096113E+02  0.19692897167E+02  0.14979160340E+03  0.15145378360E+03  0.00000000000E+00 0. -1.
        -12    1    5    5    0    0 -0.75901071584E+02  0.75023116833E+01  0.13959786681E+04  0.13980606923E+04  0.00000000000E+00 0.  1.
          5    1    4    4  501    0  0.13399115680E+03 -0.45200057118E+02  0.25558783210E+03  0.29212888864E+03  0.41800000000E+01 0.  1.
         -5    1    4    4    0  501  0.35226741411E+01 -0.78151940349E+02  0.91269452856E+02  0.12028183752E+03  0.41800000000E+01 0.  1.
</event>
<event>
11    1  0.8039394E-009  0.1277709E+03  0.7561462E-02  0.1122038E+00
         22   -1    0    0    0    0  0.00000000000E+00  0.00000000000E+00  0.81414039308E+03  0.81414039308E+03  0.00000000000E+00 0. -1.
         22   -1    0    0    0    0 -0.00000000000E+00 -0.00000000000E+00 -0.16468176453E+03  0.16468176453E+03  0.00000000000E+00 0.  1.
        -24    2    1    2    0    0  0.19189645998E+02 -0.17424556261E+02 -0.13418312807E+03  0.16044037882E+03  0.84048471864E+02 0.  0.
         25    2    1    2    0    0 -0.36054291647E+02  0.30805427658E+01  0.29362739838E+03  0.32120577226E+03  0.12508675934E+03 0.  0.
         24    2    1    2    0    0  0.16864645649E+02  0.14344013495E+02  0.49001435825E+03  0.49717600653E+03  0.81115616163E+02 0.  0.
        -13    1    5    5    0    0  0.79642204652E+01 -0.15255386846E+02  0.21028174559E+02  0.27172408077E+02  0.00000000000E+00 0.  1.
         14    1    5    5    0    0  0.89004251840E+01  0.29599400341E+02  0.46898618369E+03  0.47000359845E+03  0.00000000000E+00 0. -1.
         13    1    3    3    0    0  0.22468923924E+02  0.21572718022E+02 -0.14193367261E+02  0.34229904752E+02  0.00000000000E+00 0. -1.
        -14    1    3    3    0    0 -0.32792779255E+01 -0.38997274283E+02 -0.11998976081E+03  0.12621047407E+03  0.00000000000E+00 0.  1.
          5    1    4    4  501    0 -0.24694800432E+02  0.18113508417E+02  0.29945412033E+03  0.30104513770E+03  0.41800000000E+01 0.  1.
         -5    1    4    4    0  501 -0.11359491215E+02 -0.15032965651E+02 -0.58267219465E+01  0.20160634553E+02  0.41800000000E+01 0.  1.
</event>
<event>
11    1  0.8039394E-009  0.1544034E+03  0.7561462E-02  0.1092462E+00
         22   -1    0    0    0    0  0.00000000000E+00  0.00000000000E+00  0.48383389307E+03  0.48383389307E+03  0.00000000000E+00 0.  1.
         22   -1    0    0    0    0 -0.00000000000E+00 -0.00000000000E+00 -0.61700806543E+03  0.61700806543E+03  0.00000000000E+00 0. -1.
        -24    2    1    2    0    0 -0.58281828510E+02  0.63531266528E+02 -0.28950682753E+03  0.31262277160E+03  0.80534469495E+02 0.  0.
         25    2    1    2    0    0  0.10114367589E+03 -0.34084691245E+02 -0.28896985552E+03  0.33247854330E+03  0.12508635018E+03 0.  0.
         24    2    1    2    0    0 -0.42861847380E+02 -0.29446575284E+02  0.44530251070E+03  0.45574064360E+03  0.81859449279E+02 0.  0.
        -11    1    5    5    0    0 -0.57945876139E+02 -0.16248800877E+01  0.19466093880E+03  0.20310895079E+03  0.00000000000E+00 0.  1.
         12    1    5    5    0    0  0.15084028758E+02 -0.27821695196E+02  0.25064157190E+03  0.25263169281E+03  0.00000000000E+00 0. -1.
         11    1    3    3    0    0 -0.70292208072E+02  0.20905959526E+02 -0.19207642125E+03  0.20560011006E+03  0.00000000000E+00 0. -1.
        -12    1    3    3    0    0  0.12010379563E+02  0.42625307003E+02 -0.97430406286E+02  0.10702266154E+03  0.00000000000E+00 0.  1.
          5    1    4    4  501    0  0.62239530712E+02  0.80820831753E+00 -0.31805736401E+02  0.70024921649E+02  0.41800000000E+01 0. -1.
         -5    1    4    4    0  501  0.38904145178E+02 -0.34892899562E+02 -0.25716411912E+03  0.26245362165E+03  0.41800000000E+01 0. -1.
</event>
<event>
11    1  0.8039394E-009  0.1840096E+03  0.7561462E-02  0.1066445E+00
         22   -1    0    0    0    0  0.00000000000E+00  0.00000000000E+00  0.18038614765E+03  0.18038614765E+03  0.00000000000E+00 0.  1.
         22   -1    0    0    0    0 -0.00000000000E+00 -0.00000000000E+00 -0.15418534144E+04  0.15418534144E+04  0.00000000000E+00 0.  1.
        -24    2    1    2    0    0  0.68139502184E+02  0.25954698620E+02 -0.13692252991E+04  0.13735309735E+04  0.80577771386E+02 0.  0.
         25    2    1    2    0    0  0.28383789519E+02 -0.13205965398E+03 -0.33762018248E+01  0.18413471658E+03  0.12509517735E+03 0.  0.
         24    2    1    2    0    0 -0.96523291703E+02  0.10610495536E+03  0.11134234138E+02  0.16457387204E+03  0.79909829158E+02 0.  0.
        -13    1    5    5    0    0 -0.36423021725E+02  0.87441040617E+02  0.29162006099E+02  0.99111022069E+02  0.00000000000E+00 0.  1.
         14    1    5    5    0    0 -0.60100269978E+02  0.18663914745E+02 -0.18027771960E+02  0.65462849975E+02  0.00000000000E+00 0. -1.
         13    1    3    3    0    0  0.77603582838E+02  0.12934108261E+02 -0.75365797517E+03  0.75775322551E+03  0.00000000000E+00 0. -1.
        -14    1    3    3    0    0 -0.94640806538E+01  0.13020590359E+02 -0.61556732391E+03  0.61577774795E+03  0.00000000000E+00 0.  1.
          5    1    4    4  501    0  0.39715508885E+02 -0.10543271959E+03  0.49955402344E+02  0.12331421098E+03  0.41800000000E+01 0.  1.
         -5    1    4    4    0  501 -0.11331719366E+02 -0.26626934393E+02 -0.53331604168E+02  0.60820505606E+02  0.41800000000E+01 0.  1.
</event>
<event>
11    1  0.8039394E-009  0.1749722E+03  0.7561462E-02  0.1073784E+00
         22   -1    0    0    0    0  0.00000000000E+00  0.00000000000E+00  0.30162244078E+04  0.30162244078E+04  0.00000000000E+00 0.  1.
         22   -1    0    0    0    0 -0.00000000000E+00 -0.00000000000E+00 -0.11138673694E+04  0.11138673694E+04  0.00000000000E+00 0. -1.
         24    2    1    2    0    0 -0.18007932655E+02  0.12061416420E+03 -0.10612117935E+04  0.10710281211E+04  0.77837673251E+02 0.  0.
         25    2    1    2    0    0  0.13893094596E+02 -0.13615317476E+03  0.13509060857E+03  0.22940963426E+03  0.12509437514E+03 0.  0.
        -24    2    1    2    0    0  0.41148380596E+01  0.15539010566E+02  0.28284782232E+04  0.28296540218E+04  0.79965186820E+02 0.  0.
        -11    1    3    3    0    0 -0.30423067394E+02  0.82191247369E+01 -0.24654525121E+03  0.24855115758E+03  0.00000000000E+00 0.  1.
         12    1    3    3    0    0  0.12415134738E+02  0.11239503946E+03 -0.81466654227E+03  0.82247696354E+03  0.00000000000E+00 0. -1.
         11    1    5    5    0    0 -0.32420795799E+02 -0.12373121776E+02  0.14267799444E+04  0.14272018820E+04  0.00000000000E+00 0. -1.
        -12    1    5    5    0    0  0.36535633859E+02  0.27912132342E+02  0.14016982788E+04  0.14024521398E+04  0.00000000000E+00 0.  1.
          5    1    4    4  501    0  0.60774837285E+02 -0.10934793191E+03  0.11947444063E+03  0.17303804618E+03  0.41800000000E+01 0. -1.
         -5    1    4    4    0  501 -0.46881742689E+02 -0.26805242849E+02  0.15616167937E+02  0.56371588081E+02  0.41800000000E+01 0. -1.
</event>
<event>
11    1  0.8039394E-009  0.1612335E+03  0.7561462E-02  0.1085923E+00
         22   -1    0    0    0    0  0.00000000000E+00  0.00000000000E+00  0.88176153104E+03  0.88176153104E+03  0.00000000000E+00 0.  1.
         22   -1    0    0    0    0 -0.00000000000E+00 -0.00000000000E+00 -0.42492716108E+03  0.42492716108E+03  0.00000000000E+00 0. -1.
        -24    2    1    2    0    0  0.10161643356E+03 -0.24217828490E+02 -0.29403931366E+03  0.32220001765E+03  0.80257900610E+02 0.  0.
         25    2    1    2    0    0 -0.69425907271E+02  0.81356432270E+02 -0.53768529441E+02  0.17314011836E+03  0.12509044790E+03 0.  0.
         24    2    1    2    0    0 -0.32190526293E+02 -0.57138603780E+02  0.80464221307E+03  0.81134855610E+03  0.80847624636E+02 0.  0.
        -11    1    5    5    0    0 -0.65743337662E+01 -0.70586733407E+02  0.66316497330E+03  0.66694339386E+03  0.00000000000E+00 0.  1.
         12    1    5    5    0    0 -0.25616192526E+02  0.13448129626E+02  0.14147723977E+03  0.14440516225E+03  0.00000000000E+00 0. -1.
         11    1    3    3    0    0  0.56850242917E+02 -0.21365318684E+02 -0.25684777751E+03  0.26393030855E+03  0.00000000000E+00 0. -1.
        -12    1    3    3    0    0  0.44766190646E+02 -0.28525098056E+01 -0.37191536154E+02  0.58269709100E+02  0.00000000000E+00 0.  1.
          5    1    4    4  501    0 -0.96164608314E+02  0.30651207036E+02 -0.11240495339E+02  0.10164127862E+03  0.41800000000E+01 0. -1.
         -5    1    4    4    0  501  0.26738701043E+02  0.50705225234E+02 -0.42528034103E+02  0.71498839740E+02  0.41800000000E+01 0. -1.
</event>
<event>
11    1  0.8039394E-009  0.1391393E+03  0.7561462E-02  0.1108523E+00
         22   -1    0    0    0    0  0.00000000000E+00  0.00000000000E+00  0.19810223056E+03  0.19810223056E+03  0.00000000000E+00 0.  1.
         22   -1    0    0    0    0 -0.00000000000E+00 -0.00000000000E+00 -0.76965541834E+03  0.76965541834E+03  0.00000000000E+00 0. -1.
        -24    2    1    2    0    0 -0.38621255160E+02 -0.23663363025E+02 -0.36976577194E+03  0.38151039603E+03  0.82291555355E+02 0.  0.
         25    2    1    2    0    0  0.18777384344E+02  0.80822524773E+02 -0.36304981835E+03  0.39285829674E+03  0.12509036747E+03 0.  0.
         24    2    1    2    0    0  0.19843870816E+02 -0.57159161748E+02  0.16126240251E+03  0.19338895613E+03  0.87936209323E+02 0.  0.
        -13    1    5    5    0    0  0.32376620995E+02 -0.69666753937E+02  0.15757299833E+03  0.17530245861E+03  0.00000000000E+00 0.  1.
         14    1    5    5    0    0 -0.12532750179E+02  0.12507592188E+02  0.36894041751E+01  0.18086497521E+02  0.00000000000E+00 0. -1.
         13    1    3    3    0    0 -0.25967655384E+02 -0.48601990916E+02 -0.31737467122E+03  0.32212288738E+03  0.00000000000E+00 0. -1.
        -14    1    3    3    0    0 -0.12653599776E+02  0.24938627891E+02 -0.52391100720E+02  0.59387508645E+02  0.00000000000E+00 0.  1.
          5    1    4    4  501    0  0.34027421551E+02  0.53279022947E+02 -0.57178946485E+02  0.85342978767E+02  0.41800000000E+01 0.  1.
         -5    1    4    4    0  501 -0.15250037207E+02  0.27543501826E+02 -0.30587087187E+03  0.30751531797E+03  0.41800000000E+01 0.  1.
</event>
<event>
11    1  0.8039394E-009  0.1536083E+03  0.7561462E-02  0.1093248E+00
         22   -1    0    0    0    0  0.00000000000E+00  0.00000000000E+00  0.20255911017E+03  0.20255911017E+03  0.00000000000E+00 0. -1.
         22   -1    0    0    0    0 -0.00000000000E+00 -0.00000000000E+00 -0.25042837482E+04  0.25042837482E+04  0.00000000000E+00 0.  1.
         24    2    1    2    0    0 -0.71050995685E+02  0.54519383370E+02 -0.22995762412E+04  0.23027094490E+04  0.79995690377E+02 0.  0.
         25    2    1    2    0    0  0.10587668514E+03  0.91124299322E+01 -0.14925437365E+03  0.22185127413E+03  0.12509280932E+03 0.  0.
        -24    2    1    2    0    0 -0.34825689454E+02 -0.63631813302E+02  0.14710597676E+03  0.18228213525E+03  0.79528435937E+02 0.  0.
        -11    1    3    3    0    0 -0.71853640729E+02  0.61832895235E+02 -0.22768371154E+04  0.22788096679E+04  0.00000000000E+00 0.  1.
         12    1    3    3    0    0  0.80264504371E+00 -0.73135118657E+01 -0.22739125800E+02  0.23899781108E+02  0.00000000000E+00 0. -1.
         11    1    5    5    0    0 -0.51485747493E+02 -0.63913306269E+02  0.14338106243E+03  0.16520841981E+03  0.00000000000E+00 0. -1.
        -12    1    5    5    0    0  0.16660058039E+02  0.28149296737E+00  0.37249143337E+01  0.17073715441E+02  0.00000000000E+00 0.  1.
          5    1    4    4  501    0  0.22512321456E+02  0.43177280184E+02 -0.16593425445E+01  0.48901001617E+02  0.41800000000E+01 0.  1.
         -5    1    4    4    0  501  0.83364363684E+02 -0.34064850252E+02 -0.14759503111E+03  0.17295027251E+03  0.41800000000E+01 0.  1.
</event>
<event>
11    1  0.8039394E-009  0.1435642E+03  0.7561462E-02  0.1103642E+00
         22   -1    0    0    0    0  0.00000000000E+00  0.00000000000E+00  0.12442472396E+04  0.12442472396E+04  0.00000000000E+00 0. -1.
         22   -1    0    0    0    0 -0.00000000000E+00 -0.00000000000E+00 -0.91126209638E+02  0.91126209638E+02  0.00000000000E+00 0.  1.
        -24    2    1    2    0    0  0.38296619480E+02  0.27711235885E+02 -0.44322796975E+02  0.10378500996E+03  0.81069564594E+02 0.  0.
         25    2    1    2    0    0 -0.33892441136E+02  0.48453953927E+02  0.34131493278E+03  0.36829435255E+03  0.12509341935E+03 0.  0.
         24    2    1    2    0    0 -0.44041783445E+01 -0.76165189812E+02  0.85612889420E+03  0.86329408676E+03  0.80619252266E+02 0.  0.
        -11    1    5    5    0    0  0.12825030108E+01 -0.21057444496E+02  0.39435546665E+02  0.44723854076E+02  0.00000000000E+00 0.  1.
         12    1    5    5    0    0 -0.56866813554E+01 -0.55107745316E+02  0.81669334753E+03  0.81857023269E+03  0.00000000000E+00 0. -1.
         13    1    3    3    0    0 -0.69703745871E+01 -0.10805517578E+02  0.15035906855E+02  0.19784433956E+02  0.00000000000E+00 0. -1.
        -14    1    3    3    0    0  0.45266994068E+02  0.38516753464E+02 -0.59358703830E+02  0.84000576008E+02  0.00000000000E+00 0.  1.
          5    1    4    4  501    0 -0.53466777978E+02  0.70334026575E+02  0.14570456945E+03  0.17044901173E+03  0.41800000000E+01 0.  1.
         -5    1    4    4    0  501  0.19574336842E+02 -0.21880072648E+02  0.19561036333E+03  0.19784534082E+03  0.41800000000E+01 0.  1.
</event>
<event>
11    1  0.8039394E-009  0.1415710E+03  0.7561462E-02  0.1105817E+00
         22   -1    0    0    0    0  0.00000000000E+00  0.00000000000E+00  0.19083136717E+03  0.19083136717E+03  0.00000000000E+00 0.  1.
         22   -1    0    0    0    0 -0.00000000000E+00 -0.00000000000E+00 -0.12169821112E+04  0.12169821112E+04  0.00000000000E+00 0. -1.
        -24    2    1    2    0    0  0.62827784250E+02  0.20367689317E+02 -0.11211605556E+04  0.11260500654E+04  0.81397697351E+02 0.  0.
         25    2    1    2    0    0 -0.85408855665E+02  0.23457576003E+02  0.67454523475E+01  0.15341875012E+03  0.12508749443E+03 0.  0.
         24    2    1    2    0    0  0.22581071415E+02 -0.43825265320E+02  0.88264359271E+02  0.12834466279E+03  0.79064509629E+02 0.  0.
        -11    1    5    5    0    0  0.52157567379E+02 -0.23081419901E+02  0.55102813755E+02  0.79306266229E+02  0.00000000000E+00 0.  1.
         12    1    5    5    0    0 -0.29576495965E+02 -0.20743845419E+02  0.33161545517E+02  0.49038396562E+02  0.00000000000E+00 0. -1.
         13    1    3    3    0    0  0.20044426799E+02 -0.24188239322E+02 -0.66304539922E+03  0.66378916185E+03  0.00000000000E+00 0. -1.
        -14    1    3    3    0    0  0.42783357451E+02  0.44555928640E+02 -0.45811515639E+03  0.46226090357E+03  0.00000000000E+00 0.  1.
          5    1    4    4  501    0 -0.11775350106E+03  0.11745413688E+02  0.85418561687E+01  0.11871932219E+03  0.41800000000E+01 0. -1.
         -5    1    4    4    0  501  0.32344645394E+02  0.11712162315E+02 -0.17964038212E+01  0.34699427927E+02  0.41800000000E+01 0. -1.
</event>
<event>
11    1  0.8039394E-009  0.1577632E+03  0.7561462E-02  0.1089200E+00
         22   -1    0    0    0    0  0.00000000000E+00  0.00000000000E+00  0.12362065213E+03  0.12362065213E+03  0.00000000000E+00 0. -1.
         22   -1    0    0    0    0 -0.00000000000E+00 -0.00000000000E+00 -0.10006439468E+04  0.10006439468E+04  0.00000000000E+00 0.  1.
        -24    2    1    2    0    0 -0.11526812791E+02 -0.85609039491E+02 -0.64332455240E+03  0.65417470559E+03  0.81340584328E+02 0.  0.
         25    2    1    2    0    0  0.22616592228E+02  0.14720964821E+03 -0.29319233154E+03  0.35183699004E+03  0.12508130761E+03 0.  0.
         24    2    1    2    0    0 -0.11089779437E+02 -0.61600608722E+02  0.59493589294E+02  0.11825290328E+03  0.80787646106E+02 0.  0.
        -11    1    5    5    0    0  0.12155993707E+02 -0.14163852720E+02  0.62611830943E+02  0.65334709618E+02  0.00000000000E+00 0.  1.
         12    1    5    5    0    0 -0.23245773144E+02 -0.47436756002E+02 -0.31182416493E+01  0.52918193658E+02  0.00000000000E+00 0. -1.
         13    1    3    3    0    0  0.22750864006E+02 -0.15909110285E+02 -0.65320268477E+02  0.70974918647E+02  0.00000000000E+00 0. -1.
        -14    1    3    3    0    0 -0.34277676797E+02 -0.69699929206E+02 -0.57800428392E+03  0.58319978695E+03  0.00000000000E+00 0.  1.
          5    1    4    4  501    0 -0.92816535806E+01  0.13859418041E+03 -0.28569271297E+03  0.31769843339E+03  0.41800000000E+01 0. -1.
         -5    1    4    4    0  501  0.31898245808E+02  0.86154678073E+01 -0.74996185718E+01  0.34138556647E+02  0.41800000000E+01 0. -1.
</event>
<event>
11    1  0.8039394E-009  0.1648726E+03  0.7561462E-02  0.1082582E+00
         22   -1    0    0    0    0  0.00000000000E+00  0.00000000000E+00  0.25549095464E+04  0.25549095464E+04  0.00000000000E+00 0.  1.
         22   -1    0    0    0    0 -0.00000000000E+00 -0.00000000000E+00 -0.13244508262E+03  0.13244508262E+03  0.00000000000E+00 0.  1.
         24    2    1    2    0    0 -0.56515778708E+02 -0.87746757960E+02 -0.58646106313E+02  0.14397987435E+03  0.79983196086E+02 0.  0.
         25    2    1    2    0    0  0.19084596858E+02  0.13770031952E+03  0.26189069262E+03  0.32180719591E+03  0.12509011402E+03 0.  0.
        -24    2    1    2    0    0  0.37431181850E+02 -0.49953561565E+02  0.22192198775E+04  0.22215675588E+04  0.80802857987E+02 0.  0.
        -11    1    3    3    0    0 -0.10238320121E+02 -0.27308400242E+02 -0.61223713176E+02  0.67815300470E+02  0.00000000000E+00 0.  1.
         12    1    3    3    0    0 -0.46277458587E+02 -0.60438357717E+02  0.25776068635E+01  0.76164573878E+02  0.00000000000E+00 0. -1.
         13    1    5    5    0    0  0.23889440698E+02 -0.48713857818E+02  0.64185660648E+03  0.64414567343E+03  0.00000000000E+00 0. -1.
        -14    1    5    5    0    0  0.13541741152E+02 -0.12397037470E+01  0.15773632710E+04  0.15774218853E+04  0.00000000000E+00 0.  1.
          5    1    4    4  501    0  0.67286609838E+02  0.43657587142E+02  0.12913570678E+03  0.15207555998E+03  0.41800000000E+01 0. -1.
         -5    1    4    4    0  501 -0.48202012980E+02  0.94042732383E+02  0.13275498584E+03  0.16973163593E+03  0.41800000000E+01 0. -1.
</event>
<event>
11    1  0.8039394E-009  0.1399264E+03  0.7561462E-02  0.1107641E+00
         22   -1    0    0    0    0  0.00000000000E+00  0.00000000000E+00  0.24088158182E+04  0.24088158182E+04  0.00000000000E+00 0.  1.
         22   -1    0    0    0    0 -0.00000000000E+00 -0.00000000000E+00 -0.55305527755E+03  0.55305527755E+03  0.00000000000E+00 0.  1.
         24    2    1    2    0    0  0.25746543072E+02  0.59659949352E+02 -0.47486012469E+03  0.48585311806E+03  0.79617336533E+02 0.  0.
         25    2    1    2    0    0  0.27252518201E+02 -0.49265747159E+02 -0.61386142294E+01  0.13731051065E+03  0.12508669057E+03 0.  0.
        -24    2    1    2    0    0 -0.52999061273E+02 -0.10394202194E+02  0.23367592796E+04  0.23387074670E+04  0.78687647095E+02 0.  0.
        -13    1    3    3    0    0 -0.15499843550E+02  0.35418032936E+02 -0.35019927075E+03  0.35232685313E+03  0.00000000000E+00 0.  1.
         14    1    3    3    0    0  0.41246386622E+02  0.24241916416E+02 -0.12466085394E+03  0.13352626493E+03  0.00000000000E+00 0. -1.
         11    1    5    5    0    0 -0.42756126740E-01 -0.30637240628E+02  0.42273865170E+03  0.42384738997E+03  0.00000000000E+00 0. -1.
        -12    1    5    5    0    0 -0.52956305147E+02  0.20243038434E+02  0.19140206279E+04  0.19148600771E+04  0.00000000000E+00 0.  1.
          5    1    4    4  501    0  0.49555661899E+02 -0.80929544224E+02  0.92244907623E+01  0.95435414728E+02  0.41800000000E+01 0.  1.
         -5    1    4    4    0  501 -0.22303143697E+02  0.31663797065E+02 -0.15363104992E+02  0.41875095921E+02  0.41800000000E+01 0.  1.
</event>
<event>
11    1  0.8039394E-009  0.1712757E+03  0.7561462E-02  0.1076927E+00
         22   -1    0    0    0    0  0.00000000000E+00  0.00000000000E+00  0.83682565531E+02  0.83682565531E+02  0.00000000000E+00 0.  1.
         22   -1    0    0    0    0 -0.00000000000E+00 -0.00000000000E+00 -0.16196015740E+04  0.16196015740E+04  0.00000000000E+00 0.  1.
         24    2    1    2    0    0  0.78682099405E-01 -0.53033460428E+01 -0.82150475411E+03  0.82550457737E+03  0.80991447523E+02 0.  0.
         25    2    1    2    0    0  0.12621646391E+02  0.12113670371E+03 -0.71474056417E+03  0.73575456545E+03  0.12508916644E+03 0.  0.
        -24    2    1    2    0    0 -0.12700328490E+02 -0.11583335767E+03  0.32630980910E+00  0.14202499671E+03  0.81193153168E+02 0.  0.
        -11    1    3    3    0    0 -0.50960161766E+01  0.38518852950E+01 -0.80957932307E+03  0.80960452490E+03  0.00000000000E+00 0.  1.
         12    1    3    3    0    0  0.51746982760E+01 -0.91552313378E+01 -0.11925431037E+02  0.15900052469E+02  0.00000000000E+00 0. -1.
         11    1    5    5    0    0 -0.29850433294E+02 -0.10060541768E+02  0.13093174563E+02  0.34112960714E+02  0.00000000000E+00 0. -1.
        -12    1    5    5    0    0  0.17150104804E+02 -0.10577281590E+03 -0.12766864754E+02  0.10791203600E+03  0.00000000000E+00 0.  1.
          5    1    4    4  501    0 -0.48372609820E-01 -0.24446304029E+02 -0.60637284910E+02  0.65513180673E+02  0.41800000000E+01 0. -1.
         -5    1    4    4    0  501  0.12670019000E+02  0.14558300774E+03 -0.65410327926E+03  0.67024138478E+03  0.41800000000E+01 0. -1.
</event>
<event>
11    1  0.8039394E-009  0.1556963E+03  0.7561462E-02  0.1091196E+00
         22   -1    0    0    0    0  0.00000000000E+00  0.00000000000E+00  0.27910620281E+03  0.27910620281E+03  0.00000000000E+00 0.  1.
         22   -1    0    0    0    0 -0.00000000000E+00 -0.00000000000E+00 -0.10288739482E+04  0.10288739482E+04  0.00000000000E+00 0.  1.
         24    2    1    2    0    0 -0.64636771328E+02  0.67501301916E+02 -0.93435062598E+03  0.94245758865E+03  0.80503889164E+02 0.  0.
         25    2    1    2    0    0  0.11045626350E+03  0.48349419647E+01  0.26803721673E+02  0.16908735356E+03  0.12509248909E+03 0.  0.
        -24    2    1    2    0    0 -0.45819492167E+02 -0.72336243881E+02  0.15777915889E+03  0.19643520883E+03  0.79753183311E+02 0.  0.
        -11    1    3    3    0    0  0.12279025587E+02  0.11965497076E+01 -0.28021515999E+03  0.28048661659E+03  0.00000000000E+00 0.  1.
         12    1    3    3    0    0 -0.76915796915E+02  0.66304752209E+02 -0.65413546599E+03  0.66197097206E+03  0.00000000000E+00 0. -1.
         11    1    5    5    0    0 -0.49839935072E+02 -0.18037818387E+02  0.39107701527E+02  0.65869525115E+02  0.00000000000E+00 0. -1.
        -12    1    5    5    0    0  0.40204429051E+01 -0.54298425494E+02  0.11867145736E+03  0.13056568372E+03  0.00000000000E+00 0.  1.
          5    1    4    4  501    0 -0.25460169546E+02 -0.11839512115E+02 -0.39987893207E+01  0.28668048354E+02  0.41800000000E+01 0. -1.
         -5    1    4    4    0  501  0.13591643304E+03  0.16674454079E+02  0.30802510994E+02  0.14041930520E+03  0.41800000000E+01 0. -1.
</event>
<event>
11    1  0.8039394E-009  0.1347686E+03  0.7561462E-02  0.1113545E+00
         22   -1    0    0    0    0  0.00000000000E+00  0.00000000000E+00  0.11451244193E+04  0.11451244193E+04  0.00000000000E+00 0. -1.
         22   -1    0    0    0    0 -0.00000000000E+00 -0.00000000000E+00 -0.15856648373E+03  0.15856648373E+03  0.00000000000E+00 0.  1.
        -24    2    1    2    0    0 -0.47117267068E+02 -0.16506262506E+01 -0.10537630018E+03  0.14143824820E+03  0.81718125242E+02 0.  0.
         25    2    1    2    0    0  0.77031048436E+02  0.12420693145E+02  0.13067003025E+03  0.19700152484E+03  0.12508752113E+03 0.  0.
         24    2    1    2    0    0 -0.29913781368E+02 -0.10770066894E+02  0.96126420549E+03  0.96525112998E+03  0.81670328242E+02 0.  0.
        -13    1    5    5    0    0 -0.58303922495E+01  0.77421372372E+01  0.11663937638E+02  0.15165144378E+02  0.00000000000E+00 0.  1.
         14    1    5    5    0    0 -0.24083389119E+02 -0.18512204132E+02  0.94960026785E+03  0.95008598560E+03  0.00000000000E+00 0. -1.
         11    1    3    3    0    0 -0.47472403632E+02 -0.92473101535E+00 -0.13232361698E+02  0.49290766175E+02  0.00000000000E+00 0. -1.
        -12    1    3    3    0    0  0.35513656373E+00 -0.72589523524E+00 -0.92143938479E+02  0.92147482029E+02  0.00000000000E+00 0.  1.
          5    1    4    4  501    0  0.85507317405E+02 -0.22000970137E+02  0.35316108260E+02  0.95185313570E+02  0.41800000000E+01 0.  1.
         -5    1    4    4    0  501 -0.84762689692E+01  0.34421663282E+02  0.95353921989E+02  0.10181621127E+03  0.41800000000E+01 0.  1.
</event>
<event>
11    1  0.8039394E-009  0.2971619E+03  0.7561462E-02  0.1001400E+00
         22   -1    0    0    0    0  0.00000000000E+00  0.00000000000E+00  0.50570045892E+03  0.50570045892E+03  0.00000000000E+00 0.  1.
         22   -1    0    0    0    0 -0.00000000000E+00 -0.00000000000E+00 -0.16165400032E+04  0.16165400032E+04  0.00000000000E+00 0.  1.
        -24    2    1    2    0    0 -0.17181564753E+03  0.22545326310E+03 -0.15122123560E+04  0.15406513641E+04  0.80440196745E+02 0.  0.
         25    2    1    2    0    0  0.49027458166E+02 -0.13766185539E+03  0.63284444431E+02  0.20250074169E+03  0.12508857420E+03 0.  0.
         24    2    1    2    0    0  0.12278818937E+03 -0.87791407716E+02  0.33808836736E+03  0.37908835633E+03  0.81363179866E+02 0.  0.
        -11    1    5    5    0    0  0.11326665972E+03 -0.52080496605E+02  0.30495194799E+03  0.32945015543E+03  0.00000000000E+00 0.  1.
         12    1    5    5    0    0  0.95215296476E+01 -0.35710911111E+02  0.33136419378E+02  0.49638200898E+02  0.00000000000E+00 0. -1.
         13    1    3    3    0    0 -0.97274135885E+02  0.71093674038E+02 -0.73010254448E+03  0.73997722496E+03  0.00000000000E+00 0. -1.
        -14    1    3    3    0    0 -0.74541511646E+02  0.15435958907E+03 -0.78210981155E+03  0.80067413910E+03  0.00000000000E+00 0.  1.
          5    1    4    4  501    0  0.46317995476E+02 -0.10641593930E+02  0.58235732995E+02  0.75282622322E+02  0.41800000000E+01 0. -1.
         -5    1    4    4    0  501  0.27094626900E+01 -0.12702026146E+03  0.50487114363E+01  0.12721811937E+03  0.41800000000E+01 0. -1.
</event>
<event>
11    1  0.8039394E-009  0.2276643E+03  0.7561462E-02  0.1036520E+00
         22   -1    0    0    0    0  0.00000000000E+00  0.00000000000E+00  0.25404413001E+04  0.25404413001E+04  0.00000000000E+00 0. -1.
         22   -1    0    0    0    0 -0.00000000000E+00 -0.00000000000E+00 -0.92367550583E+02  0.92367550583E+02  0.00000000000E+00 0.  1.
        -24    2    1    2    0    0 -0.10564888561E+03 -0.18111936243E+03  0.10804215739E+03  0.24939035408E+03  0.80972405522E+02 0.  0.
         25    2    1    2    0    0  0.10822336608E+03  0.97176609687E+02  0.44193318037E+03  0.48177629034E+03  0.12509143693E+03 0.  0.
         24    2    1    2    0    0 -0.25744804652E+01  0.83942752747E+02  0.18980984117E+04  0.19016422062E+04  0.80078000783E+02 0.  0.
        -11    1    5    5    0    0 -0.18010062790E+02  0.94667131232E+01  0.10626903560E+03  0.10819930197E+03  0.00000000000E+00 0.  1.
         12    1    5    5    0    0  0.15435582325E+02  0.74476039624E+02  0.17918293761E+04  0.17934429043E+04  0.00000000000E+00 0. -1.
         13    1    3    3    0    0  0.32192042371E+01  0.63078422403E+01 -0.26229899284E+00  0.70866741431E+01  0.00000000000E+00 0. -1.
        -14    1    3    3    0    0 -0.10886808985E+03 -0.18742720467E+03  0.10830445639E+03  0.24230367994E+03  0.00000000000E+00 0.  1.
          5    1    4    4  501    0 -0.19147765139E+02  0.16170061614E+01  0.11421151059E+02  0.22741299661E+02  0.41800000000E+01 0.  1.
         -5    1    4    4    0  501  0.12737113121E+03  0.95559603526E+02  0.43051202931E+03  0.45903499068E+03  0.41800000000E+01 0.  1.
</event>
<event>
11    1  0.8039394E-009  0.5065773E+03  0.7561462E-02  0.9378943E-01
         22   -1    0    0    0    0  0.00000000000E+00  0.00000000000E+00  0.18518591110E+04  0.18518591110E+04  0.00000000000E+00 0. -1.
         22   -1    0    0    0    0 -0.00000000000E+00 -0.00000000000E+00 -0.23969208724E+03  0.23969208724E+03  0.00000000000E+00 0. -1.
         24    2    1    2    0    0 -0.39986474616E+03  0.12938253481E+03  0.48234205052E+03  0.64427876061E+03  0.76220811780E+02 0.  0.
         25    2    1    2    0    0  0.47640101206E+03 -0.35666720519E+03  0.58004330843E+03  0.84039715520E+03  0.12509084401E+03 0.  0.
        -24    2    1    2    0    0 -0.76536265901E+02  0.22728467039E+03  0.54978166486E+03  0.60687528247E+03  0.92312556385E+02 0.  0.
        -11    1    3    3    0    0 -0.23459246078E+03  0.39631655508E+02  0.24582656007E+03  0.34210376848E+03  0.00000000000E+00 0.  1.
         12    1    3    3    0    0 -0.16527228538E+03  0.89750879298E+02  0.23651549045E+03  0.30217499214E+03  0.00000000000E+00 0. -1.
         11    1    5    5    0    0 -0.31601145126E+02  0.43852657754E+02  0.22289439866E+03  0.22935474907E+03  0.00000000000E+00 0. -1.
        -12    1    5    5    0    0 -0.44935120775E+02  0.18343201263E+03  0.32688726620E+03  0.37752053340E+03  0.00000000000E+00 0.  1.
          5    1    4    4  501    0  0.51375052879E+02 -0.16134315765E+02  0.16018093438E+02  0.56336168852E+02  0.41800000000E+01 0. -1.
         -5    1    4    4    0  501  0.42502595918E+03 -0.34053288943E+03  0.56402521499E+03  0.78406098635E+03  0.41800000000E+01 0. -1.
</event>
<event>
11    1  0.8039394E-009  0.2621348E+03  0.7561462E-02  0.1017626E+00
         22   -1    0    0    0    0  0.00000000000E+00  0.00000000000E+00  0.46413761486E+03  0.46413761486E+03  0.00000000000E+00 0.  1.
         22   -1    0    0    0    0 -0.00000000000E+00 -0.00000000000E+00 -0.56736814656E+03  0.56736814656E+03  0.00000000000E+00 0.  1.
        -24    2    1    2    0    0  0.43063763258E+02 -0.21714542276E+02 -0.41606903815E+03  0.42625469987E+03  0.79079805294E+02 0.  0.
         25    2    1    2    0    0  0.20367601388E+03  0.78381882184E+01  0.67828400623E+02  0.24858271812E+03  0.12508924811E+03 0.  0.
         24    2    1    2    0    0 -0.24673977713E+03  0.13876354057E+02  0.24501010582E+03  0.35666834343E+03  0.78161911623E+02 0.  0.
        -13    1    5    5    0    0 -0.18917678758E+03 -0.11458767589E+02  0.14543229066E+03  0.23889267775E+03  0.00000000000E+00 0.  1.
         14    1    5    5    0    0 -0.57562989553E+02  0.25335121646E+02  0.99577815159E+02  0.11777566568E+03  0.00000000000E+00 0. -1.
         11    1    3    3    0    0  0.19209550898E+02 -0.32779610538E+02 -0.74066506016E+02  0.83242759602E+02  0.00000000000E+00 0. -1.
        -12    1    3    3    0    0  0.23854212361E+02  0.11065068263E+02 -0.34200253213E+03  0.34301194027E+03  0.00000000000E+00 0.  1.
          5    1    4    4  501    0  0.25873896137E+02 -0.31837461191E+02 -0.20532155714E+02  0.46066519889E+02  0.41800000000E+01 0.  1.
         -5    1    4    4    0  501  0.17780211774E+03  0.39675649409E+02  0.88360556337E+02  0.20251619823E+03  0.41800000000E+01 0.  1.
</event>
<event>
11    1  0.8039394E-009  0.2211904E+03  0.7561462E-02  0.1040474E+00
         22   -1    0    0    0    0  0.00000000000E+00  0.00000000000E+00  0.10179997212E+04  0.10179997212E+04  0.00000000000E+00 0. -1.
         22   -1    0    0    0    0 -0.00000000000E+00 -0.00000000000E+00 -0.13260799522E+04  0.13260799522E+04  0.00000000000E+00 0.  1.
        -24    2    1    2    0    0  0.23073169041E+02 -0.12463965289E+03 -0.10897306840E+04  0.10999764729E+04  0.79798890999E+02 0.  0.
         25    2    1    2    0    0 -0.28006922094E+01  0.30029124846E+03 -0.10058669892E+03  0.34051158905E+03  0.12509108883E+03 0.  0.
         24    2    1    2    0    0 -0.20272476832E+02 -0.17565159557E+03  0.88223715196E+03  0.90359161147E+03  0.82891203891E+02 0.  0.
        -13    1    5    5    0    0 -0.35433282170E+02 -0.57528841226E+02  0.20178152231E+03  0.21279301634E+03  0.00000000000E+00 0.  1.
         14    1    5    5    0    0  0.15160805338E+02 -0.11812275434E+03  0.68045562965E+03  0.69079859513E+03  0.00000000000E+00 0. -1.
         13    1    3    3    0    0  0.52825869064E+02 -0.71931310110E+02 -0.64220243084E+03  0.64837384894E+03  0.00000000000E+00 0. -1.
        -14    1    3    3    0    0 -0.29752700023E+02 -0.52708342777E+02 -0.44752825319E+03  0.45160262395E+03  0.00000000000E+00 0.  1.
          5    1    4    4  501    0  0.31388607179E+02  0.53978800646E+02  0.17799997068E+02  0.65063567959E+02  0.41800000000E+01 0.  1.
         -5    1    4    4    0  501 -0.34189299389E+02  0.24631244781E+03 -0.11838669599E+03  0.27544802109E+03  0.41800000000E+01 0.  1.
</event>
<event>
11    1  0.8039394E-009  0.1434048E+03  0.7561462E-02  0.1103815E+00
         22   -1    0    0    0    0  0.00000000000E+00  0.00000000000E+00  0.26300317657E+03  0.26300317657E+03  0.00000000000E+00 0. -1.
         22   -1    0    0    0    0 -0.00000000000E+00 -0.00000000000E+00 -0.31530008742E+03  0.31530008742E+03  0.00000000000E+00 0. -1.
         24    2    1    2    0    0 -0.29597588165E+02 -0.43597044062E+02 -0.23325554017E+03  0.25292897318E+03  0.82390527249E+02 0.  0.
         25    2    1    2    0    0 -0.25796000888E+02 -0.19806655446E+02  0.26403595518E+02  0.13191792399E+03  0.12508977397E+03 0.  0.
        -24    2    1    2    0    0  0.55393589052E+02  0.63403699508E+02  0.15455503380E+03  0.19345636683E+03  0.80309579586E+02 0.  0.
        -13    1    3    3    0    0  0.22797121831E+02  0.49197141471E+01 -0.33707503291E+02  0.40989122083E+02  0.00000000000E+00 0.  1.
         14    1    3    3    0    0 -0.52394709996E+02 -0.48516758209E+02 -0.19954803688E+03  0.21193985110E+03  0.00000000000E+00 0. -1.
         11    1    5    5    0    0  0.65997921368E+02  0.74725643032E+02  0.12330450081E+03  0.15856748491E+03  0.00000000000E+00 0. -1.
        -12    1    5    5    0    0 -0.10604332316E+02 -0.11321943524E+02  0.31250532988E+02  0.34888881912E+02  0.00000000000E+00 0.  1.
          5    1    4    4  501    0  0.10350120591E+02 -0.35593215441E+02 -0.39921885512E+02  0.54637270471E+02  0.41800000000E+01 0.  1.
         -5    1    4    4    0  501 -0.36146121479E+02  0.15786559995E+02  0.66325481029E+02  0.77280653518E+02  0.41800000000E+01 0.  1.
</event>
<event>
11    1  0.8039394E-009  0.5218500E+03  0.7561462E-02  0.9345980E-01
         22   -1    0    0    0    0  0.00000000000E+00  0.00000000000E+00  0.42360302884E+03  0.42360302884E+03  0.00000000000E+00 0.  1.
         22   -1    0    0    0    0 -0.00000000000E+00 -0.00000000000E+00 -0.16072089025E+03  0.16072089025E+03  0.00000000000E+00 0. -1.
        -24    2    1    2    0    0  0.41356563025E+02  0.13354746326E+03  0.45307772739E+02  0.16729007015E+03  0.79924233186E+02 0.  0.
         25    2    1    2    0    0 -0.88099551449E+02 -0.18333353449E+03  0.13161433152E+03  0.27265794119E+03  0.12508918739E+03 0.  0.
         24    2    1    2    0    0  0.46742988424E+02  0.49786071225E+02  0.85960034336E+02  0.14437590774E+03  0.93764147620E+02 0.  0.
        -11    1    5    5    0    0 -0.18834227574E+02  0.18077045204E+02  0.62689572438E+02  0.67907953762E+02  0.00000000000E+00 0.  1.
         12    1    5    5    0    0  0.65577215998E+02  0.31709026020E+02  0.23270461898E+02  0.76467953982E+02  0.00000000000E+00 0. -1.
         13    1    3    3    0    0  0.20963205477E+02  0.13816025512E+03  0.35415736802E+02  0.14415958689E+03  0.00000000000E+00 0. -1.
        -14    1    3    3    0    0  0.20393357548E+02 -0.46127918579E+01  0.98920359371E+01  0.23130483259E+02  0.00000000000E+00 0.  1.
          5    1    4    4  501    0  0.22818889535E+02 -0.51392447471E+02  0.10755175116E+01  0.56396050523E+02  0.41800000000E+01 0.  1.
         -5    1    4    4    0  501 -0.11091844098E+03 -0.13194108702E+03  0.13053881400E+03  0.21626189067E+03  0.41800000000E+01 0.  1.
</event>
<event>
11    1  0.8039394E-009  0.1510198E+03  0.7561462E-02  0.1095841E+00
         22   -1    0    0    0    0  0.00000000000E+00  0.00000000000E+00  0.22420127194E+03  0.22420127194E+03  0.00000000000E+00 0.  1.
         22   -1    0    0    0    0 -0.00000000000E+00 -0.00000000000E+00 -0.65579389538E+03  0.65579389538E+03  0.00000000000E+00 0.  1.
        -24    2    1    2    0    0  0.68362684159E+02 -0.47049188034E+02 -0.49558021478E+03  0.50881799753E+03  0.80055747168E+02 0.  0.
         25    2    1    2    0    0 -0.79521490988E+02  0.51939541848E+02 -0.10469773294E+03  0.18875904949E+03  0.12508788888E+03 0.  0.
         24    2    1    2    0    0  0.11158806829E+02 -0.48903538147E+01  0.16868532427E+03  0.18241812030E+03  0.68360788890E+02 0.  0.
        -13    1    5    5    0    0 -0.10230791626E+01  0.27054427042E+02  0.11942953831E+03  0.12245980293E+03  0.00000000000E+00 0.  1.
         14    1    5    5    0    0  0.12181885992E+02 -0.31944780857E+02  0.49255785962E+02  0.59958317363E+02  0.00000000000E+00 0. -1.
         11    1    3    3    0    0  0.13673633275E+02 -0.48283026159E+02 -0.13333281696E+03  0.14246353548E+03  0.00000000000E+00 0. -1.
        -12    1    3    3    0    0  0.54689050884E+02  0.12338381259E+01 -0.36224739781E+03  0.36635446205E+03  0.00000000000E+00 0.  1.
          5    1    4    4  501    0 -0.32790974398E+02  0.42791963472E+02  0.18071243956E+02  0.57012651209E+02  0.41800000000E+01 0.  1.
         -5    1    4    4    0  501 -0.46730516590E+02  0.91475783757E+01 -0.12276897690E+03  0.13174639828E+03  0.41800000000E+01 0.  1.
</event>
<event>
11    1  0.8039394E-009  0.1715650E+03  0.7561462E-02  0.1076678E+00
         22   -1    0    0    0    0  0.00000000000E+00  0.00000000000E+00  0.29828037176E+04  0.29828037176E+04  0.00000000000E+00 0.  1.
         22   -1    0    0    0    0 -0.00000000000E+00 -0.00000000000E+00 -0.98643127875E+02  0.98643127875E+02  0.00000000000E+00 0.  1.
         24    2    1    2    0    0 -0.17319522360E+02 -0.11388837140E+03 -0.28688455199E+02  0.14448350781E+03  0.82352471552E+02 0.  0.
         25    2    1    2    0    0  0.12139674130E+02  0.14889392299E+03  0.81417629531E+03  0.83716649502E+03  0.12509168056E+03 0.  0.
        -24    2    1    2    0    0  0.51798482299E+01 -0.35005551590E+02  0.20986727496E+04  0.20997968427E+04  0.58883367379E+02 0.  0.
        -13    1    3    3    0    0 -0.38746540402E+01 -0.11659984074E+03 -0.45889568182E+01  0.11675441889E+03  0.00000000000E+00 0.  1.
         14    1    3    3    0    0 -0.13444868320E+02  0.27114693380E+01 -0.24099498381E+02  0.27729088920E+02  0.00000000000E+00 0. -1.
         13    1    5    5    0    0 -0.62348922236E+01  0.15145420013E+02  0.66535777759E+03  0.66555933607E+03  0.00000000000E+00 0. -1.
        -14    1    5    5    0    0  0.11414740453E+02 -0.50150971603E+02  0.14333149720E+04  0.14342375066E+04  0.00000000000E+00 0.  1.
          5    1    4    4  501    0  0.62160985714E+02  0.98345025020E+02  0.60758680041E+03  0.61863957562E+03  0.41800000000E+01 0.  1.
         -5    1    4    4    0  501 -0.50021311585E+02  0.50548897974E+02  0.20658949490E+03  0.21852691940E+03  0.41800000000E+01 0.  1.
</event>
<event>
11    1  0.8039394E-009  0.1661050E+03  0.7561462E-02  0.1081472E+00
         22   -1    0    0    0    0  0.00000000000E+00  0.00000000000E+00  0.10429774977E+03  0.10429774977E+03  0.00000000000E+00 0. -1.
         22   -1    0    0    0    0 -0.00000000000E+00 -0.00000000000E+00 -0.19626664554E+04  0.19626664554E+04  0.00000000000E+00 0.  1.
         24    2    1    2    0    0  0.62760497482E+02  0.69876124928E+02 -0.10226679779E+04  0.10301104622E+04  0.80350596211E+02 0.  0.
         25    2    1    2    0    0 -0.57970386125E+02 -0.15662331081E+03 -0.88502238887E+03  0.90928827081E+03  0.12509637671E+03 0.  0.
        -24    2    1    2    0    0 -0.47901113564E+01  0.86747185884E+02  0.49321661152E+02  0.12756547221E+03  0.79324044381E+02 0.  0.
        -11    1    3    3    0    0  0.58230072081E+02  0.82070893464E+02 -0.70169146176E+03  0.70887042565E+03  0.00000000000E+00 0.  1.
         12    1    3    3    0    0  0.45304254004E+01 -0.12194768536E+02 -0.32097651618E+03  0.32124003654E+03  0.00000000000E+00 0. -1.
         11    1    5    5    0    0 -0.21166912466E+02  0.93387253639E+02  0.27783189513E+02  0.99705180132E+02  0.00000000000E+00 0. -1.
        -12    1    5    5    0    0  0.16376801110E+02 -0.66400677549E+01  0.21538471640E+02  0.27860292083E+02  0.00000000000E+00 0.  1.
          5    1    4    4  501    0 -0.48919290464E+02 -0.73990231960E+01 -0.12145513745E+03  0.13121229110E+03  0.41800000000E+01 0. -1.
         -5    1    4    4    0  501 -0.90510956609E+01 -0.14922428762E+03 -0.76356725142E+03  0.77807597970E+03  0.41800000000E+01 0. -1.
</event>
<event>
11    1  0.8039394E-009  0.1632996E+03  0.7561462E-02  0.1084014E+00
         22   -1    0    0    0    0  0.00000000000E+00  0.00000000000E+00  0.35949477163E+03  0.35949477163E+03  0.00000000000E+00 0. -1.
         22   -1    0    0    0    0 -0.00000000000E+00 -0.00000000000E+00 -0.34491326081E+03  0.34491326081E+03  0.00000000000E+00 0.  1.
        -24    2    1    2    0    0 -0.61304148822E+02  0.80540873979E+02 -0.25240551920E+03  0.28332280344E+03  0.79487318366E+02 0.  0.
         25    2    1    2    0    0  0.38756774201E+02 -0.14817374891E+03  0.93541717346E+02  0.21875954033E+03  0.12509251052E+03 0.  0.
         24    2    1    2    0    0  0.22547374620E+02  0.67632874934E+02  0.17344531267E+03  0.20232568867E+03  0.75959317648E+02 0.  0.
        -11    1    5    5    0    0  0.29346948213E+02  0.20288075545E+01  0.96988815200E+02  0.10135181154E+03  0.00000000000E+00 0.  1.
         12    1    5    5    0    0 -0.67995735927E+01  0.65604067380E+02  0.76456497467E+02  0.10097387713E+03  0.00000000000E+00 0. -1.
         13    1    3    3    0    0 -0.18500410328E+02 -0.12549557248E+02 -0.22990231923E+02  0.32067231457E+02  0.00000000000E+00 0. -1.
        -14    1    3    3    0    0 -0.42803738493E+02  0.93090431226E+02 -0.22941528728E+03  0.25125557198E+03  0.00000000000E+00 0.  1.
          5    1    4    4  501    0  0.19470415681E+02 -0.16818305243E+03  0.75985488636E+02  0.18562301337E+03  0.41800000000E+01 0.  1.
         -5    1    4    4    0  501  0.19286358520E+02  0.20009303516E+02  0.17556228710E+02  0.33136526956E+02  0.41800000000E+01 0.  1.
</event>
<event>
11    1  0.8039394E-009  0.1306263E+03  0.7561462E-02  0.1118502E+00
         22   -1    0    0    0    0  0.00000000000E+00  0.00000000000E+00  0.13872738466E+03  0.13872738466E+03  0.00000000000E+00 0. -1.
         22   -1    0    0    0    0 -0.00000000000E+00 -0.00000000000E+00 -0.13434376119E+04  0.13434376119E+04  0.00000000000E+00 0.  1.
         24    2    1    2    0    0 -0.14848479091E+02  0.15831076541E+01 -0.12208700496E+04  0.12235026158E+04  0.78816173194E+02 0.  0.
         25    2    1    2    0    0 -0.25238635655E+02  0.10057068938E+01 -0.59952955163E+02  0.14099908607E+03  0.12509350609E+03 0.  0.
        -24    2    1    2    0    0  0.40087114746E+02 -0.25888145479E+01  0.76112777537E+02  0.11766329473E+03  0.80236009951E+02 0.  0.
        -13    1    3    3    0    0  0.14168604102E+02 -0.30129105002E+02 -0.72828816034E+03  0.72904880276E+03  0.00000000000E+00 0.  1.
         14    1    3    3    0    0 -0.29017083193E+02  0.31712212656E+02 -0.49258188927E+03  0.49445381299E+03  0.00000000000E+00 0. -1.
         13    1    5    5    0    0  0.52482278803E+02 -0.18434752630E+02  0.79735929280E+02  0.97221644252E+02  0.00000000000E+00 0. -1.
        -14    1    5    5    0    0 -0.12395164057E+02  0.15845938082E+02 -0.36231517430E+01  0.20441650478E+02  0.00000000000E+00 0.  1.
          5    1    4    4  501    0 -0.65526656087E+02  0.24633245700E+02 -0.62639220758E+02  0.94030228272E+02  0.41800000000E+01 0.  1.
         -5    1    4    4    0  501  0.40288020432E+02 -0.23627538806E+02  0.26862655953E+01  0.46968857802E+02  0.41800000000E+01 0.  1.
</event>
<event>
11    1  0.8039394E-009  0.3472534E+03  0.7561462E-02  0.9819646E-01
         22   -1    0    0    0    0  0.00000000000E+00  0.00000000000E+00  0.56248350655E+03  0.56248350655E+03  0.00000000000E+00 0.  1.
         22   -1    0    0    0    0 -0.00000000000E+00 -0.00000000000E+00 -0.80035337334E+03  0.80035337334E+03  0.00000000000E+00 0.  1.
        -24    2    1    2    0    0 -0.35806666057E+02  0.26678196731E+02 -0.39130026092E+03  0.40177711406E+03  0.79467676886E+02 0.  0.
         25    2    1    2    0    0 -0.52048156983E+02 -0.33599896719E+03 -0.24937119938E+03  0.43981449778E+03  0.12508589361E+03 0.  0.
         24    2    1    2    0    0  0.87854823040E+02  0.30932077046E+03  0.40280159350E+03  0.52124526805E+03  0.77779796618E+02 0.  0.
        -11    1    5    5    0    0  0.47905527783E+02  0.27190624959E+03  0.33579462990E+03  0.43472517943E+03  0.00000000000E+00 0.  1.
         12    1    5    5    0    0  0.39949295257E+02  0.37414520877E+02  0.67006963601E+02  0.86520088621E+02  0.00000000000E+00 0. -1.
         13    1    3    3    0    0 -0.23594923198E+02 -0.23828768898E+02 -0.90320750028E+02  0.96345049242E+02  0.00000000000E+00 0. -1.
        -14    1    3    3    0    0 -0.12211742859E+02  0.50506965629E+02 -0.30097951090E+03  0.30543206482E+03  0.00000000000E+00 0.  1.
          5    1    4    4  501    0 -0.81926255719E+02 -0.26635632087E+03 -0.23034031825E+03  0.36156843841E+03  0.41800000000E+01 0. -1.
         -5    1    4    4    0  501  0.29878098736E+02 -0.69642646326E+02 -0.19030881131E+02  0.78246059377E+02  0.41800000000E+01 0. -1.
</event>
<event>
11    1  0.8039394E-009  0.1530906E+03  0.7561462E-02  0.1093762E+00
         22   -1    0    0    0    0  0.00000000000E+00  0.00000000000E+00  0.46808335391E+03  0.46808335391E+03  0.00000000000E+00 0. -1.
         22   -1    0    0    0    0 -0.00000000000E+00 -0.00000000000E+00 -0.88551076700E+03  0.88551076700E+03  0.00000000000E+00 0. -1.
        -24    2    1    2    0    0  0.33962739626E+02  0.84734728841E+02 -0.61482601411E+03  0.62683537053E+03  0.81105561866E+02 0.  0.
         25    2    1    2    0    0 -0.18513264282E+01 -0.81585985908E+02 -0.23885996960E+03  0.28171168315E+03  0.12509071445E+03 0.  0.
         24    2    1    2    0    0 -0.32111413198E+02 -0.31487429332E+01  0.43625857062E+03  0.44504706723E+03  0.81879754365E+02 0.  0.
        -11    1    5    5    0    0 -0.56539745461E+02  0.11176335772E+02  0.24401269900E+03  0.25072664512E+03  0.00000000000E+00 0.  1.
         12    1    5    5    0    0  0.24428332263E+02 -0.14325078706E+02  0.19224587162E+03  0.19432042212E+03  0.00000000000E+00 0. -1.
         11    1    3    3    0    0 -0.92288316107E+00  0.46429895629E+02 -0.48247774992E+03  0.48470750571E+03  0.00000000000E+00 0. -1.
        -12    1    3    3    0    0  0.34885622787E+02  0.38304833212E+02 -0.13234826419E+03  0.14212786482E+03  0.00000000000E+00 0.  1.
          5    1    4    4  501    0  0.19472347333E+02 -0.35559475169E+02 -0.34952562765E+01  0.40906451830E+02  0.41800000000E+01 0. -1.
         -5    1    4    4    0  501 -0.21323673761E+02 -0.46026510739E+02 -0.23536471333E+03  0.24080523132E+03  0.41800000000E+01 0. -1.
</event>
<event>
11    1  0.8039394E-009  0.1366692E+03  0.7561462E-02  0.1111336E+00
         22   -1    0    0    0    0  0.00000000000E+00  0.00000000000E+00  0.60777115643E+03  0.60777115643E+03  0.00000000000E+00 0. -1.
         22   -1    0    0    0    0 -0.00000000000E+00 -0.00000000000E+00 -0.23710215749E+03  0.23710215749E+03  0.00000000000E+00 0.  1.
         24    2    1    2    0    0 -0.48275488270E+02 -0.21407530570E+02 -0.13965625558E+03  0.16966053986E+03  0.80573096811E+02 0.  0.
         25    2    1    2    0    0  0.58475548522E+02  0.27001804141E+02 -0.17504609660E+02  0.14177912579E+03  0.12508565844E+03 0.  0.
        -24    2    1    2    0    0 -0.10200060251E+02 -0.55942735714E+01  0.52782986418E+03  0.53343364828E+03  0.76234863866E+02 0.  0.
        -13    1    3    3    0    0 -0.35129963716E+02 -0.24729635982E+02 -0.14775035278E+03  0.15386954212E+03  0.00000000000E+00 0.  1.
         14    1    3    3    0    0 -0.13145524554E+02  0.33221054122E+01  0.80940971961E+01  0.15790997739E+02  0.00000000000E+00 0. -1.
         13    1    5    5    0    0 -0.34851535812E+02  0.16793636166E+02  0.37654564493E+03  0.37852777768E+03  0.00000000000E+00 0. -1.
        -14    1    5    5    0    0  0.24651475560E+02 -0.22387909737E+02  0.15128421925E+03  0.15490587059E+03  0.00000000000E+00 0.  1.
          5    1    4    4  501    0  0.54726418619E+02 -0.29092096515E+02 -0.47242064956E+02  0.78042399219E+02  0.41800000000E+01 0.  1.
         -5    1    4    4    0  501  0.37491299022E+01  0.56093900656E+02  0.29737455296E+02  0.63736726566E+02  0.41800000000E+01 0.  1.
</event>
<event>
11    1  0.8039394E-009  0.3158864E+03  0.7561462E-02  0.9936832E-01
         22   -1    0    0    0    0  0.00000000000E+00  0.00000000000E+00  0.92044066958E+03  0.92044066958E+03  0.00000000000E+00 0.  1.
         22   -1    0    0    0    0 -0.00000000000E+00 -0.00000000000E+00 -0.15111735286E+04  0.15111735286E+04  0.00000000000E+00 0. -1.
         24    2    1    2    0    0  0.15861353676E+02 -0.79922653198E+02 -0.13071535997E+04  0.13121636526E+04  0.80521455945E+02 0.  0.
         25    2    1    2    0    0 -0.62815331548E+02  0.35396651860E+03  0.39154562943E+02  0.38264078538E+03  0.12507129434E+03 0.  0.
        -24    2    1    2    0    0  0.46953977872E+02 -0.27404386541E+03  0.67726617777E+03  0.73680976019E+03  0.83032710122E+02 0.  0.
        -13    1    3    3    0    0 -0.20669741792E+02  0.53999353273E+01 -0.28887988344E+03  0.28966874975E+03  0.00000000000E+00 0.  1.
         14    1    3    3    0    0  0.36531095467E+02 -0.85322588525E+02 -0.10182737163E+04  0.10224949029E+04  0.00000000000E+00 0. -1.
         11    1    5    5    0    0 -0.32722334710E+01 -0.49553407536E+02  0.58907754493E+02  0.77047850390E+02  0.00000000000E+00 0. -1.
        -12    1    5    5    0    0  0.50226211343E+02 -0.22449045787E+03  0.61835842328E+03  0.65976190980E+03  0.00000000000E+00 0.  1.
          5    1    4    4  501    0  0.32299654745E+02  0.59748236537E+02 -0.12297423127E+02  0.69150694005E+02  0.41800000000E+01 0. -1.
         -5    1    4    4    0  501 -0.95114986292E+02  0.29421828207E+03  0.51451986070E+02  0.31349009138E+03  0.41800000000E+01 0. -1.
</event>
<event>
11    1  0.8039394E-009  0.1593221E+03  0.7561462E-02  0.1087717E+00
         22   -1    0    0    0    0  0.00000000000E+00  0.00000000000E+00  0.86313275165E+03  0.86313275165E+03  0.00000000000E+00 0.  1.
         22   -1    0    0    0    0 -0.00000000000E+00 -0.00000000000E+00 -0.21933881146E+03  0.21933881146E+03  0.00000000000E+00 0. -1.
         24    2    1    2    0    0  0.76788717500E+02  0.64357959562E+02 -0.18156133052E+03  0.21780324966E+03  0.66597933378E+02 0.  0.
         25    2    1    2    0    0 -0.48847975467E+02 -0.52167280265E+02  0.31432414225E+03  0.34576694648E+03  0.12509022759E+03 0.  0.
        -24    2    1    2    0    0 -0.27940742033E+02 -0.12190679297E+02  0.51103112845E+03  0.51890136696E+03  0.84714323815E+02 0.  0.
        -13    1    3    3    0    0  0.64579678864E+01  0.83495376807E+01  0.42533177553E+01  0.11380282977E+02  0.00000000000E+00 0.  1.
         14    1    3    3    0    0  0.70330749614E+02  0.56008421881E+02 -0.18581464827E+03  0.20642296669E+03  0.00000000000E+00 0. -1.
         11    1    5    5    0    0  0.22408455103E+02 -0.22678610087E+02  0.10816711631E+03  0.11276782904E+03  0.00000000000E+00 0. -1.
        -12    1    5    5    0    0 -0.50349197136E+02  0.10487930790E+02  0.40286401214E+03  0.40613353792E+03  0.00000000000E+00 0.  1.
          5    1    4    4  501    0 -0.85680759917E+02 -0.50281494452E+02  0.17190549896E+03  0.19859102265E+03  0.41800000000E+01 0. -1.
         -5    1    4    4    0  501  0.36832784451E+02 -0.18857858127E+01  0.14241864329E+03  0.14717592383E+03  0.41800000000E+01 0. -1.
</event>
<event>
11    1  0.8039394E-009  0.1858994E+03  0.7561462E-02  0.1064968E+00
         22   -1    0    0    0    0  0.00000000000E+00  0.00000000000E+00  0.18301346909E+04  0.18301346909E+04  0.00000000000E+00 0.  1.
         22   -1    0    0    0    0 -0.00000000000E+00 -0.00000000000E+00 -0.51292336130E+02  0.51292336130E+02  0.00000000000E+00 0. -1.
         24    2    1    2    0    0 -0.34152338254E+02 -0.13910486422E+03  0.24787714300E+03  0.29710158808E+03  0.79433809942E+02 0.  0.
         25    2    1    2    0    0  0.77020459827E+02 -0.35095158481E+02  0.28122621371E+03  0.31922476562E+03  0.12510973714E+03 0.  0.
        -24    2    1    2    0    0 -0.42868121573E+02  0.17420002271E+03  0.12497389981E+04  0.12651006733E+04  0.80304586518E+02 0.  0.
        -13    1    3    3    0    0 -0.36187724635E+02 -0.14509941237E+02  0.53164975309E+02  0.65928782853E+02  0.00000000000E+00 0.  1.
         14    1    3    3    0    0  0.20353863806E+01 -0.12459492299E+03  0.19471216769E+03  0.23117280523E+03  0.00000000000E+00 0. -1.
         13    1    5    5    0    0 -0.62772535543E+02  0.94518924914E+02  0.66247424789E+03  0.67212078342E+03  0.00000000000E+00 0. -1.
        -14    1    5    5    0    0  0.19904413970E+02  0.79681097791E+02  0.58726475016E+03  0.59297988990E+03  0.00000000000E+00 0.  1.
          5    1    4    4  501    0  0.64884057713E+02 -0.73695239188E+01  0.28115781785E+03  0.28867185829E+03  0.41800000000E+01 0.  1.
         -5    1    4    4    0  501  0.12136402115E+02 -0.27725634562E+02  0.68395852999E-01  0.30552907328E+02  0.41800000000E+01 0.  1.
</event>
<event>
11    1  0.8039394E-009  0.1532478E+03  0.7561462E-02  0.1093606E+00
         22   -1    0    0    0    0  0.00000000000E+00  0.00000000000E+00  0.53300839925E+03  0.53300839925E+03  0.00000000000E+00 0.  1.
         22   -1    0    0    0    0 -0.00000000000E+00 -0.00000000000E+00 -0.21469333130E+03  0.21469333130E+03  0.00000000000E+00 0.  1.
        -24    2    1    2    0    0  0.15161733543E+01  0.73424624134E+01 -0.13487331934E+03  0.15822382131E+03  0.82387831772E+02 0.  0.
         25    2    1    2    0    0 -0.41810095828E+02  0.72306116803E+02  0.35239268551E+02  0.15448488707E+03  0.12509003016E+03 0.  0.
         24    2    1    2    0    0  0.40293922473E+02 -0.79648579216E+02  0.41794911874E+03  0.43499302217E+03  0.81055333726E+02 0.  0.
        -13    1    5    5    0    0  0.21067591452E+02 -0.49854231793E+02  0.37682726767E+03  0.38069420471E+03  0.00000000000E+00 0.  1.
         14    1    5    5    0    0  0.19226331021E+02 -0.29794347423E+02  0.41121851064E+02  0.54298817462E+02  0.00000000000E+00 0. -1.
         11    1    3    3    0    0  0.80712269564E+01  0.38369383997E+02 -0.32112110295E+02  0.50680784924E+02  0.00000000000E+00 0. -1.
        -12    1    3    3    0    0 -0.65550536021E+01 -0.31026921584E+02 -0.10276120904E+03  0.10754303638E+03  0.00000000000E+00 0.  1.
          5    1    4    4  501    0 -0.56413564821E+02  0.29554537652E+02 -0.33532072807E+02  0.72096000571E+02  0.41800000000E+01 0.  1.
         -5    1    4    4    0  501  0.14603468993E+02  0.42751579150E+02  0.68771341357E+02  0.82388886499E+02  0.41800000000E+01 0.  1.
</event>
<event>
11    1  0.8039394E-009  0.7717854E+03  0.7561462E-02  0.8932728E-01
         22   -1    0    0    0    0  0.00000000000E+00  0.00000000000E+00  0.68741081607E+03  0.68741081607E+03  0.00000000000E+00 0.  1.
         22   -1    0    0    0    0 -0.00000000000E+00 -0.00000000000E+00 -0.21662906558E+03  0.21662906558E+03  0.00000000000E+00 0.  1.
        -24    2    1    2    0    0  0.18583844097E+03 -0.40362081279E+02 -0.43251987962E+02  0.21056154924E+03  0.79375108232E+02 0.  0.
         25    2    1    2    0    0 -0.28904078512E+03  0.57624861284E+02  0.43406794898E+03  0.53938144078E+03  0.12510856975E+03 0.  0.
         24    2    1    2    0    0  0.10320234415E+03 -0.17262780004E+02  0.79965789468E+02  0.15409689164E+03  0.80016230326E+02 0.  0.
        -11    1    5    5    0    0  0.89311331380E+02  0.12286141218E+02  0.81330651205E+02  0.12141720638E+03  0.00000000000E+00 0.  1.
         12    1    5    5    0    0  0.13891012766E+02 -0.29548921222E+02 -0.13648617366E+01  0.32679685259E+02  0.00000000000E+00 0. -1.
         13    1    3    3    0    0  0.47784239169E+02  0.13528913079E+02 -0.37535023682E+02  0.62251449822E+02  0.00000000000E+00 0. -1.
        -14    1    3    3    0    0  0.13805420180E+03 -0.53890994358E+02 -0.57169642799E+01  0.14831009942E+03  0.00000000000E+00 0.  1.
          5    1    4    4  501    0 -0.15200252626E+01 -0.16434160982E+02  0.52959491595E+01  0.17830075756E+02  0.41800000000E+01 0.  1.
         -5    1    4    4    0  501 -0.28752075986E+03  0.74059022265E+02  0.42877199983E+03  0.52155136503E+03  0.41800000000E+01 0.  1.
</event>
<event>
11    1  0.8039394E-009  0.1723783E+03  0.7561462E-02  0.1075980E+00
         22   -1    0    0    0    0  0.00000000000E+00  0.00000000000E+00  0.25767623163E+03  0.25767623163E+03  0.00000000000E+00 0.  1.
         22   -1    0    0    0    0 -0.00000000000E+00 -0.00000000000E+00 -0.54250009885E+03  0.54250009885E+03  0.00000000000E+00 0. -1.
        -24    2    1    2    0    0 -0.15564322102E+02  0.82080572119E+01 -0.43175038393E+03  0.43948442837E+03  0.80178229155E+02 0.  0.
         25    2    1    2    0    0  0.83221945112E+02 -0.99326499207E+02  0.39063020453E+02  0.18429636248E+03  0.12509030363E+03 0.  0.
         24    2    1    2    0    0 -0.67657623010E+02  0.91118441995E+02  0.10786349626E+03  0.17639553964E+03  0.81244865406E+02 0.  0.
        -11    1    5    5    0    0 -0.54422259088E+02  0.86544848409E+02  0.12015528741E+03  0.15776275278E+03  0.00000000000E+00 0.  1.
         12    1    5    5    0    0 -0.13235363923E+02  0.45735935862E+01 -0.12291791151E+02  0.18632786860E+02  0.00000000000E+00 0. -1.
         13    1    3    3    0    0 -0.16487146051E+02 -0.21784717024E+02 -0.36813248087E+03  0.36914485416E+03  0.00000000000E+00 0. -1.
        -14    1    3    3    0    0  0.92282394946E+00  0.29992774236E+02 -0.63617903062E+02  0.70339574212E+02  0.00000000000E+00 0.  1.
          5    1    4    4  501    0  0.45910232403E+02 -0.11080827337E+03 -0.11177168762E+02  0.12053474349E+03  0.41800000000E+01 0. -1.
         -5    1    4    4    0  501  0.37311712709E+02  0.11481774166E+02  0.50240189214E+02  0.63761618985E+02  0.41800000000E+01 0. -1.
</event>
<event>
11    1  0.8039394E-009  0.1508551E+03  0.7561462E-02  0.1096008E+00
         22   -1    0    0    0    0  0.00000000000E+00  0.00000000000E+00  0.47341577086E+03  0.47341577086E+03  0.00000000000E+00 0.  1.
         22   -1    0    0    0    0 -0.00000000000E+00 -0.00000000000E+00 -0.18529348415E+03  0.18529348415E+03  0.00000000000E+00 0. -1.
         24    2    1    2    0    0 -0.20665736706E+02 -0.41465645844E+02 -0.12966219821E+03  0.15886326732E+03  0.79238750627E+02 0.  0.
         25    2    1    2    0    0  0.61081356229E+02  0.96002322990E+02  0.24564704292E+03  0.29822312706E+03  0.12508871140E+03 0.  0.
        -24    2    1    2    0    0 -0.40415619523E+02 -0.54536677146E+02  0.17213744199E+03  0.20162286062E+03  0.80080007093E+02 0.  0.
        -13    1    3    3    0    0 -0.15208617748E+02  0.21924094848E+02 -0.26145628921E+02  0.37357220191E+02  0.00000000000E+00 0.  1.
         14    1    3    3    0    0 -0.54571189580E+01 -0.63389740691E+02 -0.10351656929E+03  0.12150604713E+03  0.00000000000E+00 0. -1.
         13    1    5    5    0    0  0.22410604521E+02 -0.25342785223E+02  0.39692169385E+02  0.52153238331E+02  0.00000000000E+00 0. -1.
        -14    1    5    5    0    0 -0.62826224044E+02 -0.29193891923E+02  0.13244527260E+03  0.14946962229E+03  0.00000000000E+00 0.  1.
          5    1    4    4  501    0  0.80689230910E+01  0.68606411808E+02  0.22426038419E+03  0.23469584482E+03  0.41800000000E+01 0. -1.
         -5    1    4    4    0  501  0.53012433138E+02  0.27395911182E+02  0.21386658736E+02  0.63527282238E+02  0.41800000000E+01 0. -1.
</event>
<event>
11    1  0.8039394E-009  0.2367426E+03  0.7561462E-02  0.1031209E+00
         22   -1    0    0    0    0  0.00000000000E+00  0.00000000000E+00  0.66521682191E+03  0.66521682191E+03  0.00000000000E+00 0.  1.
         22   -1    0    0    0    0 -0.00000000000E+00 -0.00000000000E+00 -0.86508561781E+03  0.86508561781E+03  0.00000000000E+00 0. -1.
        -24    2    1    2    0    0  0.19180563114E+02  0.18953641868E+03 -0.53005909611E+03  0.56887147077E+03  0.79750591693E+02 0.  0.
         25    2    1    2    0    0 -0.82745402316E+02 -0.22332408317E+03 -0.24949313182E+03  0.36689854415E+03  0.12508905285E+03 0.  0.
         24    2    1    2    0    0  0.63564839203E+02  0.33787664493E+02  0.57968343203E+03  0.59453242480E+03  0.11069700862E+03 0.  0.
        -13    1    5    5    0    0  0.79102959875E+02  0.26076523215E+02  0.56689651459E+03  0.57298247929E+03  0.00000000000E+00 0.  1.
         14    1    5    5    0    0 -0.15538120673E+02  0.77111412777E+01  0.12786917443E+02  0.21549945511E+02  0.00000000000E+00 0. -1.
         11    1    3    3    0    0  0.21269765701E+02  0.18948390919E+02 -0.14410888207E+03  0.14689729182E+03  0.00000000000E+00 0. -1.
        -12    1    3    3    0    0 -0.20892025871E+01  0.17058802776E+03 -0.38595021404E+03  0.42197417895E+03  0.00000000000E+00 0.  1.
          5    1    4    4  501    0 -0.39696599586E+01 -0.13536334704E+03 -0.71324927162E+02  0.15311339444E+03  0.41800000000E+01 0.  1.
         -5    1    4    4    0  501 -0.78775742358E+02 -0.87960736136E+02 -0.17816820466E+03  0.21378514971E+03  0.41800000000E+01 0.  1.
</event>
<event>
11    1  0.8039394E-009  0.1897783E+03  0.7561462E-02  0.1061997E+00
         22   -1    0    0    0    0  0.00000000000E+00  0.00000000000E+00  0.92335291525E+03  0.92335291525E+03  0.00000000000E+00 0.  1.
         22   -1    0    0    0    0 -0.00000000000E+00 -0.00000000000E+00 -0.56302762448E+03  0.56302762448E+03  0.00000000000E+00 0.  1.
         24    2    1    2    0    0  0.53303227559E+02 -0.12892787357E+03 -0.47967884302E+03  0.50612703397E+03  0.81296687683E+02 0.  0.
         25    2    1    2    0    0 -0.81038873417E+02  0.17140816953E+03  0.12601367688E+03  0.25976252591E+03  0.12509621704E+03 0.  0.
        -24    2    1    2    0    0  0.27735645857E+02 -0.42480295961E+02  0.71399045691E+03  0.72049097985E+03  0.82164699719E+02 0.  0.
        -11    1    3    3    0    0  0.74206657368E+02 -0.97354117493E+02 -0.39065367086E+03  0.40938336891E+03  0.00000000000E+00 0.  1.
         12    1    3    3    0    0 -0.20903429808E+02 -0.31573756080E+02 -0.89025172163E+02  0.96743665061E+02  0.00000000000E+00 0. -1.
         11    1    5    5    0    0  0.41016493394E+02 -0.38719878553E+02  0.24954071004E+03  0.25583617354E+03  0.00000000000E+00 0. -1.
        -12    1    5    5    0    0 -0.13280847536E+02 -0.37604174079E+01  0.46444974688E+03  0.46465480631E+03  0.00000000000E+00 0.  1.
          5    1    4    4  501    0 -0.11199257323E+03  0.15608322341E+03  0.10260795633E+03  0.21783060894E+03  0.41800000000E+01 0.  1.
         -5    1    4    4    0  501  0.30953699814E+02  0.15324946123E+02  0.23405720555E+02  0.41931916968E+02  0.41800000000E+01 0.  1.
</event>
<event>
11    1  0.8039394E-009  0.1437518E+03  0.7561462E-02  0.1103440E+00
         22   -1    0    0    0    0  0.00000000000E+00  0.00000000000E+00  0.15128439304E+04  0.15128439304E+04  0.00000000000E+00 0. -1.
         22   -1    0    0    0    0 -0.00000000000E+00 -0.00000000000E+00 -0.41662554796E+02  0.41662554796E+02  0.00000000000E+00 0.  1.
        -24    2    1    2    0    0 -0.34277796810E+02 -0.50294984236E+01  0.39420707585E+02  0.97431828756E+02  0.82089620901E+02 0.  0.
         25    2    1    2    0    0 -0.31150647557E+02  0.46305450377E+02  0.48974310525E+03  0.50853849325E+03  0.12509409419E+03 0.  0.
         24    2    1    2    0    0  0.65428444367E+02 -0.41275951954E+02  0.94201756273E+03  0.94853616315E+03  0.79618959861E+02 0.  0.
        -13    1    5    5    0    0  0.68402972965E+02 -0.31601986670E+02  0.43920025543E+03  0.44561700668E+03  0.00000000000E+00 0.  1.
         14    1    5    5    0    0 -0.29745285982E+01 -0.96739652839E+01  0.50281730730E+03  0.50291915647E+03  0.00000000000E+00 0. -1.
         13    1    3    3    0    0 -0.37230872337E+02  0.33472257843E+02  0.26921147380E+02  0.56844331962E+02  0.00000000000E+00 0. -1.
        -14    1    3    3    0    0  0.29530755267E+01 -0.38501756266E+02  0.12499560205E+02  0.40587496793E+02  0.00000000000E+00 0.  1.
          5    1    4    4  501    0 -0.42923988042E+02  0.30526383886E+02  0.67051703294E+02  0.85368215263E+02  0.41800000000E+01 0. -1.
         -5    1    4    4    0  501  0.11773340485E+02  0.15779066491E+02  0.42269140196E+03  0.42317027799E+03  0.41800000000E+01 0. -1.
</event>
<event>
11    1  0.8039394E-009  0.1383286E+03  0.7561462E-02  0.1109439E+00
         22   -1    0    0    0    0  0.00000000000E+00  0.00000000000E+00  0.13405571568E+04  0.13405571568E+04  0.00000000000E+00 0. -1.
         22   -1    0    0    0    0 -0.00000000000E+00 -0.00000000000E+00 -0.63545926789E+02  0.63545926789E+02  0.00000000000E+00 0.  1.
         24    2    1    2    0    0  0.34012455923E+01  0.21978331817E+02 -0.17277784711E+02  0.82565380428E+02  0.77613817453E+02 0.  0.
         25    2    1    2    0    0 -0.59165219192E+02 -0.34050036081E+02  0.47080877659E+03  0.49190402130E+03  0.12509489974E+03 0.  0.
        -24    2    1    2    0    0  0.55763973600E+02  0.12071704264E+02  0.82348023815E+03  0.82963368187E+03  0.83168483702E+02 0.  0.
        -11    1    3    3    0    0 -0.17787854308E+02 -0.72801468841E+01 -0.36789526481E+02  0.41507560254E+02  0.00000000000E+00 0.  1.
         12    1    3    3    0    0  0.21189099901E+02  0.29258478701E+02  0.19511741770E+02  0.41057820173E+02  0.00000000000E+00 0. -1.
         11    1    5    5    0    0  0.51054648532E+02 -0.16751358804E+02  0.72303288325E+03  0.72502671359E+03  0.00000000000E+00 0. -1.
        -12    1    5    5    0    0  0.47093250677E+01  0.28823063068E+02  0.10044735490E+03  0.10460696829E+03  0.00000000000E+00 0.  1.
          5    1    4    4  501    0 -0.47589102097E+01  0.21545083654E+02  0.10044145809E+02  0.24600713833E+02  0.41800000000E+01 0. -1.
         -5    1    4    4    0  501 -0.54406308983E+02 -0.55595119735E+02  0.46076463078E+03  0.46730330747E+03  0.41800000000E+01 0. -1.
</event>
<event>
11    1  0.8039394E-009  0.1614003E+03  0.7561462E-02  0.1085768E+00
         22   -1    0    0    0    0  0.00000000000E+00  0.00000000000E+00  0.27656542840E+03  0.27656542840E+03  0.00000000000E+00 0.  1.
         22   -1    0    0    0    0 -0.00000000000E+00 -0.00000000000E+00 -0.86091907306E+03  0.86091907306E+03  0.00000000000E+00 0. -1.
         24    2    1    2    0    0  0.44775625563E+02  0.29351898048E+01 -0.63641790658E+03  0.64316160458E+03  0.81336497399E+02 0.  0.
         25    2    1    2    0    0 -0.48039369987E+02 -0.10446454989E+03 -0.16802949909E+03  0.23896040739E+03  0.12509012945E+03 0.  0.
        -24    2    1    2    0    0  0.32637444245E+01  0.10152936008E+03  0.22009376100E+03  0.25536248948E+03  0.80311110181E+02 0.  0.
        -13    1    3    3    0    0  0.89774918578E+01 -0.24825377265E+02 -0.68047300614E+02  0.72988559633E+02  0.00000000000E+00 0.  1.
         14    1    3    3    0    0  0.35798133705E+02  0.27760567069E+02 -0.56837060597E+03  0.57017304495E+03  0.00000000000E+00 0. -1.
         11    1    5    5    0    0 -0.13438587132E+02 -0.11287750159E+01  0.18629598058E+01  0.13613977243E+02  0.00000000000E+00 0. -1.
        -12    1    5    5    0    0  0.16702331556E+02  0.10265813510E+03  0.21823080119E+03  0.24174851224E+03  0.00000000000E+00 0.  1.
          5    1    4    4  501    0 -0.86763445223E+02 -0.96791621247E+02 -0.12433270995E+03  0.17992389651E+03  0.41800000000E+01 0.  1.
         -5    1    4    4    0  501  0.38724075236E+02 -0.76729286405E+01 -0.43696789140E+02  0.59036510889E+02  0.41800000000E+01 0.  1.
</event>
<event>
11    1  0.8039394E-009  0.1513968E+03  0.7561462E-02  0.1095460E+00
         22   -1    0    0    0    0  0.00000000000E+00  0.00000000000E+00  0.24666708056E+03  0.24666708056E+03  0.00000000000E+00 0. -1.
         22   -1    0    0    0    0 -0.00000000000E+00 -0.00000000000E+00 -0.80347263210E+03  0.80347263210E+03  0.00000000000E+00 0. -1.
         24    2    1    2    0    0 -0.88787018907E+01  0.76397280495E+02 -0.49998818295E+03  0.51216504177E+03  0.80059172533E+02 0.  0.
         25    2    1    2    0    0 -0.89886662753E+01 -0.12428112217E+03 -0.25934856768E+03  0.31372911829E+03  0.12505073634E+03 0.  0.
        -24    2    1    2    0    0  0.17867368166E+02  0.47883841670E+02  0.20253119910E+03  0.22424555260E+03  0.81578649875E+02 0.  0.
        -13    1    3    3    0    0 -0.11617957975E+02 -0.13555321495E+02 -0.13836451367E+03  0.13951151326E+03  0.00000000000E+00 0.  1.
         14    1    3    3    0    0  0.27392560844E+01  0.89952601990E+02 -0.36162366928E+03  0.37265352852E+03  0.00000000000E+00 0. -1.
         11    1    5    5    0    0 -0.16144893741E+02  0.31365854042E+02  0.17218854543E+03  0.17576509771E+03  0.00000000000E+00 0. -1.
        -12    1    5    5    0    0  0.34012261907E+02  0.16517987628E+02  0.30342653663E+02  0.48480454893E+02  0.00000000000E+00 0.  1.
          5    1    4    4  501    0  0.42254009224E+02 -0.11648818570E+03 -0.19367000286E+03  0.22995747674E+03  0.41800000000E+01 0. -1.
         -5    1    4    4    0  501 -0.51242675499E+02 -0.77929364679E+01 -0.65678564820E+02  0.83771641549E+02  0.41800000000E+01 0. -1.
</event>
<event>
11    1  0.8039394E-009  0.2838526E+03  0.7561462E-02  0.1007267E+00
         22   -1    0    0    0    0  0.00000000000E+00  0.00000000000E+00  0.16192679947E+04  0.16192679947E+04  0.00000000000E+00 0.  1.
         22   -1    0    0    0    0 -0.00000000000E+00 -0.00000000000E+00 -0.10626770343E+04  0.10626770343E+04  0.00000000000E+00 0.  1.
        -24    2    1    2    0    0  0.53156758048E+02 -0.12909551476E+02 -0.98519306477E+03  0.99000470741E+03  0.80694785378E+02 0.  0.
         25    2    1    2    0    0 -0.61958658507E+01  0.26259792850E+03  0.28528384917E+03  0.40746887401E+03  0.12509175784E+03 0.  0.
         24    2    1    2    0    0 -0.46960892197E+02 -0.24968837702E+03  0.12565001760E+04  0.12844714476E+04  0.80774973167E+02 0.  0.
        -11    1    5    5    0    0 -0.57358788225E+02 -0.24380465321E+03  0.11308234799E+04  0.11582281650E+04  0.00000000000E+00 0.  1.
         12    1    5    5    0    0  0.10397896027E+02 -0.58837238163E+01  0.12567669617E+03  0.12624328262E+03  0.00000000000E+00 0. -1.
         11    1    3    3    0    0  0.16626321200E+02  0.98927554902E+01 -0.47031213737E+02  0.50855051209E+02  0.00000000000E+00 0. -1.
        -12    1    3    3    0    0  0.36530436848E+02 -0.22802306967E+02 -0.93816185103E+03  0.93914965620E+03  0.00000000000E+00 0.  1.
          5    1    4    4  501    0  0.48691744972E+02  0.54532135068E+02  0.50422413953E+02  0.88907435079E+02  0.41800000000E+01 0.  1.
         -5    1    4    4    0  501 -0.54887610823E+02  0.20806579343E+03  0.23486143522E+03  0.31856143893E+03  0.41800000000E+01 0.  1.
</event>
<event>
11    1  0.8039394E-009  0.1748772E+03  0.7561462E-02  0.1073864E+00
         22   -1    0    0    0    0  0.00000000000E+00  0.00000000000E+00  0.12956125225E+03  0.12956125225E+03  0.00000000000E+00 0. -1.
         22   -1    0    0    0    0 -0.00000000000E+00 -0.00000000000E+00 -0.22932957661E+04  0.22932957661E+04  0.00000000000E+00 0. -1.
        -24    2    1    2    0    0 -0.12262529777E+02 -0.10931422958E+02 -0.16816875722E+04  0.16839889935E+04  0.86463714396E+02 0.  0.
         25    2    1    2    0    0  0.11251680401E+03 -0.58417502782E+02 -0.54945499372E+03  0.57759953598E+03  0.12509115883E+03 0.  0.
         24    2    1    2    0    0 -0.10025427423E+03  0.69348925740E+02  0.67408052100E+02  0.16126848889E+03  0.81261842332E+02 0.  0.
        -11    1    5    5    0    0 -0.10754668102E+02  0.54382543256E+02  0.20375763826E+02  0.59061795168E+02  0.00000000000E+00 0.  1.
         12    1    5    5    0    0 -0.89499606130E+02  0.14966382484E+02  0.47032288274E+02  0.10220669373E+03  0.00000000000E+00 0. -1.
         13    1    3    3    0    0  0.14876794528E+02 -0.12741253279E+02 -0.15126713082E+04  0.15127981178E+04  0.00000000000E+00 0. -1.
        -14    1    3    3    0    0 -0.27139324306E+02  0.18098303201E+01 -0.16901626402E+03  0.17119087567E+03  0.00000000000E+00 0.  1.
          5    1    4    4  501    0  0.27831383961E+02 -0.62046000313E+02 -0.10536533643E+03  0.12547357733E+03  0.41800000000E+01 0. -1.
         -5    1    4    4    0  501  0.84685420048E+02  0.36284975310E+01 -0.44408965729E+03  0.45212595864E+03  0.41800000000E+01 0. -1.
</event>
<event>
11    1  0.8039394E-009  0.2550480E+03  0.7561462E-02  0.1021244E+00
         22   -1    0    0    0    0  0.00000000000E+00  0.00000000000E+00  0.19449727128E+03  0.19449727128E+03  0.00000000000E+00 0. -1.
         22   -1    0    0    0    0 -0.00000000000E+00 -0.00000000000E+00 -0.17156343982E+04  0.17156343982E+04  0.00000000000E+00 0. -1.
        -24    2    1    2    0    0  0.53812152852E+02  0.33079494327E+02 -0.85694265679E+03  0.86305195049E+03  0.80733831121E+02 0.  0.
         25    2    1    2    0    0 -0.61302356900E+02  0.19201738566E+03 -0.75497934348E+03  0.79137079698E+03  0.12508106924E+03 0.  0.
         24    2    1    2    0    0  0.74902040482E+01 -0.22509687999E+03  0.90784873314E+02  0.25570892203E+03  0.80127717084E+02 0.  0.
        -13    1    5    5    0    0  0.87560834504E+01 -0.93816516181E+02 -0.31520498046E+01  0.94276949058E+02  0.00000000000E+00 0.  1.
         14    1    5    5    0    0 -0.12658794023E+01 -0.13128036381E+03  0.93936923119E+02  0.16143197297E+03  0.00000000000E+00 0. -1.
         13    1    3    3    0    0  0.43831128381E+02 -0.49317896338E+01 -0.69540673692E+03  0.69680414761E+03  0.00000000000E+00 0. -1.
        -14    1    3    3    0    0  0.99810244704E+01  0.38011283961E+02 -0.16153591987E+03  0.16624780289E+03  0.00000000000E+00 0.  1.
          5    1    4    4  501    0 -0.99078516321E+01 -0.10256060953E+01 -0.42679431518E+00  0.10810732871E+02  0.41800000000E+01 0. -1.
         -5    1    4    4    0  501 -0.51394505268E+02  0.19304299176E+03 -0.75455254916E+03  0.78056006411E+03  0.41800000000E+01 0. -1.
</event>
<event>
11    1  0.8039394E-009  0.1335630E+03  0.7561462E-02  0.1114967E+00
         22   -1    0    0    0    0  0.00000000000E+00  0.00000000000E+00  0.42993933945E+03  0.42993933945E+03  0.00000000000E+00 0. -1.
         22   -1    0    0    0    0 -0.00000000000E+00 -0.00000000000E+00 -0.15945052030E+04  0.15945052030E+04  0.00000000000E+00 0. -1.
        -24    2    1    2    0    0  0.49305152692E+02  0.64142765305E+01 -0.79502886649E+03  0.80054532556E+03  0.79559906339E+02 0.  0.
         25    2    1    2    0    0 -0.29746069053E+02 -0.43897086726E+02 -0.78605391089E+03  0.79770929560E+03  0.12509031385E+03 0.  0.
         24    2    1    2    0    0 -0.19559083639E+02  0.37482810196E+02  0.41651691384E+03  0.42618992127E+03  0.79774624181E+02 0.  0.
        -11    1    5    5    0    0  0.90962873923E+01 -0.13121401782E+02  0.20792668870E+02  0.26215428812E+02  0.00000000000E+00 0.  1.
         12    1    5    5    0    0 -0.28655371032E+02  0.50604211978E+02  0.39572424497E+03  0.39997449246E+03  0.00000000000E+00 0. -1.
         13    1    3    3    0    0  0.15176159695E+02 -0.12790518920E+02 -0.65056281792E+03  0.65086549552E+03  0.00000000000E+00 0. -1.
        -14    1    3    3    0    0  0.34128992997E+02  0.19204795451E+02 -0.14446604857E+03  0.14967983004E+03  0.00000000000E+00 0.  1.
          5    1    4    4  501    0 -0.40857585938E+02 -0.76615527904E+02 -0.36456749025E+03  0.37478821858E+03  0.41800000000E+01 0.  1.
         -5    1    4    4    0  501  0.11111516886E+02  0.32718441178E+02 -0.42148642065E+03  0.42292107702E+03  0.41800000000E+01 0.  1.
</event>
<event>
11    1  0.8039394E-009  0.1475576E+03  0.7561462E-02  0.1099401E+00
         22   -1    0    0    0    0  0.00000000000E+00  0.00000000000E+00  0.51716889584E+03  0.51716889584E+03  0.00000000000E+00 0.  1.
         22   -1    0    0    0    0 -0.00000000000E+00 -0.00000000000E+00 -0.50497177102E+03  0.50497177102E+03  0.00000000000E+00 0.  1.
        -24    2    1    2    0    0 -0.69566190881E+02  0.38595818525E+02 -0.36838375067E+03  0.38545964449E+03  0.80891641407E+02 0.  0.
         25    2    1    2    0    0  0.27175067049E+02 -0.88807231174E+02 -0.72442313682E+02  0.17181649597E+03  0.12509121031E+03 0.  0.
         24    2    1    2    0    0  0.42391123833E+02  0.50211412650E+02  0.45302318918E+03  0.46486452641E+03  0.80937164752E+02 0.  0.
        -11    1    5    5    0    0  0.40586675319E+01  0.29438931461E+02  0.36907758115E+03  0.37027204104E+03  0.00000000000E+00 0.  1.
         12    1    5    5    0    0  0.38332456301E+02  0.20772481189E+02  0.83945608027E+02  0.94592485367E+02  0.00000000000E+00 0. -1.
         11    1    3    3    0    0 -0.45811223501E+02 -0.20110508019E+02 -0.15475028949E+03  0.16263687414E+03  0.00000000000E+00 0. -1.
        -12    1    3    3    0    0 -0.23754967380E+02  0.58706326543E+02 -0.21363346118E+03  0.22282277035E+03  0.00000000000E+00 0.  1.
          5    1    4    4  501    0 -0.24455281411E+02 -0.10494535461E+02  0.24818925809E+02  0.36628507227E+02  0.41800000000E+01 0.  1.
         -5    1    4    4    0  501  0.51630348459E+02 -0.78312695713E+02 -0.97261239491E+02  0.13518798874E+03  0.41800000000E+01 0.  1.
</event>
<event>
11    1  0.8039394E-009  0.2619593E+03  0.7561462E-02  0.1017714E+00
         22   -1    0    0    0    0  0.00000000000E+00  0.00000000000E+00  0.16949734643E+04  0.16949734643E+04  0.00000000000E+00 0. -1.
         22   -1    0    0    0    0 -0.00000000000E+00 -0.00000000000E+00 -0.70077453325E+03  0.70077453325E+03  0.00000000000E+00 0.  1.
        -24    2    1    2    0    0 -0.20014374634E+03 -0.12599873125E+03 -0.47410633000E+03  0.53595603993E+03  0.80863249452E+02 0.  0.
         25    2    1    2    0    0  0.15064363906E+03  0.15811483327E+03 -0.11247440362E+03  0.27566676504E+03  0.12509143612E+03 0.  0.
         24    2    1    2    0    0  0.49500107281E+02 -0.32116102019E+02  0.15807796647E+04  0.15841251926E+04  0.84300491779E+02 0.  0.
        -13    1    5    5    0    0  0.40251593398E+01 -0.71069399641E+01  0.12167021722E+02  0.14654245834E+02  0.00000000000E+00 0.  1.
         14    1    5    5    0    0  0.45474947942E+02 -0.25009162055E+02  0.15686126429E+04  0.15694709467E+04  0.00000000000E+00 0. -1.
         13    1    3    3    0    0 -0.27035602358E+02 -0.12968094715E+00 -0.11296746927E+03  0.11615760726E+03  0.00000000000E+00 0. -1.
        -14    1    3    3    0    0 -0.17310814398E+03 -0.12586905030E+03 -0.36113886074E+03  0.41979843267E+03  0.00000000000E+00 0.  1.
          5    1    4    4  501    0  0.35015982927E+02  0.38198417433E+02  0.26803548543E+02  0.58490518626E+02  0.41800000000E+01 0. -1.
         -5    1    4    4    0  501  0.11562765613E+03  0.11991641583E+03 -0.13927795216E+03  0.21717624641E+03  0.41800000000E+01 0. -1.
</event>
<event>
11    1  0.8039394E-009  0.1295743E+03  0.7561462E-02  0.1119793E+00
         22   -1    0    0    0    0  0.00000000000E+00  0.00000000000E+00  0.43504476870E+03  0.43504476870E+03  0.00000000000E+00 0. -1.
         22   -1    0    0    0    0 -0.00000000000E+00 -0.00000000000E+00 -0.15534778573E+03  0.15534778573E+03  0.00000000000E+00 0.  1.
        -24    2    1    2    0    0 -0.49916245294E+02  0.15457595020E+02 -0.81384849915E+02  0.12622889123E+03  0.81115167486E+02 0.  0.
         25    2    1    2    0    0  0.33918752704E+02  0.21125982680E+02  0.65205897667E+02  0.14661739020E+03  0.12509221034E+03 0.  0.
         24    2    1    2    0    0  0.15997492589E+02 -0.36583577701E+02  0.29587593522E+03  0.31754627300E+03  0.10816093809E+03 0.  0.
        -13    1    5    5    0    0  0.37058891162E+01 -0.50087072690E+02  0.49577155383E+02  0.70571543845E+02  0.00000000000E+00 0.  1.
         14    1    5    5    0    0  0.12291603473E+02  0.13503494989E+02  0.24629877984E+03  0.24697472916E+03  0.00000000000E+00 0. -1.
         11    1    3    3    0    0 -0.10125591747E+02  0.29648016127E+02 -0.77753245881E+02  0.83827797976E+02  0.00000000000E+00 0. -1.
        -12    1    3    3    0    0 -0.39790653547E+02 -0.14190421106E+02 -0.36316040341E+01  0.42401093249E+02  0.00000000000E+00 0.  1.
          5    1    4    4  501    0  0.42466790368E+02 -0.50595947606E+01  0.95946696641E+02  0.10512977114E+03  0.41800000000E+01 0.  1.
         -5    1    4    4    0  501 -0.85480376636E+01  0.26185577441E+02 -0.30740798973E+02  0.41487619061E+02  0.41800000000E+01 0.  1.
</event>
<event>
11    1  0.8039394E-009  0.1350763E+03  0.7561462E-02  0.1113185E+00
         22   -1    0    0    0    0  0.00000000000E+00  0.00000000000E+00  0.87254468558E+02  0.87254468558E+02  0.00000000000E+00 0.  1.
         22   -1    0    0    0    0 -0.00000000000E+00 -0.00000000000E+00 -0.11007701622E+04  0.11007701622E+04  0.00000000000E+00 0.  1.
        -24    2    1    2    0    0  0.51251246895E+02 -0.20792710575E+02 -0.84681147510E+03  0.85228897229E+03  0.79042968019E+02 0.  0.
         25    2    1    2    0    0 -0.27982122323E+02 -0.15511729461E+02 -0.19893646306E+03  0.23716002215E+03  0.12508216041E+03 0.  0.
         24    2    1    2    0    0 -0.23269124571E+02  0.36304440037E+02  0.32232244495E+02  0.98575636342E+02  0.82575867966E+02 0.  0.
        -13    1    5    5    0    0 -0.32039711764E+02  0.59593556756E+02  0.28473156233E+02  0.73407463944E+02  0.00000000000E+00 0.  1.
         14    1    5    5    0    0  0.87705871933E+01 -0.23289116720E+02  0.37590882617E+01  0.25168172398E+02  0.00000000000E+00 0. -1.
         13    1    3    3    0    0  0.45805495448E+02  0.70787491375E+01 -0.21974962745E+03  0.22458439586E+03  0.00000000000E+00 0. -1.
        -14    1    3    3    0    0  0.54457514463E+01 -0.27871459713E+02 -0.62706184766E+03  0.62770457642E+03  0.00000000000E+00 0.  1.
          5    1    4    4  501    0 -0.14227538617E+02 -0.46153234143E+02 -0.15896083109E+02  0.51016680950E+02  0.41800000000E+01 0.  1.
         -5    1    4    4    0  501 -0.13754583707E+02  0.30641504682E+02 -0.18304037995E+03  0.18614334120E+03  0.41800000000E+01 0.  1.
</event>
<event>
11    1  0.8039394E-009  0.1336924E+03  0.7561462E-02  0.1114814E+00
         22   -1    0    0    0    0  0.00000000000E+00  0.00000000000E+00  0.14871726909E+03  0.14871726909E+03  0.00000000000E+00 0.  1.
         22   -1    0    0    0    0 -0.00000000000E+00 -0.00000000000E+00 -0.19527944832E+04  0.19527944832E+04  0.00000000000E+00 0. -1.
         24    2    1    2    0    0  0.38632001534E+02  0.25617489267E+02 -0.18256467781E+04  0.18280212268E+04  0.80788364124E+02 0.  0.
         25    2    1    2    0    0 -0.78804160039E+02 -0.36992524258E+02 -0.46455567240E+02  0.15932653771E+03  0.12509309893E+03 0.  0.
        -24    2    1    2    0    0  0.40172158506E+02  0.11375034991E+02  0.68025131314E+02  0.11416398774E+03  0.81625999945E+02 0.  0.
        -11    1    3    3    0    0 -0.17993043793E+02  0.19725743815E+01 -0.12884613287E+03  0.13011136242E+03  0.00000000000E+00 0.  1.
         12    1    3    3    0    0  0.56625045326E+02  0.23644914886E+02 -0.16968006453E+04  0.16979098644E+04  0.00000000000E+00 0. -1.
         13    1    5    5    0    0 -0.14920217800E+02 -0.76368723285E+01  0.50645909217E+02  0.53347378929E+02  0.00000000000E+00 0. -1.
        -14    1    5    5    0    0  0.55092376305E+02  0.19011907320E+02  0.17379222097E+02  0.60816608814E+02  0.00000000000E+00 0.  1.
          5    1    4    4  501    0 -0.17600044973E+02  0.31257636420E+02 -0.56451226314E+02  0.67015033910E+02  0.41800000000E+01 0.  1.
         -5    1    4    4    0  501 -0.61204115066E+02 -0.68250160678E+02  0.99956590738E+01  0.92311503801E+02  0.41800000000E+01 0.  1.
</event>
<event>
11    1  0.8039394E-009  0.1398120E+03  0.7561462E-02  0.1107769E+00
         22   -1    0    0    0    0  0.00000000000E+00  0.00000000000E+00  0.20686074398E+04  0.20686074398E+04  0.00000000000E+00 0.  1.
         22   -1    0    0    0    0 -0.00000000000E+00 -0.00000000000E+00 -0.11348429188E+03  0.11348429188E+03  0.00000000000E+00 0. -1.
         24    2    1    2    0    0 -0.50377834075E+02 -0.36677431883E+02 -0.81936566571E+02  0.13100875746E+03  0.81034149684E+02 0.  0.
         25    2    1    2    0    0  0.52338913827E+02  0.41565881196E+02  0.81009277131E+03  0.82241434685E+03  0.12509186782E+03 0.  0.
        -24    2    1    2    0    0 -0.19610797517E+01 -0.48884493124E+01  0.12269669432E+04  0.12286686274E+04  0.64428048728E+02 0.  0.
        -11    1    3    3    0    0 -0.27686460735E+02 -0.19356119076E+02  0.96039680177E+01  0.35120302610E+02  0.00000000000E+00 0.  1.
         12    1    3    3    0    0 -0.22691373340E+02 -0.17321312807E+02 -0.91540534588E+02  0.95888454853E+02  0.00000000000E+00 0. -1.
         11    1    5    5    0    0  0.27962470191E+02 -0.12406394658E+02  0.42027283638E+03  0.42138471183E+03  0.00000000000E+00 0. -1.
        -12    1    5    5    0    0 -0.29923549943E+02  0.75179453456E+01  0.80669410680E+03  0.80728391554E+03  0.00000000000E+00 0.  1.
          5    1    4    4  501    0  0.27965345271E+01 -0.41946968982E+02  0.18149771833E+03  0.18634984028E+03  0.41800000000E+01 0.  1.
         -5    1    4    4    0  501  0.49542379300E+02  0.83512850177E+02  0.62859505297E+03  0.63606450656E+03  0.41800000000E+01 0.  1.
</event>
<event>
11    1  0.8039394E-009  0.1737037E+03  0.7561462E-02  0.1074853E+00
         22   -1    0    0    0    0  0.00000000000E+00  0.00000000000E+00  0.17010957211E+04  0.17010957211E+04  0.00000000000E+00 0.  1.
         22   -1    0    0    0    0 -0.00000000000E+00 -0.00000000000E+00 -0.23044141538E+03  0.23044141538E+03  0.00000000000E+00 0. -1.
         24    2    1    2    0    0 -0.47841069181E+02  0.84710191058E+02 -0.13615586104E+03  0.18539164312E+03  0.79793849846E+02 0.  0.
         25    2    1    2    0    0  0.14303449992E+03 -0.15126551045E+03  0.15645174555E+03  0.28891168631E+03  0.12511071490E+03 0.  0.
        -24    2    1    2    0    0 -0.95193430742E+02  0.66555319390E+02  0.14503584212E+04  0.14572338071E+04  0.80618972111E+02 0.  0.
        -11    1    3    3    0    0 -0.25098010807E+02  0.40056465033E+02 -0.82036892476E+01  0.47976359331E+02  0.00000000000E+00 0.  1.
         12    1    3    3    0    0 -0.22743058374E+02  0.44653726025E+02 -0.12795217179E+03  0.13741528379E+03  0.00000000000E+00 0. -1.
         13    1    5    5    0    0 -0.86905032121E+02  0.28058242149E+02  0.71299485432E+03  0.71881945706E+03  0.00000000000E+00 0. -1.
        -14    1    5    5    0    0 -0.82883986216E+01  0.38497077241E+02  0.73736356693E+03  0.73841435003E+03  0.00000000000E+00 0.  1.
          5    1    4    4  501    0  0.81904631610E+02 -0.15659517196E+03  0.13930023438E+03  0.22506097898E+03  0.41800000000E+01 0.  1.
         -5    1    4    4    0  501  0.61129868313E+02  0.53296615138E+01  0.17151511177E+02  0.63850707338E+02  0.41800000000E+01 0.  1.
</event>
<event>
11    1  0.8039394E-009  0.2522510E+03  0.7561462E-02  0.1022707E+00
         22   -1    0    0    0    0  0.00000000000E+00  0.00000000000E+00  0.97521347087E+03  0.97521347087E+03  0.00000000000E+00 0. -1.
         22   -1    0    0    0    0 -0.00000000000E+00 -0.00000000000E+00 -0.14523970377E+04  0.14523970377E+04  0.00000000000E+00 0.  1.
        -24    2    1    2    0    0  0.34561372030E+02 -0.45001090936E+02 -0.12969407867E+04  0.13027230373E+04  0.10868450253E+03 0.  0.
         25    2    1    2    0    0 -0.18737432886E+03  0.19367350110E+03  0.24785322450E+02  0.29812514740E+03  0.12508288115E+03 0.  0.
         24    2    1    2    0    0  0.15281295683E+03 -0.14867241017E+03  0.79497189733E+03  0.82676232396E+03  0.78104657088E+02 0.  0.
        -13    1    5    5    0    0  0.71242032865E+01 -0.17132610244E+02  0.19841560796E+02  0.27165569036E+02  0.00000000000E+00 0.  1.
         14    1    5    5    0    0  0.14568875354E+03 -0.13153979992E+03  0.77513033654E+03  0.79959675493E+03  0.00000000000E+00 0. -1.
         13    1    3    3    0    0  0.43674193079E+02 -0.30664256069E+01 -0.19114996669E+03  0.19609984159E+03  0.00000000000E+00 0. -1.
        -14    1    3    3    0    0 -0.91128210488E+01 -0.41934665330E+02 -0.11057908200E+04  0.11066231957E+04  0.00000000000E+00 0.  1.
          5    1    4    4  501    0 -0.14332711382E+03  0.19877854037E+03 -0.39346441634E+01  0.24512960550E+03  0.41800000000E+01 0. -1.
         -5    1    4    4    0  501 -0.44047215043E+02 -0.51050392692E+01  0.28719966614E+02  0.52995541900E+02  0.41800000000E+01 0. -1.
</event>
<event>
11    1  0.8039394E-009  0.1542629E+03  0.7561462E-02  0.1092601E+00
         22   -1    0    0    0    0  0.00000000000E+00  0.00000000000E+00  0.10861070813E+03  0.10861070813E+03  0.00000000000E+00 0. -1.
         22   -1    0    0    0    0 -0.00000000000E+00 -0.00000000000E+00 -0.36031225264E+04  0.36031225264E+04  0.00000000000E+00 0.  1.
         24    2    1    2    0    0 -0.88089613915E+02  0.11524129732E+02 -0.30990712647E+04  0.31014139955E+04  0.81446191001E+02 0.  0.
         25    2    1    2    0    0  0.98845281585E+02 -0.10208070886E+03 -0.44836119275E+03  0.48668892591E+03  0.12508993016E+03 0.  0.
        -24    2    1    2    0    0 -0.10755667671E+02  0.90556579128E+02  0.52920639186E+02  0.12363031313E+03  0.64557585623E+02 0.  0.
        -11    1    3    3    0    0 -0.55989215735E+02  0.85789411366E+01 -0.28066243042E+04  0.28071958207E+04  0.00000000000E+00 0.  1.
         12    1    3    3    0    0 -0.32100398180E+02  0.29451885959E+01 -0.29244696052E+03  0.29421817486E+03  0.00000000000E+00 0. -1.
         11    1    5    5    0    0 -0.23931812903E+02  0.86481855764E+01  0.41534470955E+00  0.25449858424E+02  0.00000000000E+00 0. -1.
        -12    1    5    5    0    0  0.13176145233E+02  0.81908393552E+02  0.52505294477E+02  0.98180454702E+02  0.00000000000E+00 0.  1.
          5    1    4    4  501    0  0.19576568139E+02 -0.25625051128E+02 -0.30059524361E+03  0.30234890135E+03  0.41800000000E+01 0. -1.
         -5    1    4    4    0  501  0.79268713446E+02 -0.76455657733E+02 -0.14776594915E+03  0.18434002457E+03  0.41800000000E+01 0. -1.
</event>
<event>
11    1  0.8039394E-009  0.1564873E+03  0.7561462E-02  0.1090428E+00
         22   -1    0    0    0    0  0.00000000000E+00  0.00000000000E+00  0.39414927757E+03  0.39414927757E+03  0.00000000000E+00 0.  1.
         22   -1    0    0    0    0 -0.00000000000E+00 -0.00000000000E+00 -0.49547881935E+03  0.49547881935E+03  0.00000000000E+00 0. -1.
        -24    2    1    2    0    0  0.59623970299E+02 -0.64784764515E+02 -0.30695206537E+03  0.32946459904E+03  0.81088026457E+02 0.  0.
         25    2    1    2    0    0 -0.12739530995E+03  0.40976517374E+02 -0.11794080993E+03  0.21785676141E+03  0.12507155501E+03 0.  0.
         24    2    1    2    0    0  0.67771339651E+02  0.23808247141E+02  0.32356333352E+03  0.34230673647E+03  0.85562164088E+02 0.  0.
        -11    1    5    5    0    0  0.51363089384E+02  0.55617872941E+02  0.22945092316E+03  0.24161796473E+03  0.00000000000E+00 0.  1.
         12    1    5    5    0    0  0.16408250268E+02 -0.31809625801E+02  0.94112410356E+02  0.10068877173E+03  0.00000000000E+00 0. -1.
         13    1    3    3    0    0  0.68918580839E+02 -0.53584673219E+02 -0.30156250766E+03  0.31394431674E+03  0.00000000000E+00 0. -1.
        -14    1    3    3    0    0 -0.92946105392E+01 -0.11200091295E+02 -0.53895577094E+01  0.15520282291E+02  0.00000000000E+00 0.  1.
          5    1    4    4  501    0 -0.12840955151E+03  0.74416293449E+02 -0.86936486965E+02  0.17205296515E+03  0.41800000000E+01 0.  1.
         -5    1    4    4    0  501  0.10142415596E+01 -0.33439776075E+02 -0.31004322962E+02  0.45803796264E+02  0.41800000000E+01 0.  1.
</event>
<event>
11    1  0.8039394E-009  0.1968060E+03  0.7561462E-02  0.1056806E+00
         22   -1    0    0    0    0  0.00000000000E+00  0.00000000000E+00  0.28649064100E+04  0.28649064100E+04  0.00000000000E+00 0. -1.
         22   -1    0    0    0    0 -0.00000000000E+00 -0.00000000000E+00 -0.51294824847E+03  0.51294824847E+03  0.00000000000E+00 0.  1.
         24    2    1    2    0    0 -0.14063463577E+03 -0.50745780013E+02 -0.44942936819E+03  0.48051711942E+03  0.80973514792E+02 0.  0.
         25    2    1    2    0    0  0.17621683823E+03  0.94395462503E+02  0.24860473913E+03  0.34266226120E+03  0.12510088534E+03 0.  0.
        -24    2    1    2    0    0 -0.35582202460E+02 -0.43649682490E+02  0.25527827906E+04  0.25546752779E+04  0.80587911606E+02 0.  0.
        -13    1    3    3    0    0 -0.92548570814E+02 -0.69249221297E+02 -0.34898247455E+03  0.36762679466E+03  0.00000000000E+00 0.  1.
         14    1    3    3    0    0 -0.48086064960E+02  0.18503441284E+02 -0.10044689364E+03  0.11289032476E+03  0.00000000000E+00 0. -1.
         13    1    5    5    0    0 -0.49098463049E+02 -0.55161299331E+02  0.15739077581E+04  0.15756392541E+04  0.00000000000E+00 0. -1.
        -14    1    5    5    0    0  0.13516260589E+02  0.11511616841E+02  0.97887503251E+03  0.97903602379E+03  0.00000000000E+00 0.  1.
          5    1    4    4  501    0  0.78305752617E+00  0.37130296970E+02  0.60549112314E+01  0.37860355019E+02  0.41800000000E+01 0.  1.
         -5    1    4    4    0  501  0.17543378071E+03  0.57265165533E+02  0.24254982790E+03  0.30480190618E+03  0.41800000000E+01 0.  1.
</event>
<event>
11    1  0.8039394E-009  0.1334988E+03  0.7561462E-02  0.1115043E+00
         22   -1    0    0    0    0  0.00000000000E+00  0.00000000000E+00  0.13210300297E+04  0.13210300297E+04  0.00000000000E+00 0.  1.
         22   -1    0    0    0    0 -0.00000000000E+00 -0.00000000000E+00 -0.12275482976E+03  0.12275482976E+03  0.00000000000E+00 0. -1.
         24    2    1    2    0    0  0.16666651813E+02 -0.44584675546E+02 -0.33639658914E+02  0.99962289485E+02  0.81211218997E+02 0.  0.
         25    2    1    2    0    0 -0.45713292481E+02  0.26396294452E+02  0.30293124840E+02  0.13910938586E+03  0.12508908167E+03 0.  0.
        -24    2    1    2    0    0  0.29046640668E+02  0.18188381095E+02  0.12016217340E+04  0.12047131841E+04  0.79148845805E+02 0.  0.
        -11    1    3    3    0    0 -0.11586567529E+02  0.10791915114E+02  0.14395018822E+02  0.21399311807E+02  0.00000000000E+00 0.  1.
         12    1    3    3    0    0  0.28253219342E+02 -0.55376590660E+02 -0.48034677736E+02  0.78562977678E+02  0.00000000000E+00 0. -1.
         13    1    5    5    0    0  0.16396908204E+02 -0.41913396193E+01  0.49660525198E+02  0.52465166438E+02  0.00000000000E+00 0. -1.
        -14    1    5    5    0    0  0.12649732464E+02  0.22379720714E+02  0.11519612088E+04  0.11522480177E+04  0.00000000000E+00 0.  1.
          5    1    4    4  501    0  0.18601958756E+02 -0.31176366749E+02 -0.17319758597E+02  0.40440637372E+02  0.41800000000E+01 0.  1.
         -5    1    4    4    0  501 -0.64315251237E+02  0.57572661201E+02  0.47612883437E+02  0.98668748490E+02  0.41800000000E+01 0.  1.
</event>
<event>
11    1  0.8039394E-009  0.2976065E+03  0.7561462E-02  0.1001209E+00
         22   -1    0    0    0    0  0.00000000000E+00  0.00000000000E+00  0.12764591521E+04  0.12764591521E+04  0.00000000000E+00 0. -1.
         22   -1    0    0    0    0 -0.00000000000E+00 -0.00000000000E+00 -0.12822829131E+04  0.12822829131E+04  0.00000000000E+00 0. -1.
        -24    2    1    2    0    0  0.12402285746E+01  0.10038560852E+02 -0.10936458852E+04  0.10967494916E+04  0.81827954939E+02 0.  0.
         25    2    1    2    0    0 -0.99581782769E+02  0.24234855826E+03 -0.45471675958E+02  0.29387805517E+03  0.12508909963E+03 0.  0.
         24    2    1    2    0    0  0.98341554195E+02 -0.25238711911E+03  0.11332938002E+04  0.11681145184E+04  0.82257955285E+02 0.  0.
        -11    1    5    5    0    0  0.29132707598E+02 -0.29246784490E+02  0.90499300369E+02  0.99469655786E+02  0.00000000000E+00 0.  1.
         12    1    5    5    0    0  0.69208846597E+02 -0.22314033462E+03  0.10427944999E+04  0.10686448626E+04  0.00000000000E+00 0. -1.
         13    1    3    3    0    0  0.10333889716E+02 -0.20295139737E+02 -0.91730860579E+03  0.91759128169E+03  0.00000000000E+00 0. -1.
        -14    1    3    3    0    0 -0.90936611418E+01  0.30333700589E+02 -0.17633727943E+03  0.17915820992E+03  0.00000000000E+00 0.  1.
          5    1    4    4  501    0 -0.21530620549E+02  0.10801585618E+03  0.39087747774E+02  0.11694578758E+03  0.41800000000E+01 0. -1.
         -5    1    4    4    0  501 -0.78051162221E+02  0.13433270208E+03 -0.84559423732E+02  0.17693226759E+03  0.41800000000E+01 0. -1.
</event>
<event>
11    1  0.8039394E-009  0.1617113E+03  0.7561462E-02  0.1085479E+00
         22   -1    0    0    0    0  0.00000000000E+00  0.00000000000E+00  0.26883578601E+03  0.26883578601E+03  0.00000000000E+00 0. -1.
         22   -1    0    0    0    0 -0.00000000000E+00 -0.00000000000E+00 -0.50775200435E+03  0.50775200435E+03  0.00000000000E+00 0. -1.
         24    2    1    2    0    0 -0.85213420386E+02  0.54597090498E+02 -0.38241764714E+03  0.40398938944E+03  0.81987807796E+02 0.  0.
         25    2    1    2    0    0  0.84248792323E+02 -0.72787155698E+02 -0.39420296885E+02  0.17203714791E+03  0.12508793471E+03 0.  0.
        -24    2    1    2    0    0  0.96462806335E+00  0.18190065200E+02  0.18292172568E+03  0.20056125302E+03  0.80203799823E+02 0.  0.
        -11    1    3    3    0    0 -0.29953271901E+02 -0.19319212055E+02 -0.14366252072E+03  0.14801807428E+03  0.00000000000E+00 0.  1.
         12    1    3    3    0    0 -0.55260148486E+02  0.73916302553E+02 -0.23875512642E+03  0.25597131516E+03  0.00000000000E+00 0. -1.
         13    1    5    5    0    0 -0.30767877187E+02  0.30229036634E+02  0.13582768859E+03  0.14251181674E+03  0.00000000000E+00 0. -1.
        -14    1    5    5    0    0  0.31732505250E+02 -0.12038971434E+02  0.47094037093E+02  0.58049436280E+02  0.00000000000E+00 0.  1.
          5    1    4    4  501    0  0.43923154164E+02 -0.10654625899E+02 -0.76611134542E+02  0.89047756067E+02  0.41800000000E+01 0. -1.
         -5    1    4    4    0  501  0.40325638158E+02 -0.62132529799E+02  0.37190837657E+02  0.82989391838E+02  0.41800000000E+01 0. -1.
</event>
<event>
11    1  0.8039394E-009  0.1382828E+03  0.7561462E-02  0.1109491E+00
         22   -1    0    0    0    0  0.00000000000E+00  0.00000000000E+00  0.24312513311E+04  0.24312513311E+04  0.00000000000E+00 0. -1.
         22   -1    0    0    0    0 -0.00000000000E+00 -0.00000000000E+00 -0.93005457270E+02  0.93005457270E+02  0.00000000000E+00 0. -1.
        -24    2    1    2    0    0  0.45147619953E+02 -0.19581641875E+02 -0.61525013590E+02  0.11218311986E+03  0.79862236367E+02 0.  0.
         25    2    1    2    0    0  0.25848091174E+02 -0.22966926657E+01  0.96292848110E+03  0.97136601774E+03  0.12508909656E+03 0.  0.
         24    2    1    2    0    0 -0.70995711127E+02  0.21878334541E+02  0.14368424063E+04  0.14407076507E+04  0.74855740573E+02 0.  0.
        -13    1    5    5    0    0 -0.28587726434E+02  0.23343917674E+02  0.11640255548E+04  0.11646105310E+04  0.00000000000E+00 0.  1.
         14    1    5    5    0    0 -0.42407984693E+02 -0.14655831329E+01  0.27281685147E+03  0.27609711977E+03  0.00000000000E+00 0. -1.
         11    1    3    3    0    0  0.18446652593E+02 -0.42434635593E+02 -0.61593981317E+02  0.77037626030E+02  0.00000000000E+00 0. -1.
        -12    1    3    3    0    0  0.26700967360E+02  0.22852993718E+02  0.68967726528E-01  0.35145493827E+02  0.00000000000E+00 0.  1.
          5    1    4    4  501    0  0.56963828693E+02 -0.44194155692E+02  0.66082543065E+03  0.66475989904E+03  0.41800000000E+01 0.  1.
         -5    1    4    4    0  501 -0.31115737519E+02  0.41897463026E+02  0.30210305045E+03  0.30660611870E+03  0.41800000000E+01 0.  1.
</event>
<event>
11    1  0.8039394E-009  0.1339370E+03  0.7561462E-02  0.1114524E+00
         22   -1    0    0    0    0  0.00000000000E+00  0.00000000000E+00  0.11373679155E+04  0.11373679155E+04  0.00000000000E+00 0. -1.
         22   -1    0    0    0    0 -0.00000000000E+00 -0.00000000000E+00 -0.68796594948E+03  0.68796594948E+03  0.00000000000E+00 0.  1.
        -24    2    1    2    0    0 -0.21601303455E+02 -0.35785029979E+01 -0.54202201334E+03  0.54801165106E+03  0.77778433739E+02 0.  0.
         25    2    1    2    0    0  0.65971648053E+02 -0.13674771470E+02 -0.10522486588E+03  0.17680463289E+03  0.12509335750E+03 0.  0.
         24    2    1    2    0    0 -0.44370344598E+02  0.17253274468E+02  0.10966488452E+04  0.11005175810E+04  0.78954755454E+02 0.  0.
        -13    1    5    5    0    0 -0.21141027413E+02  0.40183801646E+02  0.32247693585E+03  0.32565788046E+03  0.00000000000E+00 0.  1.
         14    1    5    5    0    0 -0.23229317185E+02 -0.22930527178E+02  0.77417190937E+03  0.77485970054E+03  0.00000000000E+00 0. -1.
         13    1    3    3    0    0 -0.86343528832E+01  0.23624306142E+02 -0.60136736612E+02  0.65185021138E+02  0.00000000000E+00 0. -1.
        -14    1    3    3    0    0 -0.12966950572E+02 -0.27202809140E+02 -0.48188527673E+03  0.48282662992E+03  0.00000000000E+00 0.  1.
          5    1    4    4  501    0  0.38118349293E+02 -0.42873995665E+02  0.65522254846E+01  0.57892936667E+02  0.41800000000E+01 0.  1.
         -5    1    4    4    0  501  0.27853298760E+02  0.29199224194E+02 -0.11177709137E+03  0.11891169623E+03  0.41800000000E+01 0.  1.
</event>
<event>
11    1  0.8039394E-009  0.1745435E+03  0.7561462E-02  0.1074144E+00
         22   -1    0    0    0    0  0.00000000000E+00  0.00000000000E+00  0.14012138698E+03  0.14012138698E+03  0.00000000000E+00 0. -1.
         22   -1    0    0    0    0 -0.00000000000E+00 -0.00000000000E+00 -0.39156572647E+03  0.39156572647E+03  0.00000000000E+00 0. -1.
         24    2    1    2    0    0  0.53110991959E+01 -0.41652295235E+02 -0.10502551810E+03  0.13687043459E+03  0.77071622142E+02 0.  0.
         25    2    1    2    0    0  0.11638385725E+03  0.14815522299E+02 -0.17378252257E+03  0.24415747524E+03  0.12509118929E+03 0.  0.
        -24    2    1    2    0    0 -0.12169495645E+03  0.26836772935E+02  0.27363701182E+02  0.15065920361E+03  0.80122086125E+02 0.  0.
        -11    1    3    3    0    0  0.14309267726E+02  0.18670891749E+02 -0.14232895556E+02  0.27494229530E+02  0.00000000000E+00 0.  1.
         12    1    3    3    0    0 -0.89981685300E+01 -0.60323186984E+02 -0.90792622546E+02  0.10937620506E+03  0.00000000000E+00 0. -1.
         13    1    5    5    0    0 -0.12775370196E+03  0.38612635346E+02  0.30817359201E+02  0.13697318570E+03  0.00000000000E+00 0. -1.
        -14    1    5    5    0    0  0.60587455105E+01 -0.11775862411E+02 -0.34536580191E+01  0.13686017916E+02  0.00000000000E+00 0.  1.
          5    1    4    4  501    0  0.25833998536E+02  0.62954418602E+02 -0.80202403872E+02  0.10526420231E+03  0.41800000000E+01 0. -1.
         -5    1    4    4    0  501  0.90549858714E+02 -0.48138896303E+02 -0.93580118695E+02  0.13889327293E+03  0.41800000000E+01 0. -1.
</event>
<event>
11    1  0.8039394E-009  0.1270469E+03  0.7561462E-02  0.1122951E+00
         22   -1    0    0    0    0  0.00000000000E+00  0.00000000000E+00  0.20055251655E+03  0.20055251655E+03  0.00000000000E+00 0. -1.
         22   -1    0    0    0    0 -0.00000000000E+00 -0.00000000000E+00 -0.14304488764E+04  0.14304488764E+04  0.00000000000E+00 0.  1.
        -24    2    1    2    0    0  0.24382593299E+02  0.42897069351E+00 -0.13244515019E+04  0.13269448929E+04  0.77564638483E+02 0.  0.
         25    2    1    2    0    0 -0.37701191663E+02  0.14981355624E+02 -0.46660463531E+02  0.13953835607E+03  0.12509169872E+03 0.  0.
         24    2    1    2    0    0  0.13318598364E+02 -0.15410326317E+02  0.14121560556E+03  0.16451814395E+03  0.81911593909E+02 0.  0.
        -11    1    5    5    0    0  0.14347565820E+02  0.16256411624E+02  0.20358948673E+01  0.21777704924E+02  0.00000000000E+00 0.  1.
         12    1    5    5    0    0 -0.10289674558E+01 -0.31666737941E+02  0.13917971069E+03  0.14274043903E+03  0.00000000000E+00 0. -1.
         13    1    3    3    0    0  0.79339981885E+01 -0.30248119528E+02 -0.25259603396E+03  0.25452436707E+03  0.00000000000E+00 0. -1.
        -14    1    3    3    0    0  0.16448595111E+02  0.30677090221E+02 -0.10718554679E+04  0.10724205259E+04  0.00000000000E+00 0.  1.
          5    1    4    4  501    0 -0.69812921869E+02  0.47405383596E+02 -0.39079608142E+02  0.93090292868E+02  0.41800000000E+01 0.  1.
         -5    1    4    4    0  501  0.32111730205E+02 -0.32424027972E+02 -0.75808553885E+01  0.46448063201E+02  0.41800000000E+01 0.  1.
</event>
<event>
11    1  0.8039394E-009  0.1562635E+03  0.7561462E-02  0.1090645E+00
         22   -1    0    0    0    0  0.00000000000E+00  0.00000000000E+00  0.73967659186E+03  0.73967659186E+03  0.00000000000E+00 0. -1.
         22   -1    0    0    0    0 -0.00000000000E+00 -0.00000000000E+00 -0.43518530698E+03  0.43518530698E+03  0.00000000000E+00 0.  1.
         24    2    1    2    0    0 -0.85988399370E+01 -0.62040262311E+01 -0.36900037779E+03  0.37764859880E+03  0.79653972768E+02 0.  0.
         25    2    1    2    0    0  0.89178116021E+02  0.52216429253E+02  0.58961987099E+02  0.17263929332E+03  0.12509403588E+03 0.  0.
        -24    2    1    2    0    0 -0.80579276084E+02 -0.46012403021E+02  0.61452967558E+03  0.62457400672E+03  0.61933890024E+02 0.  0.
        -11    1    3    3    0    0 -0.30733170321E+02 -0.33318039664E+02 -0.20332133495E+03  0.20831270910E+03  0.00000000000E+00 0.  1.
         12    1    3    3    0    0  0.22134330384E+02  0.27114013433E+02 -0.16567904284E+03  0.16933588971E+03  0.00000000000E+00 0. -1.
         13    1    5    5    0    0 -0.63497775913E+02 -0.61571664024E+02  0.48419317715E+03  0.49220531301E+03  0.00000000000E+00 0. -1.
        -14    1    5    5    0    0 -0.17081500171E+02  0.15559261003E+02  0.13033649843E+03  0.13236869371E+03  0.00000000000E+00 0.  1.
          5    1    4    4  501    0  0.98020614342E+01  0.25210839859E+02  0.81288481320E+02  0.85772702243E+02  0.41800000000E+01 0.  1.
         -5    1    4    4    0  501  0.79376054587E+02  0.27005589393E+02 -0.22326494221E+02  0.86866591072E+02  0.41800000000E+01 0.  1.
</event>
<event>
11    1  0.8039394E-009  0.1879553E+03  0.7561462E-02  0.1063384E+00
         22   -1    0    0    0    0  0.00000000000E+00  0.00000000000E+00  0.32700861759E+04  0.32700861759E+04  0.00000000000E+00 0.  1.
         22   -1    0    0    0    0 -0.00000000000E+00 -0.00000000000E+00 -0.16244191732E+03  0.16244191732E+03  0.00000000000E+00 0.  1.
        -24    2    1    2    0    0  0.10218233166E+02  0.27943416103E+02 -0.11786682413E+03  0.14572133257E+03  0.80354662243E+02 0.  0.
         25    2    1    2    0    0  0.19731946570E+02 -0.16309620660E+03  0.34717488562E+03  0.40393798652E+03  0.12508306610E+03 0.  0.
         24    2    1    2    0    0 -0.29950179736E+02  0.13515279049E+03  0.28783361971E+04  0.28828687741E+04  0.83365552359E+02 0.  0.
        -11    1    5    5    0    0 -0.10511381141E+02  0.56903687908E+02  0.20007313595E+04  0.20015680082E+04  0.00000000000E+00 0.  1.
         12    1    5    5    0    0 -0.19438798595E+02  0.78249102587E+02  0.87760483762E+03  0.88130076589E+03  0.00000000000E+00 0. -1.
         11    1    3    3    0    0  0.32540530635E+02 -0.13740552701E+02 -0.31835483902E+02  0.47551939580E+02  0.00000000000E+00 0. -1.
        -12    1    3    3    0    0 -0.22322297469E+02  0.41683968804E+02 -0.86031340224E+02  0.98169392992E+02  0.00000000000E+00 0.  1.
          5    1    4    4  501    0  0.46929257468E+02 -0.16303556348E+03  0.33112930922E+03  0.37208472421E+03  0.41800000000E+01 0.  1.
         -5    1    4    4    0  501 -0.27197310898E+02 -0.60643117009E-01  0.16045576403E+02  0.31853262310E+02  0.41800000000E+01 0.  1.
</event>
<event>
11    1  0.8039394E-009  0.1401330E+03  0.7561462E-02  0.1107410E+00
         22   -1    0    0    0    0  0.00000000000E+00  0.00000000000E+00  0.76463566516E+03  0.76463566516E+03  0.00000000000E+00 0. -1.
         22   -1    0    0    0    0 -0.00000000000E+00 -0.00000000000E+00 -0.30200761910E+03  0.30200761910E+03  0.00000000000E+00 0. -1.
        -24    2    1    2    0    0 -0.54518421060E+02  0.26706894527E+02 -0.18095094428E+03  0.20720649262E+03  0.80658352938E+02 0.  0.
         25    2    1    2    0    0  0.80106082334E+02  0.28632072403E+01 -0.52600813858E+02  0.15760853519E+03  0.12509365437E+03 0.  0.
         24    2    1    2    0    0 -0.25587661275E+02 -0.29570101768E+02  0.69617980420E+03  0.70182825645E+03  0.79796381201E+02 0.  0.
        -11    1    5    5    0    0  0.14617840436E+02 -0.39763801686E+02  0.23510792460E+03  0.23889449009E+03  0.00000000000E+00 0.  1.
         12    1    5    5    0    0 -0.40205501711E+02  0.10193699918E+02  0.46107187959E+03  0.46293376636E+03  0.00000000000E+00 0. -1.
         11    1    3    3    0    0 -0.54258313291E+02  0.46490483590E+02 -0.17042116473E+03  0.18479367687E+03  0.00000000000E+00 0. -1.
        -12    1    3    3    0    0 -0.26010776881E+00 -0.19783589063E+02 -0.10529779550E+02  0.22412815745E+02  0.00000000000E+00 0.  1.
          5    1    4    4  501    0 -0.10443242877E+02 -0.13612359669E+02  0.29383598274E+02  0.34281568008E+02  0.41800000000E+01 0.  1.
         -5    1    4    4    0  501  0.90549325212E+02  0.16475566909E+02 -0.81984412132E+02  0.12332696718E+03  0.41800000000E+01 0.  1.
</event>
<event>
11    1  0.8039394E-009  0.1585956E+03  0.7561462E-02  0.1088406E+00
         22   -1    0    0    0    0  0.00000000000E+00  0.00000000000E+00  0.17085609664E+03  0.17085609664E+03  0.00000000000E+00 0. -1.
         22   -1    0    0    0    0 -0.00000000000E+00 -0.00000000000E+00 -0.82265349535E+03  0.82265349535E+03  0.00000000000E+00 0.  1.
        -24    2    1    2    0    0 -0.57439687219E+02  0.33088560061E+02 -0.57165470903E+03  0.58099994955E+03  0.79860281396E+02 0.  0.
         25    2    1    2    0    0  0.10749887160E+03  0.49950800712E+02 -0.18059857671E+03  0.24962994508E+03  0.12509266039E+03 0.  0.
         24    2    1    2    0    0 -0.50059184380E+02 -0.83039360773E+02  0.10045588702E+03  0.16287969737E+03  0.83886549576E+02 0.  0.
        -11    1    5    5    0    0  0.17496424715E+02 -0.14251845692E+02  0.48187875954E+02  0.53210068337E+02  0.00000000000E+00 0.  1.
         12    1    5    5    0    0 -0.67555609095E+02 -0.68787515081E+02  0.52268011063E+02  0.10966962903E+03  0.00000000000E+00 0. -1.
         13    1    3    3    0    0  0.19721664446E+02  0.65413612763E+01 -0.81945735073E+02  0.84538967065E+02  0.00000000000E+00 0. -1.
        -14    1    3    3    0    0 -0.77161351665E+02  0.26547198784E+02 -0.48970897395E+03  0.49646098248E+03  0.00000000000E+00 0.  1.
          5    1    4    4  501    0  0.13188951337E+03  0.33007227731E+02 -0.11741114451E+03  0.17968631020E+03  0.41800000000E+01 0.  1.
         -5    1    4    4    0  501 -0.24390641770E+02  0.16943572982E+02 -0.63187432202E+02  0.69943634876E+02  0.41800000000E+01 0.  1.
</event>
<event>
11    1  0.8039394E-009  0.1448917E+03  0.7561462E-02  0.1102216E+00
         22   -1    0    0    0    0  0.00000000000E+00  0.00000000000E+00  0.63326239191E+02  0.63326239191E+02  0.00000000000E+00 0.  1.
         22   -1    0    0    0    0 -0.00000000000E+00 -0.00000000000E+00 -0.32549019162E+04  0.32549019162E+04  0.00000000000E+00 0. -1.
         24    2    1    2    0    0 -0.86764370086E+01 -0.20161395849E+01 -0.26059515344E+04  0.26071499878E+04  0.78538613683E+02 0.  0.
         25    2    1    2    0    0  0.52698044279E+02  0.59657231373E+02 -0.58418131109E+03  0.60270402419E+03  0.12509303506E+03 0.  0.
        -24    2    1    2    0    0 -0.44021607270E+02 -0.57641091789E+02 -0.14428315114E+01  0.10837414340E+03  0.80513823816E+02 0.  0.
        -11    1    3    3    0    0  0.47736051029E+01 -0.11441674245E+02 -0.66524808432E+02  0.67670151116E+02  0.00000000000E+00 0.  1.
         12    1    3    3    0    0 -0.13450042112E+02  0.94255346596E+01 -0.25394267259E+04  0.25394798367E+04  0.00000000000E+00 0. -1.
         13    1    5    5    0    0 -0.50409924982E+02 -0.34928303182E+02 -0.32471315746E+02  0.69394043305E+02  0.00000000000E+00 0. -1.
        -14    1    5    5    0    0  0.63883177114E+01 -0.22712788606E+02  0.31028484235E+02  0.38980100094E+02  0.00000000000E+00 0.  1.
          5    1    4    4  501    0  0.54917720354E+02  0.92337614266E+02 -0.51424049141E+03  0.52535982567E+03  0.41800000000E+01 0. -1.
         -5    1    4    4    0  501 -0.22196760746E+01 -0.32680382892E+02 -0.69940819679E+02  0.77344198523E+02  0.41800000000E+01 0. -1.
</event>
<event>
11    1  0.8039394E-009  0.1471704E+03  0.7561462E-02  0.1099806E+00
         22   -1    0    0    0    0  0.00000000000E+00  0.00000000000E+00  0.80652914545E+02  0.80652914545E+02  0.00000000000E+00 0. -1.
         22   -1    0    0    0    0 -0.00000000000E+00 -0.00000000000E+00 -0.94417857570E+03  0.94417857570E+03  0.00000000000E+00 0. -1.
         24    2    1    2    0    0 -0.41105987942E+01  0.69757013075E+02 -0.57030556070E+03  0.58023455409E+03  0.80875010378E+02 0.  0.
         25    2    1    2    0    0 -0.36937576431E+02 -0.11404857328E+03 -0.29553477982E+03  0.34257784612E+03  0.12508921994E+03 0.  0.
        -24    2    1    2    0    0  0.41048175225E+02  0.44291560206E+02  0.23146793625E+01  0.10201909004E+03  0.82193929198E+02 0.  0.
        -13    1    3    3    0    0 -0.41107276483E+02  0.31986600278E+02 -0.22828944349E+03  0.23415597533E+03  0.00000000000E+00 0.  1.
         14    1    3    3    0    0  0.36996677688E+02  0.37770412797E+02 -0.34201611721E+03  0.34607857876E+03  0.00000000000E+00 0. -1.
         11    1    5    5    0    0  0.29195137327E+02  0.58435708244E+02  0.27433797219E+02  0.70849850186E+02  0.00000000000E+00 0. -1.
        -12    1    5    5    0    0  0.11853037898E+02 -0.14144148038E+02 -0.25119117856E+02  0.31169239853E+02  0.00000000000E+00 0.  1.
          5    1    4    4  501    0  0.94968050603E+01 -0.10845161757E+03 -0.12556366564E+03  0.16623973408E+03  0.41800000000E+01 0.  1.
         -5    1    4    4    0  501 -0.46434381491E+02 -0.55969557089E+01 -0.16997111419E+03  0.17633811203E+03  0.41800000000E+01 0.  1.
</event>
<event>
11    1  0.8039394E-009  0.1604148E+03  0.7561462E-02  0.1086688E+00
         22   -1    0    0    0    0  0.00000000000E+00  0.00000000000E+00  0.14518297453E+03  0.14518297453E+03  0.00000000000E+00 0. -1.
         22   -1    0    0    0    0 -0.00000000000E+00 -0.00000000000E+00 -0.10405160403E+04  0.10405160403E+04  0.00000000000E+00 0. -1.
        -24    2    1    2    0    0  0.38267700820E+02  0.90452625946E+02 -0.83648546339E+03  0.84597248076E+03  0.79469574490E+02 0.  0.
         25    2    1    2    0    0 -0.11011145831E+03 -0.87530191353E+02 -0.11172125259E+03  0.21889761955E+03  0.12509381246E+03 0.  0.
         24    2    1    2    0    0  0.71843757488E+02 -0.29224345931E+01  0.52873650217E+02  0.12082891452E+03  0.81448987610E+02 0.  0.
        -13    1    5    5    0    0  0.46465734104E+02 -0.32875510088E+02  0.25144202546E+01  0.56975309728E+02  0.00000000000E+00 0.  1.
         14    1    5    5    0    0  0.25378023385E+02  0.29953075495E+02  0.50359229962E+02  0.63853604792E+02  0.00000000000E+00 0. -1.
         11    1    3    3    0    0  0.33253740505E+02  0.83164422979E+02 -0.83044388662E+03  0.83525994836E+03  0.00000000000E+00 0. -1.
        -12    1    3    3    0    0  0.50139603158E+01  0.72882029668E+01 -0.60415767698E+01  0.10712532399E+02  0.00000000000E+00 0.  1.
          5    1    4    4  501    0 -0.36282539944E+02 -0.67644045858E+02  0.74617034195E+01  0.77235283794E+02  0.41800000000E+01 0.  1.
         -5    1    4    4    0  501 -0.73828918364E+02 -0.19886145495E+02 -0.11918295601E+03  0.14166233576E+03  0.41800000000E+01 0.  1.
</event>
<event>
11    1  0.8039394E-009  0.3131144E+03  0.7561462E-02  0.9947887E-01
         22   -1    0    0    0    0  0.00000000000E+00  0.00000000000E+00  0.12708357456E+04  0.12708357456E+04  0.00000000000E+00 0.  1.
         22   -1    0    0    0    0 -0.00000000000E+00 -0.00000000000E+00 -0.41839325871E+03  0.41839325871E+03  0.00000000000E+00 0. -1.
        -24    2    1    2    0    0 -0.14744325022E+03 -0.25622051290E+03 -0.18498941304E+03  0.35798626382E+03  0.80898818789E+02 0.  0.
         25    2    1    2    0    0  0.13836701633E+03  0.23395323871E+03  0.83136941296E+01  0.29932651457E+03  0.12509074987E+03 0.  0.
         24    2    1    2    0    0  0.90762338837E+01  0.22267274193E+02  0.10291182057E+04  0.10319162259E+04  0.72031981053E+02 0.  0.
        -13    1    5    5    0    0  0.37136375189E+02  0.14173087643E+02  0.79351083307E+03  0.79450577655E+03  0.00000000000E+00 0.  1.
         14    1    5    5    0    0 -0.28060141305E+02  0.80941865497E+01  0.23560737268E+03  0.23741044932E+03  0.00000000000E+00 0. -1.
         11    1    3    3    0    0 -0.10766711244E+03 -0.15200277436E+03 -0.73425798858E+02  0.20022087417E+03  0.00000000000E+00 0. -1.
        -12    1    3    3    0    0 -0.39776137774E+02 -0.10421773854E+03 -0.11156361418E+03  0.15776538965E+03  0.00000000000E+00 0.  1.
          5    1    4    4  501    0  0.11283361576E+03  0.69243882574E+02  0.15888729652E+01  0.13246183238E+03  0.41800000000E+01 0. -1.
         -5    1    4    4    0  501  0.25533400570E+02  0.16470935614E+03  0.67248211644E+01  0.16686468219E+03  0.41800000000E+01 0. -1.
</event>
<event>
11    1  0.8039394E-009  0.1441815E+03  0.7561462E-02  0.1102977E+00
         22   -1    0    0    0    0  0.00000000000E+00  0.00000000000E+00  0.35398250795E+03  0.35398250795E+03  0.00000000000E+00 0.  1.
         22   -1    0    0    0    0 -0.00000000000E+00 -0.00000000000E+00 -0.39791949106E+03  0.39791949106E+03  0.00000000000E+00 0. -1.
        -24    2    1    2    0    0  0.13832328023E+02  0.70869095229E+02 -0.18875949830E+03  0.21594780173E+03  0.76089045974E+02 0.  0.
         25    2    1    2    0    0  0.58516697987E+02 -0.71748895625E+02 -0.15081424833E+03  0.21671289557E+03  0.12508970237E+03 0.  0.
         24    2    1    2    0    0 -0.72349026010E+02  0.87980039516E+00  0.29563676352E+03  0.31924130171E+03  0.96326305652E+02 0.  0.
        -11    1    5    5    0    0 -0.56669221074E+02 -0.23623222829E+02  0.27911242226E+03  0.28578523673E+03  0.00000000000E+00 0.  1.
         12    1    5    5    0    0 -0.15679804936E+02  0.24503023224E+02  0.16524341263E+02  0.33456064983E+02  0.00000000000E+00 0. -1.
         11    1    3    3    0    0 -0.25939235329E+02  0.48411102815E+01 -0.33842123464E+02  0.42913513009E+02  0.00000000000E+00 0. -1.
        -12    1    3    3    0    0  0.39771563352E+02  0.66027984948E+02 -0.15491737484E+03  0.17303428872E+03  0.00000000000E+00 0.  1.
          5    1    4    4  501    0 -0.35027225907E+02 -0.46967023181E+02 -0.58861345429E+02  0.83156107455E+02  0.41800000000E+01 0.  1.
         -5    1    4    4    0  501  0.93543923895E+02 -0.24781872443E+02 -0.91952902905E+02  0.13355678812E+03  0.41800000000E+01 0.  1.
</event>
<event>
11    1  0.8039394E-009  0.1598078E+03  0.7561462E-02  0.1087258E+00
         22   -1    0    0    0    0  0.00000000000E+00  0.00000000000E+00  0.16616878856E+04  0.16616878856E+04  0.00000000000E+00 0.  1.
         22   -1    0    0    0    0 -0.00000000000E+00 -0.00000000000E+00 -0.77607753553E+02  0.77607753553E+02  0.00000000000E+00 0. -1.
        -24    2    1    2    0    0 -0.13717046089E+02  0.95987506999E+02  0.10307644576E+02  0.12548958854E+03  0.78991331433E+02 0.  0.
         25    2    1    2    0    0 -0.56418949938E+02 -0.12360513298E+03  0.47809454681E+03  0.51252580479E+03  0.12508788142E+03 0.  0.
         24    2    1    2    0    0  0.70135996027E+02  0.27617625983E+02  0.10956779406E+04  0.11012802458E+04  0.81401713644E+02 0.  0.
        -11    1    5    5    0    0  0.33326392386E+02  0.55512540945E+02  0.64619878226E+03  0.64943449002E+03  0.00000000000E+00 0.  1.
         12    1    5    5    0    0  0.36809603641E+02 -0.27894914962E+02  0.44947915837E+03  0.45184575577E+03  0.00000000000E+00 0. -1.
         11    1    3    3    0    0  0.17280646146E+02  0.91156857521E+02  0.14259843471E+02  0.93869785022E+02  0.00000000000E+00 0. -1.
        -12    1    3    3    0    0 -0.30997692235E+02  0.48306494777E+01 -0.39521988951E+01  0.31619803516E+02  0.00000000000E+00 0.  1.
          5    1    4    4  501    0 -0.89217121744E+02 -0.12122760431E+03  0.41038119228E+03  0.43713387221E+03  0.41800000000E+01 0. -1.
         -5    1    4    4    0  501  0.32798171806E+02 -0.23775286727E+01  0.67713354524E+02  0.75391932575E+02  0.41800000000E+01 0. -1.
</event>
<event>
11    1  0.8039394E-009  0.1445590E+03  0.7561462E-02  0.1102572E+00
         22   -1    0    0    0    0  0.00000000000E+00  0.00000000000E+00  0.18140551705E+04  0.18140551705E+04  0.00000000000E+00 0.  1.
         22   -1    0    0    0    0 -0.00000000000E+00 -0.00000000000E+00 -0.10470429277E+03  0.10470429277E+03  0.00000000000E+00 0. -1.
        -24    2    1    2    0    0  0.46623924910E+01  0.72602024073E+02 -0.62080284293E+02  0.12533073171E+03  0.81000239563E+02 0.  0.
         25    2    1    2    0    0  0.20787166987E+02 -0.68595186714E+02  0.53088904941E+03  0.55011666234E+03  0.12509098069E+03 0.  0.
         24    2    1    2    0    0 -0.25449559478E+02 -0.40068373593E+01  0.12405421126E+04  0.12433120692E+04  0.78844362461E+02 0.  0.
        -11    1    5    5    0    0 -0.42621970116E+02  0.20167484902E+02  0.97091171759E+03  0.97205602881E+03  0.00000000000E+00 0.  1.
         12    1    5    5    0    0  0.17172410638E+02 -0.24174322261E+02  0.26963039501E+03  0.27125604040E+03  0.00000000000E+00 0. -1.
         11    1    3    3    0    0 -0.98387351391E+01  0.75919816810E+02 -0.73844320083E+02  0.10636542155E+03  0.00000000000E+00 0. -1.
        -12    1    3    3    0    0  0.14501127630E+02 -0.33177927366E+01  0.11764035790E+02  0.18965310155E+02  0.00000000000E+00 0.  1.
          5    1    4    4  501    0 -0.14021211535E+02 -0.56044320092E+02  0.86091290338E+02  0.10376291659E+03  0.41800000000E+01 0. -1.
         -5    1    4    4    0  501  0.34808378522E+02 -0.12550866622E+02  0.44479775907E+03  0.44635374575E+03  0.41800000000E+01 0. -1.
</event>
<event>
11    1  0.8039394E-009  0.1583228E+03  0.7561462E-02  0.1088665E+00
         22   -1    0    0    0    0  0.00000000000E+00  0.00000000000E+00  0.36353195241E+03  0.36353195241E+03  0.00000000000E+00 0. -1.
         22   -1    0    0    0    0 -0.00000000000E+00 -0.00000000000E+00 -0.48595027656E+03  0.48595027656E+03  0.00000000000E+00 0. -1.
        -24    2    1    2    0    0  0.59281379135E+02 -0.81083102377E+02 -0.39466896628E+03  0.41521654477E+03  0.80947110542E+02 0.  0.
         25    2    1    2    0    0  0.62394987690E+01  0.88584248840E+02  0.11848376268E+02  0.15386257578E+03  0.12508879933E+03 0.  0.
         24    2    1    2    0    0 -0.65520877904E+02 -0.75011464623E+01  0.26040226586E+03  0.28040310842E+03  0.80419590298E+02 0.  0.
        -11    1    5    5    0    0 -0.15836019546E+02  0.26711610318E+02  0.16224893683E+03  0.16519384717E+03  0.00000000000E+00 0.  1.
         12    1    5    5    0    0 -0.49684858359E+02 -0.34212756780E+02  0.98153329038E+02  0.11520926125E+03  0.00000000000E+00 0. -1.
         13    1    3    3    0    0  0.64821390906E+02 -0.45200170300E+02 -0.34351153220E+03  0.35248410016E+03  0.00000000000E+00 0. -1.
        -14    1    3    3    0    0 -0.55400117709E+01 -0.35882932077E+02 -0.51157434078E+02  0.62732444606E+02  0.00000000000E+00 0.  1.
          5    1    4    4  501    0  0.63815530493E+02  0.64569454847E+02  0.65785360048E+01  0.91117429547E+02  0.41800000000E+01 0. -1.
         -5    1    4    4    0  501 -0.57576031724E+02  0.24014793993E+02  0.52698402636E+01  0.62745146235E+02  0.41800000000E+01 0. -1.
</event>
<event>
11    1  0.8039394E-009  0.1619847E+03  0.7561462E-02  0.1085225E+00
         22   -1    0    0    0    0  0.00000000000E+00  0.00000000000E+00  0.37524482929E+03  0.37524482929E+03  0.00000000000E+00 0. -1.
         22   -1    0    0    0    0 -0.00000000000E+00 -0.00000000000E+00 -0.30283040828E+03  0.30283040828E+03  0.00000000000E+00 0. -1.
        -24    2    1    2    0    0 -0.10185619839E+03 -0.23705372697E+02 -0.22940275890E+03  0.26461010690E+03  0.80350812302E+02 0.  0.
         25    2    1    2    0    0  0.89912652162E+02  0.16412984557E+02  0.73844938029E+02  0.17162351067E+03  0.12509150035E+03 0.  0.
         24    2    1    2    0    0  0.11943546232E+02  0.72923881393E+01  0.22797224188E+03  0.24184162000E+03  0.79499678471E+02 0.  0.
        -11    1    5    5    0    0  0.25820965827E+02 -0.13890116285E+02  0.28912425687E+02  0.41177493437E+02  0.00000000000E+00 0.  1.
         12    1    5    5    0    0 -0.13877419595E+02  0.21182504424E+02  0.19905981619E+03  0.20066412656E+03  0.00000000000E+00 0. -1.
         13    1    3    3    0    0 -0.85374905274E+02 -0.20000162315E+00 -0.21727330517E+03  0.23344507618E+03  0.00000000000E+00 0. -1.
        -14    1    3    3    0    0 -0.16481293120E+02 -0.23505371073E+02 -0.12129453725E+02  0.31165030722E+02  0.00000000000E+00 0.  1.
          5    1    4    4  501    0  0.46008261143E+02  0.67061897158E+00 -0.31784195884E+02  0.56079562509E+02  0.41800000000E+01 0.  1.
         -5    1    4    4    0  501  0.43904391019E+02  0.15742365586E+02  0.10562913391E+03  0.11554394816E+03  0.41800000000E+01 0.  1.
</event>
<event>
11    1  0.8039394E-009  0.1751306E+03  0.7561462E-02  0.1073651E+00
         22   -1    0    0    0    0  0.00000000000E+00  0.00000000000E+00  0.30321042216E+03  0.30321042216E+03  0.00000000000E+00 0.  1.
         22   -1    0    0    0    0 -0.00000000000E+00 -0.00000000000E+00 -0.11847422706E+04  0.11847422706E+04  0.00000000000E+00 0.  1.
        -24    2    1    2    0    0  0.17634919017E+02  0.84063937523E+01 -0.89540397797E+03  0.89991040564E+03  0.87799752788E+02 0.  0.
         25    2    1    2    0    0 -0.96952720907E+02  0.84580104622E+02 -0.23727969571E+03  0.29749239504E+03  0.12508575826E+03 0.  0.
         24    2    1    2    0    0  0.79317801890E+02 -0.92986498375E+02  0.25115182521E+03  0.29054989211E+03  0.80026232690E+02 0.  0.
        -13    1    5    5    0    0  0.71938382398E+02 -0.92502160422E+02  0.15599264773E+03  0.19510378441E+03  0.00000000000E+00 0.  1.
         14    1    5    5    0    0  0.73794194917E+01 -0.48433795276E+00  0.95159177485E+02  0.95446107699E+02  0.00000000000E+00 0. -1.
         13    1    3    3    0    0  0.21542037756E+02 -0.23864526818E+02 -0.13361975440E+03  0.13743294291E+03  0.00000000000E+00 0. -1.
        -14    1    3    3    0    0 -0.39071187383E+01  0.32270920570E+02 -0.76178422357E+03  0.76247746273E+03  0.00000000000E+00 0.  1.
          5    1    4    4  501    0  0.11522149480E+02  0.65224453533E+02 -0.64644149801E+02  0.92646250712E+02  0.41800000000E+01 0.  1.
         -5    1    4    4    0  501 -0.10847487039E+03  0.19355651089E+02 -0.17263554591E+03  0.20484614433E+03  0.41800000000E+01 0.  1.
</event>
<event>
11    1  0.8039394E-009  0.1593968E+03  0.7561462E-02  0.1087646E+00
         22   -1    0    0    0    0  0.00000000000E+00  0.00000000000E+00  0.83195848868E+03  0.83195848868E+03  0.00000000000E+00 0. -1.
         22   -1    0    0    0    0 -0.00000000000E+00 -0.00000000000E+00 -0.32114047332E+03  0.32114047332E+03  0.00000000000E+00 0.  1.
        -24    2    1    2    0    0 -0.72948791569E+02  0.54666484761E+02 -0.21202038259E+03  0.24449139112E+03  0.80705928839E+02 0.  0.
         25    2    1    2    0    0  0.11584271889E+03 -0.92696158124E+02  0.16155080935E+02  0.19473627959E+03  0.12509643759E+03 0.  0.
         24    2    1    2    0    0 -0.42893927325E+02  0.38029673363E+02  0.70668331701E+03  0.71387129129E+03  0.83215172456E+02 0.  0.
        -11    1    5    5    0    0  0.82323549061E+01 -0.17600381858E+02  0.67595323172E+02  0.70332587209E+02  0.00000000000E+00 0.  1.
         12    1    5    5    0    0 -0.51126282231E+02  0.55630055221E+02  0.63908799384E+03  0.64353870408E+03  0.00000000000E+00 0. -1.
         11    1    3    3    0    0 -0.26033794044E+02  0.51562512137E+02 -0.52047425601E+02  0.77752077798E+02  0.00000000000E+00 0. -1.
        -12    1    3    3    0    0 -0.46914997525E+02  0.31039726243E+01 -0.15997295699E+03  0.16673931332E+03  0.00000000000E+00 0.  1.
          5    1    4    4  501    0  0.63325392103E+02 -0.73216947444E+02  0.67939317726E+02  0.11833870868E+03  0.41800000000E+01 0. -1.
         -5    1    4    4    0  501  0.52517326791E+02 -0.19479210679E+02 -0.51784236791E+02  0.76397570917E+02  0.41800000000E+01 0. -1.
</event>
<event>
11    1  0.8039394E-009  0.5147163E+03  0.7561462E-02  0.9361225E-01
         22   -1    0    0    0    0  0.00000000000E+00  0.00000000000E+00  0.47881575204E+02  0.47881575204E+02  0.00000000000E+00 0.  1.
         22   -1    0    0    0    0 -0.00000000000E+00 -0.00000000000E+00 -0.13832712423E+04  0.13832712423E+04  0.00000000000E+00 0.  1.
         24    2    1    2    0    0  0.91296949250E+02 -0.77983549563E+02 -0.49092194735E+03  0.51167789941E+03  0.79958410501E+02 0.  0.
         25    2    1    2    0    0 -0.13991425039E+03  0.14968803123E+03 -0.50688271607E+03  0.56085848960E+03  0.12509857454E+03 0.  0.
        -24    2    1    2    0    0  0.48617301142E+02 -0.71704481669E+02 -0.33758500368E+03  0.35861642849E+03  0.84480372959E+02 0.  0.
        -11    1    3    3    0    0  0.24507416382E+02  0.14499778490E+02 -0.69981699375E+02  0.75553261222E+02  0.00000000000E+00 0.  1.
         12    1    3    3    0    0  0.66789532867E+02 -0.92483328053E+02 -0.42094024798E+03  0.43612463819E+03  0.00000000000E+00 0. -1.
         13    1    5    5    0    0 -0.13999001769E+02  0.24708273254E+01 -0.11380868384E+03  0.11469304058E+03  0.00000000000E+00 0. -1.
        -14    1    5    5    0    0  0.62616302912E+02 -0.74175308995E+02 -0.22377631983E+03  0.24392338792E+03  0.00000000000E+00 0.  1.
          5    1    4    4  501    0 -0.57904161142E+02  0.11231236556E+03 -0.40735469873E+03  0.42652348389E+03  0.41800000000E+01 0. -1.
         -5    1    4    4    0  501 -0.82010089250E+02  0.37375665671E+02 -0.99528017337E+02  0.13433500571E+03  0.41800000000E+01 0. -1.
</event>
<event>
11    1  0.8039394E-009  0.1354125E+03  0.7561462E-02  0.1112792E+00
         22   -1    0    0    0    0  0.00000000000E+00  0.00000000000E+00  0.58869493105E+03  0.58869493105E+03  0.00000000000E+00 0.  1.
         22   -1    0    0    0    0 -0.00000000000E+00 -0.00000000000E+00 -0.59769931221E+03  0.59769931221E+03  0.00000000000E+00 0. -1.
        -24    2    1    2    0    0 -0.49741618172E+02  0.20665222920E+02 -0.56928383382E+03  0.57744952026E+03  0.80390204503E+02 0.  0.
         25    2    1    2    0    0  0.24735163502E+02  0.38966943683E+02  0.28496533604E+03  0.31461538213E+03  0.12508934775E+03 0.  0.
         24    2    1    2    0    0  0.25006454670E+02 -0.59632166603E+02  0.27531411662E+03  0.29432934087E+03  0.81551088365E+02 0.  0.
        -11    1    5    5    0    0  0.13616855510E+02 -0.44887288792E+02  0.27122893239E+03  0.27525519289E+03  0.00000000000E+00 0.  1.
         12    1    5    5    0    0  0.11389599160E+02 -0.14744877810E+02  0.40851842332E+01  0.19074147973E+02  0.00000000000E+00 0. -1.
         13    1    3    3    0    0 -0.40170724537E+02  0.46950444193E+02 -0.47795717573E+03  0.48193473952E+03  0.00000000000E+00 0. -1.
        -14    1    3    3    0    0 -0.95708936343E+01 -0.26285221273E+02 -0.91326658086E+02  0.95514780739E+02  0.00000000000E+00 0.  1.
          5    1    4    4  501    0  0.39124477812E+02 -0.37796953344E+02  0.13148536639E+03  0.14235592162E+03  0.41800000000E+01 0. -1.
         -5    1    4    4    0  501 -0.14389314310E+02  0.76763897027E+02  0.15347996965E+03  0.17225946051E+03  0.41800000000E+01 0. -1.
</event>
<event>
11    1  0.8039394E-009  0.1415438E+03  0.7561462E-02  0.1105847E+00
         22   -1    0    0    0    0  0.00000000000E+00  0.00000000000E+00  0.40576514138E+03  0.40576514138E+03  0.00000000000E+00 0.  1.
         22   -1    0    0    0    0 -0.00000000000E+00 -0.00000000000E+00 -0.11632575765E+04  0.11632575765E+04  0.00000000000E+00 0. -1.
         24    2    1    2    0    0  0.55209979952E+02  0.36580197147E+02 -0.95069540228E+03  0.95637809130E+03  0.80318446755E+02 0.  0.
         25    2    1    2    0    0 -0.79875558876E+02  0.34191918575E+01 -0.17674922245E+03  0.23082417073E+03  0.12509082452E+03 0.  0.
        -24    2    1    2    0    0  0.24665578924E+02 -0.39999389005E+02  0.36995218957E+03  0.38182045588E+03  0.81938367451E+02 0.  0.
        -11    1    3    3    0    0  0.23527347873E+02  0.51055598821E+02 -0.33384335644E+03  0.33854334569E+03  0.00000000000E+00 0.  1.
         12    1    3    3    0    0  0.31682632079E+02 -0.14475401674E+02 -0.61685204584E+03  0.61783474561E+03  0.00000000000E+00 0. -1.
         13    1    5    5    0    0 -0.64905516232E+00 -0.59914239711E+02  0.19760582359E+03  0.20649019083E+03  0.00000000000E+00 0. -1.
        -14    1    5    5    0    0  0.25314634087E+02  0.19914850706E+02  0.17234636598E+03  0.17533026505E+03  0.00000000000E+00 0.  1.
          5    1    4    4  501    0  0.76590834356E+01 -0.32657994405E+02 -0.10955119135E+03  0.11464790483E+03  0.41800000000E+01 0. -1.
         -5    1    4    4    0  501 -0.87534642312E+02  0.36077186262E+02 -0.67198031100E+02  0.11617626589E+03  0.41800000000E+01 0. -1.
</event>
<event>
11    1  0.8039394E-009  0.1311555E+03  0.7561462E-02  0.1117857E+00
         22   -1    0    0    0    0  0.00000000000E+00  0.00000000000E+00  0.27426017142E+03  0.27426017142E+03  0.00000000000E+00 0. -1.
         22   -1    0    0    0    0 -0.00000000000E+00 -0.00000000000E+00 -0.18950104277E+04  0.18950104277E+04  0.00000000000E+00 0.  1.
        -24    2    1    2    0    0 -0.38987447634E+02 -0.34022102671E+01 -0.17718476690E+04  0.17740940185E+04  0.80211149658E+02 0.  0.
         25    2    1    2    0    0  0.48467780485E+02  0.15605653105E+02 -0.75152757149E+02  0.15455728628E+03  0.12508939076E+03 0.  0.
         24    2    1    2    0    0 -0.94803328510E+01 -0.12203442838E+02  0.22625016980E+03  0.24061929434E+03  0.80434474865E+02 0.  0.
        -13    1    5    5    0    0  0.28811323233E+02  0.16328919765E+02  0.11193034485E+03  0.11672672387E+03  0.00000000000E+00 0.  1.
         14    1    5    5    0    0 -0.38291656084E+02 -0.28532362603E+02  0.11431982494E+03  0.12389257046E+03  0.00000000000E+00 0. -1.
         11    1    3    3    0    0  0.44608025758E+00 -0.37265025047E+02 -0.74789612820E+03  0.74882407790E+03  0.00000000000E+00 0. -1.
        -12    1    3    3    0    0 -0.39433527892E+02  0.33862814780E+02 -0.10239515408E+04  0.10252699406E+04  0.00000000000E+00 0.  1.
          5    1    4    4  501    0 -0.31486570863E+02  0.40171552381E+02 -0.25696681856E+02  0.57297029799E+02  0.41800000000E+01 0.  1.
         -5    1    4    4    0  501  0.79954351348E+02 -0.24565899276E+02 -0.49456075293E+02  0.97260256478E+02  0.41800000000E+01 0.  1.
</event>
<event>
11    1  0.8039394E-009  0.1974686E+03  0.7561462E-02  0.1056328E+00
         22   -1    0    0    0    0  0.00000000000E+00  0.00000000000E+00  0.15267304195E+03  0.15267304195E+03  0.00000000000E+00 0.  1.
         22   -1    0    0    0    0 -0.00000000000E+00 -0.00000000000E+00 -0.11742278243E+04  0.11742278243E+04  0.00000000000E+00 0. -1.
        -24    2    1    2    0    0  0.63421796456E+01  0.74155320789E+02 -0.83038186386E+03  0.83742576555E+03  0.78794911850E+02 0.  0.
         25    2    1    2    0    0  0.62148721288E+01 -0.21222895044E+03 -0.21942920978E+03  0.32996455042E+03  0.12509066469E+03 0.  0.
         24    2    1    2    0    0 -0.12557051774E+02  0.13807362965E+03  0.28256291290E+02  0.15951055028E+03  0.73642317315E+02 0.  0.
        -11    1    5    5    0    0  0.31036940305E+02  0.58106085706E+02  0.13497631354E+02  0.67244292782E+02  0.00000000000E+00 0.  1.
         12    1    5    5    0    0 -0.43593992079E+02  0.79967543942E+02  0.14758659936E+02  0.92266257497E+02  0.00000000000E+00 0. -1.
         13    1    3    3    0    0 -0.54243581744E+01  0.47162758458E+02 -0.75508793863E+03  0.75657884223E+03  0.00000000000E+00 0. -1.
        -14    1    3    3    0    0  0.11766537820E+02  0.26992562331E+02 -0.75293925231E+02  0.80846923319E+02  0.00000000000E+00 0.  1.
          5    1    4    4  501    0  0.38943081263E+02 -0.24416776129E+02 -0.10960062772E+02  0.47437726661E+02  0.41800000000E+01 0.  1.
         -5    1    4    4    0  501 -0.32728209135E+02 -0.18781217431E+03 -0.20846914701E+03  0.28252682376E+03  0.41800000000E+01 0.  1.
</event>
<event>
11    1  0.8039394E-009  0.1578261E+03  0.7561462E-02  0.1089140E+00
         22   -1    0    0    0    0  0.00000000000E+00  0.00000000000E+00  0.61628915032E+03  0.61628915032E+03  0.00000000000E+00 0. -1.
         22   -1    0    0    0    0 -0.00000000000E+00 -0.00000000000E+00 -0.44730925976E+03  0.44730925976E+03  0.00000000000E+00 0.  1.
        -24    2    1    2    0    0 -0.92879562817E+02 -0.15737354880E+02 -0.35865626468E+03  0.37749288002E+03  0.70656073674E+02 0.  0.
         25    2    1    2    0    0  0.12258973414E+03 -0.17827441285E+02  0.28290775577E+02  0.17830967316E+03  0.12509161036E+03 0.  0.
         24    2    1    2    0    0 -0.29710171322E+02  0.33564796166E+02  0.49934537966E+03  0.50779585690E+03  0.80632092089E+02 0.  0.
        -11    1    5    5    0    0  0.12271176921E+02  0.24716550524E+02  0.56517894287E+02  0.62894848974E+02  0.00000000000E+00 0.  1.
         12    1    5    5    0    0 -0.41981348243E+02  0.88482456417E+01  0.44282748537E+03  0.44490100792E+03  0.00000000000E+00 0. -1.
         11    1    3    3    0    0 -0.38451104773E+02 -0.37175280875E+02 -0.11373784674E+03  0.12568526861E+03  0.00000000000E+00 0. -1.
        -12    1    3    3    0    0 -0.54428458044E+02  0.21437925994E+02 -0.24491841794E+03  0.25180761141E+03  0.00000000000E+00 0.  1.
          5    1    4    4  501    0  0.13082337675E+03  0.18695458002E+02  0.17553455887E+01  0.13223021475E+03  0.41800000000E+01 0. -1.
         -5    1    4    4    0  501 -0.82336426121E+01 -0.36522899287E+02  0.26535429988E+02  0.46079458413E+02  0.41800000000E+01 0. -1.
</event>
<event>
11    1  0.8039394E-009  0.1990530E+03  0.7561462E-02  0.1055195E+00
         22   -1    0    0    0    0  0.00000000000E+00  0.00000000000E+00  0.40518255923E+03  0.40518255923E+03  0.00000000000E+00 0.  1.
         22   -1    0    0    0    0 -0.00000000000E+00 -0.00000000000E+00 -0.10247976881E+04  0.10247976881E+04  0.00000000000E+00 0.  1.
        -24    2    1    2    0    0  0.58474846439E+01  0.73514522508E+02 -0.91023290683E+03  0.91705071423E+03  0.83782394925E+02 0.  0.
         25    2    1    2    0    0 -0.14904285373E+03  0.48755295890E+00  0.32016939599E+02  0.19719678923E+03  0.12508988491E+03 0.  0.
         24    2    1    2    0    0  0.14319536909E+03 -0.74002075467E+02  0.25860083837E+03  0.31573274385E+03  0.82653197338E+02 0.  0.
        -11    1    5    5    0    0  0.82200873377E+02 -0.81269991761E+02  0.19904544737E+03  0.23017577036E+03  0.00000000000E+00 0.  1.
         12    1    5    5    0    0  0.60994495710E+02  0.72679162940E+01  0.59555391001E+02  0.85556973482E+02  0.00000000000E+00 0. -1.
         13    1    3    3    0    0  0.37908545605E+01  0.49259702695E+02 -0.18724796456E+03  0.19365611047E+03  0.00000000000E+00 0. -1.
        -14    1    3    3    0    0  0.20566300834E+01  0.24254819813E+02 -0.72298494227E+03  0.72339460377E+03  0.00000000000E+00 0.  1.
          5    1    4    4  501    0 -0.14151015961E+03 -0.25144192058E+02  0.62207285361E+02  0.15666708148E+03  0.41800000000E+01 0. -1.
         -5    1    4    4    0  501 -0.75326941175E+01  0.25631745017E+02 -0.30190345762E+02  0.40529707752E+02  0.41800000000E+01 0. -1.
</event>
<event>
11    1  0.8039394E-009  0.2846210E+03  0.7561462E-02  0.1006918E+00
         22   -1    0    0    0    0  0.00000000000E+00  0.00000000000E+00  0.36474008692E+03  0.36474008692E+03  0.00000000000E+00 0.  1.
         22   -1    0    0    0    0 -0.00000000000E+00 -0.00000000000E+00 -0.20580307270E+04  0.20580307270E+04  0.00000000000E+00 0.  1.
         24    2    1    2    0    0 -0.16909238663E+02  0.58389839411E+02 -0.13275194303E+04  0.13315064702E+04  0.83104433368E+02 0.  0.
         25    2    1    2    0    0  0.32281854690E+02 -0.30924645285E+03 -0.63376187526E+03  0.71692217981E+03  0.12509120922E+03 0.  0.
        -24    2    1    2    0    0 -0.15372616028E+02  0.25085661344E+03  0.26799066545E+03  0.37434216388E+03  0.71747481174E+02 0.  0.
        -11    1    3    3    0    0  0.16552645144E+02  0.65507885640E+02 -0.97167025652E+03  0.97401661205E+03  0.00000000000E+00 0.  1.
         12    1    3    3    0    0 -0.33461883807E+02 -0.71180462289E+01 -0.35584917376E+03  0.35748985820E+03  0.00000000000E+00 0. -1.
         13    1    5    5    0    0 -0.14387943174E+02  0.45957637707E+01  0.15278606110E+02  0.21484174596E+02  0.00000000000E+00 0. -1.
        -14    1    5    5    0    0 -0.98467285312E+00  0.24626084967E+03  0.25271205934E+03  0.35285798928E+03  0.00000000000E+00 0.  1.
          5    1    4    4  501    0  0.29779080550E+02 -0.15575800743E+03 -0.19100262298E+03  0.24828778645E+03  0.41800000000E+01 0.  1.
         -5    1    4    4    0  501  0.25027741405E+01 -0.15348844543E+03 -0.44275925228E+03  0.46863439336E+03  0.41800000000E+01 0.  1.
</event>
<event>
11    1  0.8039394E-009  0.3744786E+03  0.7561462E-02  0.9728214E-01
         22   -1    0    0    0    0  0.00000000000E+00  0.00000000000E+00  0.12769586233E+04  0.12769586233E+04  0.00000000000E+00 0.  1.
         22   -1    0    0    0    0 -0.00000000000E+00 -0.00000000000E+00 -0.87260554492E+03  0.87260554492E+03  0.00000000000E+00 0. -1.
         24    2    1    2    0    0  0.13417344433E+03  0.16227853925E+03 -0.71331441929E+03  0.74805491018E+03  0.80198818037E+02 0.  0.
         25    2    1    2    0    0 -0.42274042733E+03 -0.25604283344E+03  0.52486890317E+03  0.73171153637E+03  0.12508799098E+03 0.  0.
        -24    2    1    2    0    0  0.28856698300E+03  0.93764294196E+02  0.59279859452E+03  0.66979772170E+03  0.71806460627E+02 0.  0.
        -11    1    3    3    0    0  0.14193952577E+02  0.42852451569E+02 -0.73777975130E+02  0.86492719402E+02  0.00000000000E+00 0.  1.
         12    1    3    3    0    0  0.11997949176E+03  0.11942608768E+03 -0.63953644416E+03  0.66156219078E+03  0.00000000000E+00 0. -1.
         11    1    5    5    0    0  0.83019665175E+02  0.30260243394E+02  0.10895889159E+03  0.14028537769E+03  0.00000000000E+00 0. -1.
        -12    1    5    5    0    0  0.20554731782E+03  0.63504050802E+02  0.48383970293E+03  0.52951234401E+03  0.00000000000E+00 0.  1.
          5    1    4    4  501    0 -0.53467903008E+02 -0.23755473975E+02  0.13268673391E+03  0.14507370868E+03  0.41800000000E+01 0.  1.
         -5    1    4    4    0  501 -0.36927252432E+03 -0.23228735947E+03  0.39218216926E+03  0.58663782769E+03  0.41800000000E+01 0.  1.
</event>
<event>
11    1  0.8039394E-009  0.1716144E+03  0.7561462E-02  0.1076635E+00
         22   -1    0    0    0    0  0.00000000000E+00  0.00000000000E+00  0.14071937892E+04  0.14071937892E+04  0.00000000000E+00 0. -1.
         22   -1    0    0    0    0 -0.00000000000E+00 -0.00000000000E+00 -0.22998950873E+03  0.22998950873E+03  0.00000000000E+00 0.  1.
        -24    2    1    2    0    0 -0.73365586560E+02  0.87041606282E+02 -0.15448536717E+03  0.20792306391E+03  0.80046994445E+02 0.  0.
         25    2    1    2    0    0  0.12126675515E+03 -0.86577713289E+02  0.15464294681E+03  0.24852359089E+03  0.12509279712E+03 0.  0.
         24    2    1    2    0    0 -0.47901168588E+02 -0.46389299217E+00  0.11770467009E+04  0.11807366432E+04  0.80033413935E+02 0.  0.
        -11    1    5    5    0    0  0.12365382215E+02  0.19989581198E+02  0.16195280440E+03  0.16364961622E+03  0.00000000000E+00 0.  1.
         12    1    5    5    0    0 -0.60266550803E+02 -0.20453474190E+02  0.10150938965E+04  0.10170870270E+04  0.00000000000E+00 0. -1.
         11    1    3    3    0    0  0.14015199429E+02  0.33775745464E+02 -0.35222476107E+02  0.50772528200E+02  0.00000000000E+00 0. -1.
        -12    1    3    3    0    0 -0.87380785989E+02  0.53265860818E+02 -0.11926289106E+03  0.15715053571E+03  0.00000000000E+00 0.  1.
          5    1    4    4  501    0  0.57856459658E+02 -0.10794145296E+03  0.12555310510E+03  0.17544167632E+03  0.41800000000E+01 0. -1.
         -5    1    4    4    0  501  0.63410295490E+02  0.21363739670E+02  0.29089841705E+02  0.73081914570E+02  0.41800000000E+01 0. -1.
</event>
<event>
11    1  0.8039394E-009  0.2167114E+03  0.7561462E-02  0.1043297E+00
         22   -1    0    0    0    0  0.00000000000E+00  0.00000000000E+00  0.23607291363E+04  0.23607291363E+04  0.00000000000E+00 0. -1.
         22   -1    0    0    0    0 -0.00000000000E+00 -0.00000000000E+00 -0.46674283508E+03  0.46674283508E+03  0.00000000000E+00 0. -1.
        -24    2    1    2    0    0  0.12714906951E+03 -0.11482471924E+03 -0.36095165292E+03  0.40929384406E+03  0.88790500678E+02 0.  0.
         25    2    1    2    0    0 -0.18339168428E+03  0.13322250513E+03  0.12791702649E+03  0.28877653926E+03  0.12509347795E+03 0.  0.
         24    2    1    2    0    0  0.56242614772E+02 -0.18397785892E+02  0.21270209276E+04  0.21294015880E+04  0.81433324450E+02 0.  0.
        -13    1    5    5    0    0 -0.10335086175E+02 -0.10601893620E+01  0.42707029804E+02  0.43952569918E+02  0.00000000000E+00 0.  1.
         14    1    5    5    0    0  0.66577700947E+02 -0.17337596530E+02  0.20843138978E+04  0.20854490181E+04  0.00000000000E+00 0. -1.
         11    1    3    3    0    0  0.10873831394E+03 -0.42699310633E+02 -0.19328343708E+03  0.22584450203E+03  0.00000000000E+00 0. -1.
        -12    1    3    3    0    0  0.18410755568E+02 -0.72125408608E+02 -0.16766821584E+03  0.18344934202E+03  0.00000000000E+00 0.  1.
          5    1    4    4  501    0 -0.66036101722E+01 -0.21131008299E+02  0.21176317111E+02  0.30919831588E+02  0.41800000000E+01 0.  1.
         -5    1    4    4    0  501 -0.17678807411E+03  0.15435351343E+03  0.10674070938E+03  0.25785670768E+03  0.41800000000E+01 0.  1.
</event>
<event>
11    1  0.8039394E-009  0.3502447E+03  0.7561462E-02  0.9809168E-01
         22   -1    0    0    0    0  0.00000000000E+00  0.00000000000E+00  0.11606260710E+04  0.11606260710E+04  0.00000000000E+00 0. -1.
         22   -1    0    0    0    0 -0.00000000000E+00 -0.00000000000E+00 -0.24920110105E+03  0.24920110105E+03  0.00000000000E+00 0. -1.
         24    2    1    2    0    0 -0.12441021396E+03 -0.26081459879E+03  0.10975712594E+03  0.31932320773E+03  0.80115716435E+02 0.  0.
         25    2    1    2    0    0 -0.23323647302E+02  0.44827864302E+03  0.38953814144E+03  0.60735949453E+03  0.12509139714E+03 0.  0.
        -24    2    1    2    0    0  0.14773386127E+03 -0.18746404423E+03  0.41212970259E+03  0.48314446982E+03  0.81299602180E+02 0.  0.
        -13    1    3    3    0    0 -0.83005200239E+02 -0.88371761858E+02  0.30164678622E+02  0.12493734188E+03  0.00000000000E+00 0.  1.
         14    1    3    3    0    0 -0.41405013725E+02 -0.17244283694E+03  0.79592447313E+02  0.19438586585E+03  0.00000000000E+00 0. -1.
         13    1    5    5    0    0  0.10806768345E+03 -0.17923640486E+03  0.36711998923E+03  0.42258892499E+03  0.00000000000E+00 0. -1.
        -14    1    5    5    0    0  0.39666177819E+02 -0.82276393648E+01  0.45009713362E+02  0.60555544826E+02  0.00000000000E+00 0.  1.
          5    1    4    4  501    0 -0.20130291098E+02  0.18790003588E+02  0.52081608346E+00  0.27857431754E+02  0.41800000000E+01 0.  1.
         -5    1    4    4    0  501 -0.31933562038E+01  0.42948863943E+03  0.38901732536E+03  0.57950206277E+03  0.41800000000E+01 0.  1.
</event>
<event>
11    1  0.8039394E-009  0.1282421E+03  0.7561462E-02  0.1121448E+00
         22   -1    0    0    0    0  0.00000000000E+00  0.00000000000E+00  0.59771462389E+03  0.59771462389E+03  0.00000000000E+00 0. -1.
         22   -1    0    0    0    0 -0.00000000000E+00 -0.00000000000E+00 -0.40789476413E+03  0.40789476413E+03  0.00000000000E+00 0. -1.
        -24    2    1    2    0    0  0.21906209246E+02  0.16396988699E+02 -0.34615882920E+03  0.35675601638E+03  0.81854608564E+02 0.  0.
         25    2    1    2    0    0 -0.35047492022E+02 -0.23131159640E+02  0.28210823604E+02  0.13493373545E+03  0.12509150710E+03 0.  0.
         24    2    1    2    0    0  0.13141282775E+02  0.67341709415E+01  0.50776786536E+03  0.51391963620E+03  0.77891880243E+02 0.  0.
        -11    1    5    5    0    0 -0.10816917412E+02 -0.18149020474E+02  0.43407780696E+02  0.48276578912E+02  0.00000000000E+00 0.  1.
         12    1    5    5    0    0  0.23958200187E+02  0.24883191415E+02  0.46436008466E+03  0.46564305728E+03  0.00000000000E+00 0. -1.
         11    1    3    3    0    0  0.27845224437E+02 -0.12860119694E+02 -0.30138713631E+03  0.30294379864E+03  0.00000000000E+00 0. -1.
        -12    1    3    3    0    0 -0.59390151908E+01  0.29257108393E+02 -0.44771692893E+02  0.53812217734E+02  0.00000000000E+00 0.  1.
          5    1    4    4  501    0  0.87236417683E+01 -0.66402015121E+02  0.29329899045E+02  0.73232813109E+02  0.41800000000E+01 0. -1.
         -5    1    4    4    0  501 -0.43771133790E+02  0.43270855481E+02 -0.11190754415E+01  0.61700922336E+02  0.41800000000E+01 0. -1.
</event>
<event>
11    1  0.8039394E-009  0.1713084E+03  0.7561462E-02  0.1076899E+00
         22   -1    0    0    0    0  0.00000000000E+00  0.00000000000E+00  0.41315541372E+03  0.41315541372E+03  0.00000000000E+00 0.  1.
         22   -1    0    0    0    0 -0.00000000000E+00 -0.00000000000E+00 -0.79560131500E+03  0.79560131500E+03  0.00000000000E+00 0. -1.
         24    2    1    2    0    0  0.10294780797E+03  0.30707893022E+02 -0.56695867270E+03  0.58267131578E+03  0.80761994893E+02 0.  0.
         25    2    1    2    0    0 -0.18082986608E+03 -0.85402360132E+02 -0.14332484222E+03  0.27601701622E+03  0.12510147586E+03 0.  0.
        -24    2    1    2    0    0  0.77882058107E+02  0.54694467110E+02  0.32783761364E+03  0.35006839672E+03  0.77545352905E+02 0.  0.
        -11    1    3    3    0    0  0.21329064628E+02  0.18652531942E+02 -0.38454279396E+02  0.47765861760E+02  0.00000000000E+00 0.  1.
         12    1    3    3    0    0  0.81618743346E+02  0.12055361080E+02 -0.52850439330E+03  0.53490545402E+03  0.00000000000E+00 0. -1.
         11    1    5    5    0    0 -0.50126891373E+01 -0.88062175835E+01  0.61407614031E+01  0.11848437497E+02  0.00000000000E+00 0. -1.
        -12    1    5    5    0    0  0.82894747244E+02  0.63500684694E+02  0.32169685224E+03  0.33821995923E+03  0.00000000000E+00 0.  1.
          5    1    4    4  501    0 -0.34678972495E+02 -0.15030755351E+02  0.22356604823E+02  0.44111732214E+02  0.41800000000E+01 0. -1.
         -5    1    4    4    0  501 -0.14615089359E+03 -0.70371604782E+02 -0.16568144705E+03  0.23190528401E+03  0.41800000000E+01 0. -1.
</event>
<event>
11    1  0.8039394E-009  0.1280327E+03  0.7561462E-02  0.1121710E+00
         22   -1    0    0    0    0  0.00000000000E+00  0.00000000000E+00  0.50282948687E+03  0.50282948687E+03  0.00000000000E+00 0. -1.
         22   -1    0    0    0    0 -0.00000000000E+00 -0.00000000000E+00 -0.31382268727E+03  0.31382268727E+03  0.00000000000E+00 0. -1.
        -24    2    1    2    0    0 -0.34670275145E+02  0.93019989500E-01 -0.27875190091E+03  0.29197116572E+03  0.79639831239E+02 0.  0.
         25    2    1    2    0    0  0.15578591235E+02  0.24903274776E+02  0.16776657202E+03  0.21132252927E+03  0.12509485637E+03 0.  0.
         24    2    1    2    0    0  0.19091683909E+02 -0.24996294765E+02  0.29999212850E+03  0.31335847915E+03  0.84905548394E+02 0.  0.
        -13    1    5    5    0    0  0.38583702558E+02 -0.27420281412E+02  0.83550345387E+02  0.96027257329E+02  0.00000000000E+00 0.  1.
         14    1    5    5    0    0 -0.19492018648E+02  0.24239866465E+01  0.21644178311E+03  0.21733122182E+03  0.00000000000E+00 0. -1.
         13    1    3    3    0    0 -0.84894043468E+01  0.11478981670E+02 -0.25336460596E+03  0.25376654736E+03  0.00000000000E+00 0. -1.
        -14    1    3    3    0    0 -0.26180870798E+02 -0.11385961681E+02 -0.25387294952E+02  0.38204618361E+02  0.00000000000E+00 0.  1.
          5    1    4    4  501    0 -0.16134898503E+02  0.44560729656E+02  0.93094647066E+01  0.48478161169E+02  0.41800000000E+01 0.  1.
         -5    1    4    4    0  501  0.31713489739E+02 -0.19657454880E+02  0.15845710731E+03  0.16284436810E+03  0.41800000000E+01 0.  1.
</event>
<event>
11    1  0.8039394E-009  0.1404045E+03  0.7561462E-02  0.1107107E+00
         22   -1    0    0    0    0  0.00000000000E+00  0.00000000000E+00  0.10617031873E+04  0.10617031873E+04  0.00000000000E+00 0.  1.
         22   -1    0    0    0    0 -0.00000000000E+00 -0.00000000000E+00 -0.17751210219E+04  0.17751210219E+04  0.00000000000E+00 0.  1.
         24    2    1    2    0    0  0.47920872496E+01  0.41697390391E+02 -0.14176446446E+04  0.14205173886E+04  0.79947960821E+02 0.  0.
         25    2    1    2    0    0 -0.54440758277E+02 -0.81375197714E+02 -0.33565004778E+03  0.37134034128E+03  0.12508787121E+03 0.  0.
        -24    2    1    2    0    0  0.49648671028E+02  0.39677807323E+02  0.10398768577E+04  0.10449664793E+04  0.81066298306E+02 0.  0.
        -13    1    3    3    0    0  0.25334895395E+02  0.57235226304E+02 -0.85780978986E+03  0.86009032295E+03  0.00000000000E+00 0.  1.
         14    1    3    3    0    0 -0.20542808146E+02 -0.15537835913E+02 -0.55983485475E+03  0.56042706564E+03  0.00000000000E+00 0. -1.
         11    1    5    5    0    0 -0.69418232003E+01  0.59461836631E+01  0.12530905291E+02  0.15510306151E+02  0.00000000000E+00 0. -1.
        -12    1    5    5    0    0  0.56590494228E+02  0.33731623660E+02  0.10273459525E+04  0.10294561732E+04  0.00000000000E+00 0.  1.
          5    1    4    4  501    0 -0.90755632086E+02 -0.70789622108E+02 -0.20363777541E+03  0.23395207058E+03  0.41800000000E+01 0.  1.
         -5    1    4    4    0  501  0.36314873809E+02 -0.10585575606E+02 -0.13201227237E+03  0.13738827070E+03  0.41800000000E+01 0.  1.
</event>
<event>
11    1  0.8039394E-009  0.1454708E+03  0.7561462E-02  0.1101599E+00
         22   -1    0    0    0    0  0.00000000000E+00  0.00000000000E+00  0.11435825991E+04  0.11435825991E+04  0.00000000000E+00 0. -1.
         22   -1    0    0    0    0 -0.00000000000E+00 -0.00000000000E+00 -0.15936084512E+03  0.15936084512E+03  0.00000000000E+00 0. -1.
         24    2    1    2    0    0 -0.62468795276E+02  0.49264825284E+02 -0.10365799142E+03  0.15501194752E+03  0.83392753252E+02 0.  0.
         25    2    1    2    0    0  0.44859490258E+02 -0.96201941340E+01  0.13114140184E+03  0.18694331923E+03  0.12507923619E+03 0.  0.
        -24    2    1    2    0    0  0.17609305018E+02 -0.39644631150E+02  0.95673834356E+03  0.96098817747E+03  0.79172184485E+02 0.  0.
        -13    1    3    3    0    0 -0.13346707124E+02  0.48047747995E+02 -0.12430687465E+02  0.51393021602E+02  0.00000000000E+00 0.  1.
         14    1    3    3    0    0 -0.49122088152E+02  0.12170772890E+01 -0.91227303952E+02  0.10361892592E+03  0.00000000000E+00 0. -1.
         13    1    5    5    0    0  0.14208407035E+02 -0.42281136359E+02  0.95545796884E+03  0.95649856432E+03  0.00000000000E+00 0. -1.
        -14    1    5    5    0    0  0.34008979832E+01  0.26365052083E+01  0.12803747164E+01  0.44896131482E+01  0.00000000000E+00 0.  1.
          5    1    4    4  501    0  0.12724688077E+02 -0.63281696704E+02  0.39102166208E+02  0.75584010389E+02  0.41800000000E+01 0. -1.
         -5    1    4    4    0  501  0.32134802181E+02  0.53661502570E+02  0.92039235634E+02  0.11135930884E+03  0.41800000000E+01 0. -1.
</event>
<event>
11    1  0.8039394E-009  0.1348206E+03  0.7561462E-02  0.1113484E+00
         22   -1    0    0    0    0  0.00000000000E+00  0.00000000000E+00  0.13469817404E+04  0.13469817404E+04  0.00000000000E+00 0.  1.
         22   -1    0    0    0    0 -0.00000000000E+00 -0.00000000000E+00 -0.37986564716E+03  0.37986564716E+03  0.00000000000E+00 0.  1.
        -24    2    1    2    0    0  0.14878957678E+02 -0.47950113463E+02 -0.34600192252E+03  0.36484045191E+03  0.10426230476E+03 0.  0.
         25    2    1    2    0    0 -0.45086582302E+02  0.40152547142E+02  0.18898039357E+03  0.23453443112E+03  0.12509109993E+03 0.  0.
         24    2    1    2    0    0  0.30207624624E+02  0.77975663203E+01  0.11241376222E+04  0.11274725045E+04  0.80842762367E+02 0.  0.
        -11    1    5    5    0    0  0.81034927249E+01 -0.99392073759E+01  0.10023051741E+04  0.10023872089E+04  0.00000000000E+00 0.  1.
         12    1    5    5    0    0  0.22104131899E+02  0.17736773696E+02  0.12183244805E+03  0.12508529564E+03  0.00000000000E+00 0. -1.
         11    1    3    3    0    0 -0.11386204150E+02  0.47130534887E+01  0.14788574282E+01  0.12411508265E+02  0.00000000000E+00 0. -1.
        -12    1    3    3    0    0  0.26265161828E+02 -0.52663166951E+02 -0.34748077995E+03  0.35242894364E+03  0.00000000000E+00 0.  1.
          5    1    4    4  501    0  0.28298070011E+02 -0.26921643935E+02  0.49352124063E+02  0.63076621882E+02  0.41800000000E+01 0. -1.
         -5    1    4    4    0  501 -0.73384652313E+02  0.67074191078E+02  0.13962826950E+03  0.17145780924E+03  0.41800000000E+01 0. -1.
</event>
<event>
11    1  0.8039394E-009  0.1342087E+03  0.7561462E-02  0.1114203E+00
         22   -1    0    0    0    0  0.00000000000E+00  0.00000000000E+00  0.25302878345E+03  0.25302878345E+03  0.00000000000E+00 0.  1.
         22   -1    0    0    0    0 -0.00000000000E+00 -0.00000000000E+00 -0.37843218205E+03  0.37843218205E+03  0.00000000000E+00 0.  1.
        -24    2    1    2    0    0  0.39149893014E+02 -0.26910883964E+02 -0.29304566035E+03  0.30788567912E+03  0.81614475177E+02 0.  0.
         25    2    1    2    0    0 -0.54510206947E+02  0.24377429068E+02  0.19021480851E+01  0.13863712356E+03  0.12510400534E+03 0.  0.
         24    2    1    2    0    0  0.15360313933E+02  0.25334548966E+01  0.16574011365E+03  0.18493816282E+03  0.80560419283E+02 0.  0.
        -11    1    5    5    0    0  0.46108928701E+02  0.12119034610E+02  0.11881499376E+03  0.12802307233E+03  0.00000000000E+00 0.  1.
         12    1    5    5    0    0 -0.30748614768E+02 -0.95855797133E+01  0.46925119890E+02  0.56915090488E+02  0.00000000000E+00 0. -1.
         13    1    3    3    0    0  0.14507447767E+02  0.38588314898E+01 -0.31714477463E+01  0.15343229842E+02  0.00000000000E+00 0. -1.
        -14    1    3    3    0    0  0.24642445247E+02 -0.30769715454E+02 -0.28987421260E+03  0.29254244927E+03  0.00000000000E+00 0.  1.
          5    1    4    4  501    0 -0.54723781877E+02  0.59771943597E+02  0.36488345342E+02  0.88973306615E+02  0.41800000000E+01 0.  1.
         -5    1    4    4    0  501  0.21357493032E+00 -0.35394514529E+02 -0.34586197257E+02  0.49663816947E+02  0.41800000000E+01 0.  1.
</event>
